<event>
 8    1  0.1109294E+005  0.1043930E+01  0.7957747E-01            NaN
         13   -1    0    0    0    0  0.00000000000E+00  0.00000000000E+00  0.74505805969E-08  0.10566000000E+00  0.10566000000E+00 0.  1.
     999900   -1    0    0    0    0 -0.00000000000E+00 -0.00000000000E+00 -0.74505805969E-08  0.93827000000E+00  0.93827000000E+00 0. -1.
     999902    2    1    2    0    0 -0.22881773121E-01 -0.47243101025E-02  0.20622550163E-02  0.10204747758E+01  0.10202051855E+01 0.  0.
     999903    2    3    3    0    0  0.11291988019E+00 -0.36780343417E-01  0.44687215953E-01  0.12846212699E+00  0.20046889995E-01 0.  0.
         14    1    1    2    0    0  0.22881773121E-01  0.47243101025E-02 -0.20622550163E-02  0.23455224212E-01  0.00000000000E+00 0. -1.
     999901    1    3    3    0    0 -0.13580165331E+00  0.32056033315E-01 -0.42624960936E-01  0.89201264879E+00  0.88000000000E+00 0.  1.
        -11    1    4    4    0    0  0.78733909199E-01 -0.34690264847E-01  0.29079715571E-01  0.90820338645E-01  0.51100000000E-03 0.  1.
         11    1    4    4    0    0  0.34185970990E-01 -0.20900785705E-02  0.15607500381E-01  0.37641788349E-01  0.51100000000E-03 0. -1.
</event>
<event>
 8    1  0.1109294E+005  0.1043930E+01  0.7957747E-01            NaN
         13   -1    0    0    0    0  0.00000000000E+00  0.00000000000E+00  0.74505805969E-08  0.10566000000E+00  0.10566000000E+00 0.  1.
     999900   -1    0    0    0    0 -0.00000000000E+00 -0.00000000000E+00 -0.74505805969E-08  0.93827000000E+00  0.93827000000E+00 0. -1.
     999902    2    1    2    0    0  0.20039655206E-01 -0.56310671793E-02  0.84145817667E-02  0.10214777866E+01  0.10212310056E+01 0.  0.
     999903    2    3    3    0    0  0.35345611306E-01  0.36745198586E-01  0.12121328683E+00  0.13313462769E+00  0.20800152100E-01 0.  0.
         14    1    1    2    0    0 -0.20039655206E-01  0.56310671793E-02 -0.84145817667E-02  0.22452213358E-01  0.00000000000E+00 0. -1.
     999901    1    3    3    0    0 -0.15305956100E-01 -0.42376265765E-01 -0.11279870507E+00  0.88834315895E+00  0.88000000000E+00 0. -1.
        -11    1    4    4    0    0  0.28459017426E-01  0.20253622301E-01  0.60694037742E-01  0.70029652488E-01  0.51100000000E-03 0. -1.
         11    1    4    4    0    0  0.68865938805E-02  0.16491576285E-01  0.60519249091E-01  0.63104975202E-01  0.51100000000E-03 0.  1.
</event>
<event>
 8    1  0.1109294E+005  0.1043930E+01  0.7957747E-01            NaN
         13   -1    0    0    0    0  0.00000000000E+00  0.00000000000E+00  0.74505805969E-08  0.10566000000E+00  0.10566000000E+00 0.  1.
     999900   -1    0    0    0    0 -0.00000000000E+00 -0.00000000000E+00 -0.74505805969E-08  0.93827000000E+00  0.93827000000E+00 0.  1.
     999902    2    1    2    0    0  0.15406935010E-02 -0.23258541023E-01  0.34772446181E-02  0.10203625501E+01  0.10200903435E+01 0.  0.
     999903    2    3    3    0    0  0.78074299590E-01 -0.77889121424E-01  0.70994660636E-01  0.13278128918E+00  0.20695831123E-01 0.  0.
         14    1    1    2    0    0 -0.15406935010E-02  0.23258541023E-01 -0.34772446181E-02  0.23567449949E-01  0.00000000000E+00 0. -1.
     999901    1    3    3    0    0 -0.76533606089E-01  0.54630580402E-01 -0.67517416018E-01  0.88758126087E+00  0.88000000000E+00 0. -1.
        -11    1    4    4    0    0  0.45439383329E-01 -0.38599393223E-01  0.27352445895E-01  0.65597775358E-01  0.51100000000E-03 0.  1.
         11    1    4    4    0    0  0.32634916261E-01 -0.39289728201E-01  0.43642214741E-01  0.67183513826E-01  0.51100000000E-03 0. -1.
</event>
<event>
 7    1  0.1109294E+005  0.1043930E+01  0.7957747E-01            NaN
         13   -1    0    0    0    0  0.00000000000E+00  0.00000000000E+00  0.74505805969E-08  0.10566000000E+00  0.10566000000E+00 0. -1.
     999900   -1    0    0    0    0 -0.00000000000E+00 -0.00000000000E+00 -0.74505805969E-08  0.93827000000E+00  0.93827000000E+00 0. -1.
     999903    2    1    2    0    0  0.65243291751E-03  0.10772478295E+00  0.20861795764E-01  0.11169697721E+00  0.20879311889E-01 0.  0.
         14    1    1    2    0    0 -0.39988037795E-01  0.90951496209E-02  0.12930555732E-01  0.42999583543E-01  0.00000000000E+00 0. -1.
     999901    1    1    2    0    0  0.39335604878E-01 -0.11681993257E+00 -0.33792351496E-01  0.88923343925E+00  0.88000000000E+00 0. -1.
        -11    1    3    3    0    0 -0.98210420907E-02  0.40103102760E-01  0.85931559176E-02  0.42176002281E-01  0.51100000000E-03 0. -1.
         11    1    3    3    0    0  0.10473475008E-01  0.67621680189E-01  0.12268639846E-01  0.69520974928E-01  0.51100000000E-03 0.  1.
</event>
<event>
 7    1  0.1109294E+005  0.1043930E+01  0.7957747E-01            NaN
         13   -1    0    0    0    0  0.00000000000E+00  0.00000000000E+00  0.74505805969E-08  0.10566000000E+00  0.10566000000E+00 0.  1.
     999900   -1    0    0    0    0 -0.00000000000E+00 -0.00000000000E+00 -0.74505805969E-08  0.93827000000E+00  0.93827000000E+00 0.  1.
     999903    2    1    2    0    0  0.83437678125E-01  0.48326019947E-01  0.35631884724E-01  0.10476586596E+00  0.20223875160E-01 0.  0.
         14    1    1    2    0    0 -0.13668316696E-01 -0.53937159206E-01 -0.47581889074E-02  0.55845146488E-01  0.00000000000E+00 0.  1.
     999901    1    1    2    0    0 -0.69769361429E-01  0.56111392592E-02 -0.30873695817E-01  0.88331898755E+00  0.88000000000E+00 0.  1.
        -11    1    3    3    0    0  0.70683191609E-01  0.46643697843E-01  0.35663651368E-01  0.91890724637E-01  0.51100000000E-03 0.  1.
         11    1    3    3    0    0  0.12754486516E-01  0.16823221040E-02 -0.31766643689E-04  0.12875141322E-01  0.51100000000E-03 0. -1.
</event>
<event>
 8    1  0.1109294E+005  0.1043930E+01  0.7957747E-01            NaN
         13   -1    0    0    0    0  0.00000000000E+00  0.00000000000E+00  0.74505805969E-08  0.10566000000E+00  0.10566000000E+00 0.  1.
     999900   -1    0    0    0    0 -0.00000000000E+00 -0.00000000000E+00 -0.74505805969E-08  0.93827000000E+00  0.93827000000E+00 0.  1.
     999902    2    1    2    0    0  0.14728702632E-01  0.17979098386E-01  0.45111552381E-02  0.10202544180E+01  0.10199796784E+01 0.  0.
     999903    2    3    3    0    0 -0.99048457245E-01 -0.65133386331E-01 -0.44870946572E-01  0.12767864018E+00  0.15345305948E-01 0.  0.
         14    1    1    2    0    0 -0.14728702632E-01 -0.17979098386E-01 -0.45111552381E-02  0.23675581969E-01  0.00000000000E+00 0.  1.
     999901    1    3    3    0    0  0.11377715988E+00  0.83112484717E-01  0.49382101810E-01  0.89257577785E+00  0.88000000000E+00 0.  1.
        -11    1    4    4    0    0 -0.60680455050E-01 -0.46848645910E-01 -0.24041490761E-01  0.80344057949E-01  0.51100000000E-03 0. -1.
         11    1    4    4    0    0 -0.38368002194E-01 -0.18284740420E-01 -0.20829455811E-01  0.47334582232E-01  0.51100000000E-03 0.  1.
</event>
<event>
 8    1  0.1109294E+005  0.1043930E+01  0.7957747E-01            NaN
         13   -1    0    0    0    0  0.00000000000E+00  0.00000000000E+00  0.74505805969E-08  0.10566000000E+00  0.10566000000E+00 0.  1.
     999900   -1    0    0    0    0 -0.00000000000E+00 -0.00000000000E+00 -0.74505805969E-08  0.93827000000E+00  0.93827000000E+00 0.  1.
     999902    2    1    2    0    0  0.16316875121E-02  0.16282851464E-02 -0.23711432305E-01  0.10201067815E+01  0.10198285640E+01 0.  0.
     999903    2    3    3    0    0 -0.85908077765E-01 -0.16826553072E-01 -0.97463872093E-01  0.13250145598E+00  0.19851920808E-01 0.  0.
         14    1    1    2    0    0 -0.16316875121E-02 -0.16282851464E-02  0.23711432305E-01  0.23823218478E-01  0.00000000000E+00 0.  1.
     999901    1    3    3    0    0  0.87539765277E-01  0.18454838219E-01  0.73752439787E-01  0.88760532554E+00  0.88000000000E+00 0. -1.
        -11    1    4    4    0    0 -0.63811675830E-01 -0.11786532479E-01 -0.58227368761E-01  0.87186810436E-01  0.51100000000E-03 0.  1.
         11    1    4    4    0    0 -0.22096401935E-01 -0.50400205933E-02 -0.39236503331E-01  0.45314645543E-01  0.51100000000E-03 0. -1.
</event>
<event>
 8    1  0.1109294E+005  0.1043930E+01  0.7957747E-01            NaN
         13   -1    0    0    0    0  0.00000000000E+00  0.00000000000E+00  0.74505805969E-08  0.10566000000E+00  0.10566000000E+00 0. -1.
     999900   -1    0    0    0    0 -0.00000000000E+00 -0.00000000000E+00 -0.74505805969E-08  0.93827000000E+00  0.93827000000E+00 0.  1.
     999902    2    1    2    0    0 -0.10334471990E-01 -0.90478566882E-02 -0.20369859492E-01  0.10193618052E+01  0.10190656964E+01 0.  0.
     999903    2    3    3    0    0  0.25226423123E-01  0.12162295371E+00 -0.28621451193E-01  0.12896440696E+00  0.19598864818E-01 0.  0.
         14    1    1    2    0    0  0.10334471990E-01  0.90478566882E-02  0.20369859492E-01  0.24568194840E-01  0.00000000000E+00 0. -1.
     999901    1    3    3    0    0 -0.35560895113E-01 -0.13067081040E+00  0.82515917010E-02  0.89039739820E+00  0.88000000000E+00 0.  1.
        -11    1    4    4    0    0  0.16401694870E-01  0.34789663097E-01 -0.85579939679E-02  0.39406048200E-01  0.51100000000E-03 0.  1.
         11    1    4    4    0    0  0.88247282531E-02  0.86833290613E-01 -0.20063457225E-01  0.89558358762E-01  0.51100000000E-03 0. -1.
</event>
<event>
 8    1  0.1109294E+005  0.1043930E+01  0.7957747E-01            NaN
         13   -1    0    0    0    0  0.00000000000E+00  0.00000000000E+00  0.74505805969E-08  0.10566000000E+00  0.10566000000E+00 0.  1.
     999900   -1    0    0    0    0 -0.00000000000E+00 -0.00000000000E+00 -0.74505805969E-08  0.93827000000E+00  0.93827000000E+00 0.  1.
     999902    2    1    2    0    0 -0.49429140712E-02 -0.52585990392E-02 -0.22687897630E-01  0.10201218929E+01  0.10198440324E+01 0.  0.
     999903    2    3    3    0    0  0.33731890774E-01 -0.12451125214E+00  0.11066556706E-01  0.13059600855E+00  0.17086731874E-01 0.  0.
         14    1    1    2    0    0  0.49429140712E-02  0.52585990392E-02  0.22687897630E-01  0.23808107070E-01  0.00000000000E+00 0.  1.
     999901    1    3    3    0    0 -0.38674804845E-01  0.11925265310E+00 -0.33754454336E-01  0.88952588438E+00  0.88000000000E+00 0.  1.
        -11    1    4    4    0    0  0.30618677013E-01 -0.83910634804E-01  0.97139699049E-02  0.89850544503E-01  0.51100000000E-03 0. -1.
         11    1    4    4    0    0  0.31132137607E-02 -0.40600617336E-01  0.13525868007E-02  0.40745464043E-01  0.51100000000E-03 0.  1.
</event>
<event>
 8    1  0.1109294E+005  0.1043930E+01  0.7957747E-01            NaN
         13   -1    0    0    0    0  0.00000000000E+00  0.00000000000E+00  0.74505805969E-08  0.10566000000E+00  0.10566000000E+00 0.  1.
     999900   -1    0    0    0    0 -0.00000000000E+00 -0.00000000000E+00 -0.74505805969E-08  0.93827000000E+00  0.93827000000E+00 0.  1.
     999902    2    1    2    0    0 -0.17992992731E-01  0.15857843098E-01 -0.23386486141E-02  0.10198325260E+01  0.10195477884E+01 0.  0.
     999903    2    3    3    0    0 -0.13878405612E-01 -0.12204133739E+00  0.31991649134E-01  0.12842258488E+00  0.19549847028E-01 0.  0.
         14    1    1    2    0    0  0.17992992731E-01 -0.15857843098E-01  0.23386486141E-02  0.24097473985E-01  0.00000000000E+00 0.  1.
     999901    1    3    3    0    0 -0.41145871190E-02  0.13789918049E+00 -0.34330297748E-01  0.89140994113E+00  0.88000000000E+00 0. -1.
        -11    1    4    4    0    0 -0.62107933889E-02 -0.81915987687E-01  0.12294350509E-01  0.83067533782E-01  0.51100000000E-03 0. -1.
         11    1    4    4    0    0 -0.76676122230E-02 -0.40125349705E-01  0.19697298625E-01  0.45355051100E-01  0.51100000000E-03 0.  1.
</event>
<event>
 8    1  0.1109294E+005  0.1043930E+01  0.7957747E-01            NaN
         13   -1    0    0    0    0  0.00000000000E+00  0.00000000000E+00  0.74505805969E-08  0.10566000000E+00  0.10566000000E+00 0. -1.
     999900   -1    0    0    0    0 -0.00000000000E+00 -0.00000000000E+00 -0.74505805969E-08  0.93827000000E+00  0.93827000000E+00 0. -1.
     999902    2    1    2    0    0  0.10359998695E-01 -0.14581395945E-01 -0.15399223459E-01  0.10203273992E+01  0.10200543705E+01 0.  0.
     999903    2    3    3    0    0  0.11358258556E+00 -0.56924799432E-01  0.30901342561E-01  0.13207540306E+00  0.18643566957E-01 0.  0.
         14    1    1    2    0    0 -0.10359998695E-01  0.14581395945E-01  0.15399223459E-01  0.23602600785E-01  0.00000000000E+00 0. -1.
     999901    1    3    3    0    0 -0.10322258686E+00  0.42343403488E-01 -0.46300566020E-01  0.88825199615E+00  0.88000000000E+00 0. -1.
        -11    1    4    4    0    0  0.32488257814E-01 -0.24014975895E-01  0.15146012434E-01  0.43149377477E-01  0.51100000000E-03 0.  1.
         11    1    4    4    0    0  0.81094327745E-01 -0.32909823538E-01  0.15755330128E-01  0.88926025584E-01  0.51100000000E-03 0. -1.
</event>
<event>
 8    1  0.1109294E+005  0.1043930E+01  0.7957747E-01            NaN
         13   -1    0    0    0    0  0.00000000000E+00  0.00000000000E+00  0.74505805969E-08  0.10566000000E+00  0.10566000000E+00 0.  1.
     999900   -1    0    0    0    0 -0.00000000000E+00 -0.00000000000E+00 -0.74505805969E-08  0.93827000000E+00  0.93827000000E+00 0. -1.
     999902    2    1    2    0    0 -0.10173937023E-02 -0.19256130646E-01 -0.11687891456E-01  0.10213813756E+01  0.10211324468E+01 0.  0.
     999903    2    3    3    0    0  0.39260300023E-01  0.93449632048E-01  0.76697116046E-01  0.12889227697E+00  0.21367418289E-01 0.  0.
         14    1    1    2    0    0  0.10173937023E-02  0.19256130646E-01  0.11687891456E-01  0.22548624439E-01  0.00000000000E+00 0.  1.
     999901    1    3    3    0    0 -0.40277693725E-01 -0.11270576269E+00 -0.88385007503E-01  0.89248909859E+00  0.88000000000E+00 0.  1.
        -11    1    4    4    0    0  0.11499992602E-01  0.52158158634E-01  0.45475384208E-01  0.70149804217E-01  0.51100000000E-03 0. -1.
         11    1    4    4    0    0  0.27760307421E-01  0.41291473414E-01  0.31221731839E-01  0.58742472750E-01  0.51100000000E-03 0.  1.
</event>
<event>
 8    1  0.1109294E+005  0.1043930E+01  0.7957747E-01            NaN
         13   -1    0    0    0    0  0.00000000000E+00  0.00000000000E+00  0.74505805969E-08  0.10566000000E+00  0.10566000000E+00 0.  1.
     999900   -1    0    0    0    0 -0.00000000000E+00 -0.00000000000E+00 -0.74505805969E-08  0.93827000000E+00  0.93827000000E+00 0.  1.
     999902    2    1    2    0    0 -0.23214958963E-03 -0.11204291962E-01  0.20904444071E-01  0.10202111081E+01  0.10199353505E+01 0.  0.
     999903    2    3    3    0    0 -0.87639482294E-02  0.48931452635E-01  0.12130835759E+00  0.13242169318E+00  0.18673332825E-01 0.  0.
         14    1    1    2    0    0  0.23214958963E-03  0.11204291962E-01 -0.20904444071E-01  0.23718891916E-01  0.00000000000E+00 0. -1.
     999901    1    3    3    0    0  0.85317986397E-02 -0.60135744598E-01 -0.10040391352E+00  0.88778941490E+00  0.88000000000E+00 0.  1.
        -11    1    4    4    0    0 -0.13148366164E-01  0.27327581387E-01  0.80724392214E-01  0.86234360069E-01  0.51100000000E-03 0.  1.
         11    1    4    4    0    0  0.43844179344E-02  0.21603871248E-01  0.40583965373E-01  0.46187333111E-01  0.51100000000E-03 0. -1.
</event>
<event>
 8    1  0.1109294E+005  0.1043930E+01  0.7957747E-01            NaN
         13   -1    0    0    0    0  0.00000000000E+00  0.00000000000E+00  0.74505805969E-08  0.10566000000E+00  0.10566000000E+00 0. -1.
     999900   -1    0    0    0    0 -0.00000000000E+00 -0.00000000000E+00 -0.74505805969E-08  0.93827000000E+00  0.93827000000E+00 0. -1.
     999902    2    1    2    0    0  0.16307427680E-01  0.44014739877E-02 -0.17407347474E-01  0.10196746724E+01  0.10193861470E+01 0.  0.
     999903    2    3    3    0    0 -0.18420135587E-01 -0.49238357588E-01  0.11450615248E+00  0.12755113463E+00  0.19847310512E-01 0.  0.
         14    1    1    2    0    0 -0.16307427680E-01 -0.44014739877E-02  0.17407347474E-01  0.24255327598E-01  0.00000000000E+00 0. -1.
     999901    1    3    3    0    0  0.34727563267E-01  0.53639831576E-01 -0.13191349996E+00  0.89212353778E+00  0.88000000000E+00 0. -1.
        -11    1    4    4    0    0 -0.17656925327E-02 -0.51085771117E-02  0.24208994182E-02  0.59445021002E-02  0.51100000000E-03 0. -1.
         11    1    4    4    0    0 -0.16654443054E-01 -0.44129780477E-01  0.11208525307E+00  0.12160663253E+00  0.51100000000E-03 0.  1.
</event>
<event>
 8    1  0.1109294E+005  0.1043930E+01  0.7957747E-01            NaN
         13   -1    0    0    0    0  0.00000000000E+00  0.00000000000E+00  0.74505805969E-08  0.10566000000E+00  0.10566000000E+00 0.  1.
     999900   -1    0    0    0    0 -0.00000000000E+00 -0.00000000000E+00 -0.74505805969E-08  0.93827000000E+00  0.93827000000E+00 0. -1.
     999902    2    1    2    0    0 -0.91088254117E-02  0.60716600770E-02  0.21492079645E-01  0.10198106044E+01  0.10195253423E+01 0.  0.
     999903    2    3    3    0    0 -0.36770618494E-01 -0.10871111901E+00 -0.54674420599E-01  0.12866437795E+00  0.19875716452E-01 0.  0.
         14    1    1    2    0    0  0.91088254117E-02 -0.60716600770E-02 -0.21492079645E-01  0.24119395596E-01  0.00000000000E+00 0. -1.
     999901    1    3    3    0    0  0.27661793082E-01  0.11478277908E+00  0.76166500243E-01  0.89114622646E+00  0.88000000000E+00 0.  1.
        -11    1    4    4    0    0 -0.92689972549E-02 -0.58330107247E-01 -0.28319865430E-01  0.65502607739E-01  0.51100000000E-03 0.  1.
         11    1    4    4    0    0 -0.27501621239E-01 -0.50381011759E-01 -0.26354555169E-01  0.63161770208E-01  0.51100000000E-03 0. -1.
</event>
<event>
 8    1  0.1109294E+005  0.1043930E+01  0.7957747E-01            NaN
         13   -1    0    0    0    0  0.00000000000E+00  0.00000000000E+00  0.74505805969E-08  0.10566000000E+00  0.10566000000E+00 0.  1.
     999900   -1    0    0    0    0 -0.00000000000E+00 -0.00000000000E+00 -0.74505805969E-08  0.93827000000E+00  0.93827000000E+00 0. -1.
     999902    2    1    2    0    0 -0.19657411640E-01  0.10772025684E-02 -0.95340673508E-02  0.10220559826E+01  0.10218218822E+01 0.  0.
     999903    2    3    3    0    0  0.11414038957E+00 -0.36835049867E-02  0.57749711949E-01  0.12939052290E+00  0.19112337556E-01 0.  0.
         14    1    1    2    0    0  0.19657411640E-01 -0.10772025684E-02  0.95340673508E-02  0.21874017418E-01  0.00000000000E+00 0.  1.
     999901    1    3    3    0    0 -0.13379780121E+00  0.47607075551E-02 -0.67283779299E-01  0.89266545968E+00  0.88000000000E+00 0.  1.
        -11    1    4    4    0    0  0.60996395725E-01 -0.94212618601E-02  0.24305005010E-01  0.66334869081E-01  0.51100000000E-03 0.  1.
         11    1    4    4    0    0  0.53143993846E-01  0.57377568734E-02  0.33444706939E-01  0.63055653823E-01  0.51100000000E-03 0. -1.
</event>
<event>
 8    1  0.1109294E+005  0.1043930E+01  0.7957747E-01            NaN
         13   -1    0    0    0    0  0.00000000000E+00  0.00000000000E+00  0.74505805969E-08  0.10566000000E+00  0.10566000000E+00 0.  1.
     999900   -1    0    0    0    0 -0.00000000000E+00 -0.00000000000E+00 -0.74505805969E-08  0.93827000000E+00  0.93827000000E+00 0. -1.
     999902    2    1    2    0    0  0.15157854702E-01  0.13785021906E-01 -0.17164808290E-01  0.10172014005E+01  0.10168501714E+01 0.  0.
     999903    2    3    3    0    0 -0.45026000077E-01 -0.24835525337E-01  0.11209735493E+00  0.12488847898E+00  0.19676666339E-01 0.  0.
         14    1    1    2    0    0 -0.15157854702E-01 -0.13785021906E-01  0.17164808290E-01  0.26728599509E-01  0.00000000000E+00 0.  1.
     999901    1    3    3    0    0  0.60183854780E-01  0.38620547243E-01 -0.12926216322E+00  0.89231292151E+00  0.88000000000E+00 0. -1.
        -11    1    4    4    0    0 -0.31251375138E-01 -0.18354376639E-01  0.96521575660E-01  0.10310289656E+00  0.51100000000E-03 0.  1.
         11    1    4    4    0    0 -0.13774624940E-01 -0.64811486977E-02  0.15575779273E-01  0.21785582426E-01  0.51100000000E-03 0. -1.
</event>
<event>
 8    1  0.1109294E+005  0.1043930E+01  0.7957747E-01            NaN
         13   -1    0    0    0    0  0.00000000000E+00  0.00000000000E+00  0.74505805969E-08  0.10566000000E+00  0.10566000000E+00 0. -1.
     999900   -1    0    0    0    0 -0.00000000000E+00 -0.00000000000E+00 -0.74505805969E-08  0.93827000000E+00  0.93827000000E+00 0.  1.
     999902    2    1    2    0    0 -0.20005637974E-01 -0.85274044147E-02 -0.80595940231E-02  0.10207373453E+01  0.10204738256E+01 0.  0.
     999903    2    3    3    0    0  0.78482093035E-01  0.11490195887E-01  0.99110612888E-01  0.12855687547E+00  0.20309926483E-01 0.  0.
         14    1    1    2    0    0  0.20005637974E-01  0.85274044147E-02  0.80595940231E-02  0.23192654713E-01  0.00000000000E+00 0.  1.
     999901    1    3    3    0    0 -0.98487731010E-01 -0.20017600302E-01 -0.10717020691E+00  0.89218046982E+00  0.88000000000E+00 0.  1.
        -11    1    4    4    0    0  0.20693272119E-01 -0.45800802871E-02  0.33633848248E-01  0.39757835899E-01  0.51100000000E-03 0.  1.
         11    1    4    4    0    0  0.57788820916E-01  0.16070276174E-01  0.65476764641E-01  0.88799039567E-01  0.51100000000E-03 0. -1.
</event>
<event>
 8    1  0.1109294E+005  0.1043930E+01  0.7957747E-01            NaN
         13   -1    0    0    0    0  0.00000000000E+00  0.00000000000E+00  0.74505805969E-08  0.10566000000E+00  0.10566000000E+00 0.  1.
     999900   -1    0    0    0    0 -0.00000000000E+00 -0.00000000000E+00 -0.74505805969E-08  0.93827000000E+00  0.93827000000E+00 0. -1.
     999902    2    1    2    0    0  0.70791940733E-03  0.92587225316E-02  0.21851022146E-01  0.10201877958E+01  0.10199114895E+01 0.  0.
     999903    2    3    3    0    0 -0.45414841040E-01 -0.11795091029E+00  0.15861671845E-01  0.12982524488E+00  0.25061455466E-01 0.  0.
         14    1    1    2    0    0 -0.70791940733E-03 -0.92587225316E-02 -0.21851022146E-01  0.23742204228E-01  0.00000000000E+00 0. -1.
     999901    1    3    3    0    0  0.46122760447E-01  0.12720963282E+00  0.59893503012E-02  0.89036255089E+00  0.88000000000E+00 0. -1.
        -11    1    4    4    0    0 -0.99635739541E-02 -0.56056761716E-01  0.13189935971E-01  0.58445434997E-01  0.51100000000E-03 0.  1.
         11    1    4    4    0    0 -0.35451267085E-01 -0.61894148571E-01  0.26717358733E-02  0.71379809883E-01  0.51100000000E-03 0. -1.
</event>
<event>
 8    1  0.1109294E+005  0.1043930E+01  0.7957747E-01            NaN
         13   -1    0    0    0    0  0.00000000000E+00  0.00000000000E+00  0.74505805969E-08  0.10566000000E+00  0.10566000000E+00 0.  1.
     999900   -1    0    0    0    0 -0.00000000000E+00 -0.00000000000E+00 -0.74505805969E-08  0.93827000000E+00  0.93827000000E+00 0. -1.
     999902    2    1    2    0    0 -0.95380443951E-02 -0.20344427344E-01  0.56036669774E-02  0.10207724721E+01  0.10205097592E+01 0.  0.
     999903    2    3    3    0    0 -0.39855229270E-02  0.14800439265E-01 -0.12726624858E+00  0.13008711430E+00  0.22159013580E-01 0.  0.
         14    1    1    2    0    0  0.95380443951E-02  0.20344427344E-01 -0.56036669774E-02  0.23157527900E-01  0.00000000000E+00 0.  1.
     999901    1    3    3    0    0 -0.55525214681E-02 -0.35144866609E-01  0.13286991556E+00  0.89068535780E+00  0.88000000000E+00 0.  1.
        -11    1    4    4    0    0 -0.49128055524E-02  0.20511821230E-01 -0.10249135619E+00  0.10464038266E+00  0.51100000000E-03 0.  1.
         11    1    4    4    0    0  0.92728262539E-03 -0.57113819653E-02 -0.24774892394E-01  0.25446731640E-01  0.51100000000E-03 0. -1.
</event>
<event>
 8    1  0.1109294E+005  0.1043930E+01  0.7957747E-01            NaN
         13   -1    0    0    0    0  0.00000000000E+00  0.00000000000E+00  0.74505805969E-08  0.10566000000E+00  0.10566000000E+00 0. -1.
     999900   -1    0    0    0    0 -0.00000000000E+00 -0.00000000000E+00 -0.74505805969E-08  0.93827000000E+00  0.93827000000E+00 0.  1.
     999902    2    1    2    0    0 -0.97291332234E-02  0.20067804399E-01 -0.26117608316E-02  0.10214757331E+01  0.10212289064E+01 0.  0.
     999903    2    3    3    0    0 -0.12598392981E+00 -0.35008994267E-01  0.69876522774E-02  0.13207099948E+00  0.17214568537E-01 0.  0.
         14    1    1    2    0    0  0.97291332234E-02 -0.20067804399E-01  0.26117608316E-02  0.22454266884E-01  0.00000000000E+00 0.  1.
     999901    1    3    3    0    0  0.11625479659E+00  0.55076798665E-01 -0.95994131090E-02  0.88940473364E+00  0.88000000000E+00 0.  1.
        -11    1    4    4    0    0 -0.73113677685E-01 -0.13795617788E-01 -0.18017557651E-02  0.74427389983E-01  0.51100000000E-03 0.  1.
         11    1    4    4    0    0 -0.52870252123E-01 -0.21213376479E-01  0.87894080425E-02  0.57643609498E-01  0.51100000000E-03 0. -1.
</event>
<event>
 8    1  0.1109294E+005  0.1043930E+01  0.7957747E-01            NaN
         13   -1    0    0    0    0  0.00000000000E+00  0.00000000000E+00  0.74505805969E-08  0.10566000000E+00  0.10566000000E+00 0.  1.
     999900   -1    0    0    0    0 -0.00000000000E+00 -0.00000000000E+00 -0.74505805969E-08  0.93827000000E+00  0.93827000000E+00 0.  1.
     999902    2    1    2    0    0 -0.26093076962E-01 -0.33432988216E-02  0.12765191761E-03  0.10176232973E+01  0.10172832116E+01 0.  0.
     999903    2    3    3    0    0  0.12160259686E+00  0.38055878554E-02 -0.20903952135E-01  0.12503859710E+00  0.19899786106E-01 0.  0.
         14    1    1    2    0    0  0.26093076962E-01  0.33432988216E-02 -0.12765191761E-03  0.26306702708E-01  0.00000000000E+00 0.  1.
     999901    1    3    3    0    0 -0.14769567383E+00 -0.71488866770E-02  0.21031604053E-01  0.89258470019E+00  0.88000000000E+00 0. -1.
        -11    1    4    4    0    0  0.28125981578E-01  0.14928179896E-02 -0.13503808385E-01  0.31239611188E-01  0.51100000000E-03 0.  1.
         11    1    4    4    0    0  0.93476615285E-01  0.23127698658E-02 -0.74001437508E-02  0.93798985912E-01  0.51100000000E-03 0. -1.
</event>
<event>
 8    1  0.1109294E+005  0.1043930E+01  0.7957747E-01            NaN
         13   -1    0    0    0    0  0.00000000000E+00  0.00000000000E+00  0.74505805969E-08  0.10566000000E+00  0.10566000000E+00 0.  1.
     999900   -1    0    0    0    0 -0.00000000000E+00 -0.00000000000E+00 -0.74505805969E-08  0.93827000000E+00  0.93827000000E+00 0. -1.
     999902    2    1    2    0    0  0.70366652373E-02  0.22260609435E-01 -0.45906383629E-02  0.10201366532E+01  0.10198591412E+01 0.  0.
     999903    2    3    3    0    0 -0.63307780416E-01 -0.10683640075E+00  0.20296718700E-01  0.12759323153E+00  0.21123076387E-01 0.  0.
         14    1    1    2    0    0 -0.70366652373E-02 -0.22260609435E-01  0.45906383629E-02  0.23793346773E-01  0.00000000000E+00 0.  1.
     999901    1    3    3    0    0  0.70344445653E-01  0.12909701018E+00 -0.24887357063E-01  0.89254342170E+00  0.88000000000E+00 0. -1.
        -11    1    4    4    0    0 -0.56266628046E-02 -0.14866851135E-01 -0.38817691496E-02  0.16371067458E-01  0.51100000000E-03 0.  1.
         11    1    4    4    0    0 -0.57681117611E-01 -0.91969549615E-01  0.24178487850E-01  0.11122216407E+00  0.51100000000E-03 0. -1.
</event>
<event>
 8    1  0.1109294E+005  0.1043930E+01  0.7957747E-01            NaN
         13   -1    0    0    0    0  0.00000000000E+00  0.00000000000E+00  0.74505805969E-08  0.10566000000E+00  0.10566000000E+00 0. -1.
     999900   -1    0    0    0    0 -0.00000000000E+00 -0.00000000000E+00 -0.74505805969E-08  0.93827000000E+00  0.93827000000E+00 0. -1.
     999902    2    1    2    0    0 -0.15609544624E-01 -0.17416051254E-02 -0.19112733320E-01  0.10191916159E+01  0.10188913398E+01 0.  0.
     999903    2    3    3    0    0  0.59106747301E-01  0.69699795414E-01 -0.90680923421E-01  0.13025494561E+00  0.19790197734E-01 0.  0.
         14    1    1    2    0    0  0.15609544624E-01  0.17416051254E-02  0.19112733320E-01  0.24738384078E-01  0.00000000000E+00 0. -1.
     999901    1    3    3    0    0 -0.74716291926E-01 -0.71441400539E-01  0.71568190100E-01  0.88893667031E+00  0.88000000000E+00 0.  1.
        -11    1    4    4    0    0  0.32009488488E-01  0.31361040113E-01 -0.31822131667E-01  0.54963909750E-01  0.51100000000E-03 0.  1.
         11    1    4    4    0    0  0.27097258814E-01  0.38338755301E-01 -0.58858791754E-01  0.75291035861E-01  0.51100000000E-03 0. -1.
</event>
<event>
 8    1  0.1109294E+005  0.1043930E+01  0.7957747E-01            NaN
         13   -1    0    0    0    0  0.00000000000E+00  0.00000000000E+00  0.74505805969E-08  0.10566000000E+00  0.10566000000E+00 0.  1.
     999900   -1    0    0    0    0 -0.00000000000E+00 -0.00000000000E+00 -0.74505805969E-08  0.93827000000E+00  0.93827000000E+00 0.  1.
     999902    2    1    2    0    0  0.95571856267E-02 -0.19651820329E-01  0.12286258165E-01  0.10188603774E+01  0.10185519047E+01 0.  0.
     999903    2    3    3    0    0  0.71249504277E-01 -0.67004682972E-01 -0.83859215705E-01  0.13021411032E+00  0.18900451551E-01 0.  0.
         14    1    1    2    0    0 -0.95571856267E-02  0.19651820329E-01 -0.12286258165E-01  0.25069622635E-01  0.00000000000E+00 0. -1.
     999901    1    3    3    0    0 -0.61692318651E-01  0.47352862643E-01  0.96145473870E-01  0.88864626704E+00  0.88000000000E+00 0. -1.
        -11    1    4    4    0    0  0.50835299619E-01 -0.49516584141E-01 -0.49220201729E-01  0.86365555470E-01  0.51100000000E-03 0. -1.
         11    1    4    4    0    0  0.20414204658E-01 -0.17488098831E-01 -0.34639013976E-01  0.43848554854E-01  0.51100000000E-03 0.  1.
</event>
<event>
 8    1  0.1109294E+005  0.1043930E+01  0.7957747E-01            NaN
         13   -1    0    0    0    0  0.00000000000E+00  0.00000000000E+00  0.74505805969E-08  0.10566000000E+00  0.10566000000E+00 0.  1.
     999900   -1    0    0    0    0 -0.00000000000E+00 -0.00000000000E+00 -0.74505805969E-08  0.93827000000E+00  0.93827000000E+00 0.  1.
     999902    2    1    2    0    0  0.26389338824E-02  0.22887313873E-01 -0.33637751780E-02  0.10206467852E+01  0.10203811798E+01 0.  0.
     999903    2    3    3    0    0  0.52525950347E-01 -0.99625723507E-01 -0.59665554169E-01  0.12898090099E+00  0.19794802871E-01 0.  0.
         14    1    1    2    0    0 -0.26389338824E-02 -0.22887313873E-01  0.33637751780E-02  0.23283214808E-01  0.00000000000E+00 0.  1.
     999901    1    3    3    0    0 -0.49887016465E-01  0.12251303738E+00  0.56301778991E-01  0.89166588421E+00  0.88000000000E+00 0. -1.
        -11    1    4    4    0    0  0.45628136643E-01 -0.67432483737E-01 -0.42122931784E-01  0.91671528947E-01  0.51100000000E-03 0.  1.
         11    1    4    4    0    0  0.68978137042E-02 -0.32193239769E-01 -0.17542622385E-01  0.37309372038E-01  0.51100000000E-03 0. -1.
</event>
<event>
 8    1  0.1109294E+005  0.1043930E+01  0.7957747E-01            NaN
         13   -1    0    0    0    0  0.00000000000E+00  0.00000000000E+00  0.74505805969E-08  0.10566000000E+00  0.10566000000E+00 0.  1.
     999900   -1    0    0    0    0 -0.00000000000E+00 -0.00000000000E+00 -0.74505805969E-08  0.93827000000E+00  0.93827000000E+00 0. -1.
     999902    2    1    2    0    0 -0.30503770931E-02  0.93911688178E-02  0.20934224534E-01  0.10207839289E+01  0.10205214789E+01 0.  0.
     999903    2    3    3    0    0  0.33092814690E-01 -0.55234369880E-01 -0.10909133191E+00  0.12815330207E+00  0.19400518899E-01 0.  0.
         14    1    1    2    0    0  0.30503770931E-02 -0.93911688178E-02 -0.20934224534E-01  0.23146071136E-01  0.00000000000E+00 0. -1.
     999901    1    3    3    0    0 -0.36143191784E-01  0.64625538698E-01  0.13002555644E+00  0.89263062680E+00  0.88000000000E+00 0.  1.
        -11    1    4    4    0    0  0.20454287628E-01 -0.18325691582E-01 -0.54778761784E-01  0.61279545673E-01  0.51100000000E-03 0.  1.
         11    1    4    4    0    0  0.12638527062E-01 -0.36908678298E-01 -0.54312570125E-01  0.66873756396E-01  0.51100000000E-03 0. -1.
</event>
<event>
 8    1  0.1109294E+005  0.1043930E+01  0.7957747E-01            NaN
         13   -1    0    0    0    0  0.00000000000E+00  0.00000000000E+00  0.74505805969E-08  0.10566000000E+00  0.10566000000E+00 0. -1.
     999900   -1    0    0    0    0 -0.00000000000E+00 -0.00000000000E+00 -0.74505805969E-08  0.93827000000E+00  0.93827000000E+00 0. -1.
     999902    2    1    2    0    0  0.10390437310E-01  0.11236579760E-01  0.17431611325E-01  0.10207333842E+01  0.10204697735E+01 0.  0.
     999903    2    3    3    0    0  0.79020234350E-01  0.10471838320E+00  0.81521014488E-02  0.13307635248E+00  0.20801961836E-01 0.  0.
         14    1    1    2    0    0 -0.10390437310E-01 -0.11236579760E-01 -0.17431611325E-01  0.23196615822E-01  0.00000000000E+00 0. -1.
     999901    1    3    3    0    0 -0.68629797039E-01 -0.93481803435E-01  0.92795098763E-02  0.88765703170E+00  0.88000000000E+00 0.  1.
        -11    1    4    4    0    0  0.68028929705E-01  0.86451859340E-01  0.14171152766E-01  0.11091862761E+00  0.51100000000E-03 0. -1.
         11    1    4    4    0    0  0.10991304644E-01  0.18266523856E-01 -0.60190513175E-02  0.22157724868E-01  0.51100000000E-03 0.  1.
</event>
<event>
 8    1  0.1109294E+005  0.1043930E+01  0.7957747E-01            NaN
         13   -1    0    0    0    0  0.00000000000E+00  0.00000000000E+00  0.74505805969E-08  0.10566000000E+00  0.10566000000E+00 0. -1.
     999900   -1    0    0    0    0 -0.00000000000E+00 -0.00000000000E+00 -0.74505805969E-08  0.93827000000E+00  0.93827000000E+00 0.  1.
     999902    2    1    2    0    0 -0.92215513804E-02 -0.21444656361E-01 -0.72669654868E-02  0.10194817059E+01  0.10191885152E+01 0.  0.
     999903    2    3    3    0    0  0.56038788395E-01  0.76447942192E-02 -0.11537078460E+00  0.12999222099E+00  0.19717274019E-01 0.  0.
         14    1    1    2    0    0  0.92215513804E-02  0.21444656361E-01  0.72669654868E-02  0.24448294085E-01  0.00000000000E+00 0.  1.
     999901    1    3    3    0    0 -0.65260339776E-01 -0.29089450580E-01  0.10810381912E+00  0.88948948492E+00  0.88000000000E+00 0. -1.
        -11    1    4    4    0    0  0.51091336374E-01  0.85772301253E-03 -0.93402563324E-01  0.10646764907E+00  0.51100000000E-03 0. -1.
         11    1    4    4    0    0  0.49474520217E-02  0.67870712067E-02 -0.21968221279E-01  0.23524571924E-01  0.51100000000E-03 0.  1.
</event>
<event>
 8    1  0.1109294E+005  0.1043930E+01  0.7957747E-01            NaN
         13   -1    0    0    0    0  0.00000000000E+00  0.00000000000E+00  0.74505805969E-08  0.10566000000E+00  0.10566000000E+00 0. -1.
     999900   -1    0    0    0    0 -0.00000000000E+00 -0.00000000000E+00 -0.74505805969E-08  0.93827000000E+00  0.93827000000E+00 0.  1.
     999902    2    1    2    0    0 -0.29914830555E-02 -0.21306691264E-01 -0.10115112479E-01  0.10201552326E+01  0.10198781589E+01 0.  0.
     999903    2    3    3    0    0  0.84861493666E-01 -0.96810015825E-01  0.20939669263E-01  0.13202050353E+00  0.20427709943E-01 0.  0.
         14    1    1    2    0    0  0.29914830555E-02  0.21306691264E-01  0.10115112479E-01  0.23774767380E-01  0.00000000000E+00 0. -1.
     999901    1    3    3    0    0 -0.87852976722E-01  0.75503324561E-01 -0.31054781742E-01  0.88813472909E+00  0.88000000000E+00 0. -1.
        -11    1    4    4    0    0  0.44107545385E-01 -0.37070632463E-01  0.14502538791E-01  0.59416261271E-01  0.51100000000E-03 0.  1.
         11    1    4    4    0    0  0.40753948281E-01 -0.59739383362E-01  0.64371304725E-02  0.72604242264E-01  0.51100000000E-03 0. -1.
</event>
<event>
 8    1  0.1109294E+005  0.1043930E+01  0.7957747E-01            NaN
         13   -1    0    0    0    0  0.00000000000E+00  0.00000000000E+00  0.74505805969E-08  0.10566000000E+00  0.10566000000E+00 0.  1.
     999900   -1    0    0    0    0 -0.00000000000E+00 -0.00000000000E+00 -0.74505805969E-08  0.93827000000E+00  0.93827000000E+00 0. -1.
     999902    2    1    2    0    0 -0.47109854085E-02 -0.20231956762E-01  0.12464489966E-01  0.10197042086E+01  0.10194163939E+01 0.  0.
     999903    2    3    3    0    0 -0.20940895088E-01 -0.79132791070E-01 -0.99091545177E-01  0.13055997553E+00  0.22940208725E-01 0.  0.
         14    1    1    2    0    0  0.47109854085E-02  0.20231956762E-01 -0.12464489966E-01  0.24225791381E-01  0.00000000000E+00 0. -1.
     999901    1    3    3    0    0  0.16229909680E-01  0.58900834307E-01  0.11155603514E+00  0.88914423308E+00  0.88000000000E+00 0.  1.
        -11    1    4    4    0    0 -0.10452651257E-01 -0.51446828372E-01 -0.78711246066E-01  0.94613717008E-01  0.51100000000E-03 0. -1.
         11    1    4    4    0    0 -0.10488243831E-01 -0.27685962698E-01 -0.20380299111E-01  0.35946258526E-01  0.51100000000E-03 0.  1.
</event>
<event>
 8    1  0.1109294E+005  0.1043930E+01  0.7957747E-01            NaN
         13   -1    0    0    0    0  0.00000000000E+00  0.00000000000E+00  0.74505805969E-08  0.10566000000E+00  0.10566000000E+00 0. -1.
     999900   -1    0    0    0    0 -0.00000000000E+00 -0.00000000000E+00 -0.74505805969E-08  0.93827000000E+00  0.93827000000E+00 0.  1.
     999902    2    1    2    0    0 -0.19875405234E-01  0.11160849699E-01 -0.47234674742E-02  0.10206510944E+01  0.10203855885E+01 0.  0.
     999903    2    3    3    0    0 -0.23594497650E-01 -0.40950822378E-01  0.11992310183E+00  0.13033304719E+00  0.19273885542E-01 0.  0.
         14    1    1    2    0    0  0.19875405234E-01 -0.11160849699E-01  0.47234674742E-02  0.23278905562E-01  0.00000000000E+00 0. -1.
     999901    1    3    3    0    0  0.37190924165E-02  0.52111672077E-01 -0.12464656931E+00  0.89031804725E+00  0.88000000000E+00 0.  1.
        -11    1    4    4    0    0 -0.19220400576E-01 -0.36888222752E-01  0.82087635891E-01  0.92026115116E-01  0.51100000000E-03 0.  1.
         11    1    4    4    0    0 -0.43740970744E-02 -0.40625996258E-02  0.37835465941E-01  0.38306932074E-01  0.51100000000E-03 0. -1.
</event>
<event>
 8    1  0.1109294E+005  0.1043930E+01  0.7957747E-01            NaN
         13   -1    0    0    0    0  0.00000000000E+00  0.00000000000E+00  0.74505805969E-08  0.10566000000E+00  0.10566000000E+00 0.  1.
     999900   -1    0    0    0    0 -0.00000000000E+00 -0.00000000000E+00 -0.74505805969E-08  0.93827000000E+00  0.93827000000E+00 0. -1.
     999902    2    1    2    0    0 -0.17072230713E-01 -0.40633359095E-02  0.15066357566E-01  0.10208006487E+01  0.10205385821E+01 0.  0.
     999903    2    3    3    0    0  0.11634383602E+00  0.36035055012E-01  0.39307540804E-01  0.12951205192E+00  0.19846295841E-01 0.  0.
         14    1    1    2    0    0  0.17072230713E-01  0.40633359095E-02 -0.15066357566E-01  0.23129351278E-01  0.00000000000E+00 0. -1.
     999901    1    3    3    0    0 -0.13341606674E+00 -0.40098390921E-01 -0.24241183238E-01  0.89128859680E+00  0.88000000000E+00 0. -1.
        -11    1    4    4    0    0  0.80540084254E-01  0.15181655434E-01  0.26700304688E-01  0.86199508263E-01  0.51100000000E-03 0. -1.
         11    1    4    4    0    0  0.35803751771E-01  0.20853399578E-01  0.12607236116E-01  0.43312543660E-01  0.51100000000E-03 0.  1.
</event>
<event>
 8    1  0.1109294E+005  0.1043930E+01  0.7957747E-01            NaN
         13   -1    0    0    0    0  0.00000000000E+00  0.00000000000E+00  0.74505805969E-08  0.10566000000E+00  0.10566000000E+00 0. -1.
     999900   -1    0    0    0    0 -0.00000000000E+00 -0.00000000000E+00 -0.74505805969E-08  0.93827000000E+00  0.93827000000E+00 0. -1.
     999902    2    1    2    0    0 -0.21413557717E-01 -0.15708865092E-02 -0.19487239939E-01  0.10149341269E+01  0.10145198476E+01 0.  0.
     999903    2    3    3    0    0  0.20281112153E-01 -0.10924445543E-01  0.11928489679E+00  0.12303523097E+00  0.19445164890E-01 0.  0.
         14    1    1    2    0    0  0.21413557717E-01  0.15708865092E-02  0.19487239939E-01  0.28995873137E-01  0.00000000000E+00 0. -1.
     999901    1    3    3    0    0 -0.41694669870E-01  0.93535590341E-02 -0.13877213673E+00  0.89189889589E+00  0.88000000000E+00 0. -1.
        -11    1    4    4    0    0  0.14823933465E-02 -0.11122949688E-01  0.49708527014E-01  0.50961910077E-01  0.51100000000E-03 0. -1.
         11    1    4    4    0    0  0.18798718806E-01  0.19850414505E-03  0.69576369775E-01  0.72073320894E-01  0.51100000000E-03 0.  1.
</event>
<event>
 8    1  0.1109294E+005  0.1043930E+01  0.7957747E-01            NaN
         13   -1    0    0    0    0  0.00000000000E+00  0.00000000000E+00  0.74505805969E-08  0.10566000000E+00  0.10566000000E+00 0. -1.
     999900   -1    0    0    0    0 -0.00000000000E+00 -0.00000000000E+00 -0.74505805969E-08  0.93827000000E+00  0.93827000000E+00 0. -1.
     999902    2    1    2    0    0  0.33037146578E-02  0.22509919841E-01 -0.74686414797E-02  0.10199844028E+01  0.10197032854E+01 0.  0.
     999903    2    3    3    0    0 -0.36239436169E-01 -0.80268013786E-01 -0.92218987495E-01  0.12908060011E+00  0.20030199686E-01 0.  0.
         14    1    1    2    0    0 -0.33037146578E-02 -0.22509919841E-01  0.74686414797E-02  0.23945597243E-01  0.00000000000E+00 0. -1.
     999901    1    3    3    0    0  0.39543150827E-01  0.10277793363E+00  0.84750346015E-01  0.89090380265E+00  0.88000000000E+00 0.  1.
        -11    1    4    4    0    0 -0.23452034558E-01 -0.65506634093E-01 -0.80054234675E-01  0.10606629363E+00  0.51100000000E-03 0. -1.
         11    1    4    4    0    0 -0.12787401611E-01 -0.14761379694E-01 -0.12164752820E-01  0.23014306477E-01  0.51100000000E-03 0.  1.
</event>
<event>
 8    1  0.1109294E+005  0.1043930E+01  0.7957747E-01            NaN
         13   -1    0    0    0    0  0.00000000000E+00  0.00000000000E+00  0.74505805969E-08  0.10566000000E+00  0.10566000000E+00 0.  1.
     999900   -1    0    0    0    0 -0.00000000000E+00 -0.00000000000E+00 -0.74505805969E-08  0.93827000000E+00  0.93827000000E+00 0.  1.
     999902    2    1    2    0    0  0.13501328069E-01 -0.12180694850E-01 -0.15508393832E-01  0.10200309317E+01  0.10197509187E+01 0.  0.
     999903    2    3    3    0    0  0.53208203560E-01  0.70672813356E-01  0.91469871726E-01  0.12880386238E+00  0.19948384792E-01 0.  0.
         14    1    1    2    0    0 -0.13501328069E-01  0.12180694850E-01  0.15508393832E-01  0.23899068306E-01  0.00000000000E+00 0.  1.
     999901    1    3    3    0    0 -0.39706875491E-01 -0.82853508206E-01 -0.10697826556E+00  0.89122706932E+00  0.88000000000E+00 0.  1.
        -11    1    4    4    0    0  0.30526864337E-01  0.54426958539E-01  0.57651277806E-01  0.84959485731E-01  0.51100000000E-03 0. -1.
         11    1    4    4    0    0  0.22681339223E-01  0.16245854817E-01  0.33818593920E-01  0.43844376645E-01  0.51100000000E-03 0.  1.
</event>
<event>
 8    1  0.1109294E+005  0.1043930E+01  0.7957747E-01            NaN
         13   -1    0    0    0    0  0.00000000000E+00  0.00000000000E+00  0.74505805969E-08  0.10566000000E+00  0.10566000000E+00 0.  1.
     999900   -1    0    0    0    0 -0.00000000000E+00 -0.00000000000E+00 -0.74505805969E-08  0.93827000000E+00  0.93827000000E+00 0. -1.
     999902    2    1    2    0    0  0.95383207487E-02  0.79928982283E-02 -0.20318051005E-01  0.10201037711E+01  0.10198254825E+01 0.  0.
     999903    2    3    3    0    0 -0.95046612037E-01 -0.29866436724E-01 -0.82584870688E-01  0.13091959774E+00  0.19844840701E-01 0.  0.
         14    1    1    2    0    0 -0.95383207487E-02 -0.79928982283E-02  0.20318051005E-01  0.23826228855E-01  0.00000000000E+00 0.  1.
     999901    1    3    3    0    0  0.10458493279E+00  0.37859334952E-01  0.62266819682E-01  0.88918417341E+00  0.88000000000E+00 0.  1.
        -11    1    4    4    0    0 -0.26490418984E-01 -0.32692943111E-03 -0.16460852537E-01  0.31194069437E-01  0.51100000000E-03 0.  1.
         11    1    4    4    0    0 -0.68556193053E-01 -0.29539507293E-01 -0.66124018150E-01  0.99725528298E-01  0.51100000000E-03 0. -1.
</event>
<event>
 8    1  0.1109294E+005  0.1043930E+01  0.7957747E-01            NaN
         13   -1    0    0    0    0  0.00000000000E+00  0.00000000000E+00  0.74505805969E-08  0.10566000000E+00  0.10566000000E+00 0.  1.
     999900   -1    0    0    0    0 -0.00000000000E+00 -0.00000000000E+00 -0.74505805969E-08  0.93827000000E+00  0.93827000000E+00 0. -1.
     999902    2    1    2    0    0 -0.22340141984E-01  0.49060916409E-02  0.20646785626E-02  0.10209644916E+01  0.10207061666E+01 0.  0.
     999903    2    3    3    0    0  0.10737201772E+00 -0.34891340824E-01 -0.58137345890E-01  0.12853333808E+00  0.19867364118E-01 0.  0.
         14    1    1    2    0    0  0.22340141984E-01 -0.49060916409E-02 -0.20646785626E-02  0.22965508412E-01  0.00000000000E+00 0. -1.
     999901    1    3    3    0    0 -0.12971215970E+00  0.39797432465E-01  0.60202024453E-01  0.89243115351E+00  0.88000000000E+00 0.  1.
        -11    1    4    4    0    0  0.80337242977E-01 -0.18711168953E-01 -0.35880182023E-01  0.89954594300E-01  0.51100000000E-03 0. -1.
         11    1    4    4    0    0  0.27034774743E-01 -0.16180171871E-01 -0.22257163867E-01  0.38578743779E-01  0.51100000000E-03 0.  1.
</event>
<event>
 8    1  0.1109294E+005  0.1043930E+01  0.7957747E-01            NaN
         13   -1    0    0    0    0  0.00000000000E+00  0.00000000000E+00  0.74505805969E-08  0.10566000000E+00  0.10566000000E+00 0. -1.
     999900   -1    0    0    0    0 -0.00000000000E+00 -0.00000000000E+00 -0.74505805969E-08  0.93827000000E+00  0.93827000000E+00 0. -1.
     999902    2    1    2    0    0 -0.69344060073E-02  0.12928631435E-01 -0.22515355443E-01  0.10170566539E+01  0.10167015593E+01 0.  0.
     999903    2    3    3    0    0  0.67887804706E-01 -0.10354375415E-01 -0.10786216622E+00  0.12946184789E+00  0.20252309472E-01 0.  0.
         14    1    1    2    0    0  0.69344060073E-02 -0.12928631435E-01  0.22515355443E-01  0.26873346055E-01  0.00000000000E+00 0.  1.
     999901    1    3    3    0    0 -0.74822210713E-01  0.23283006850E-01  0.85346810780E-01  0.88759480605E+00  0.88000000000E+00 0.  1.
        -11    1    4    4    0    0  0.42348570437E-01  0.32479332158E-02 -0.68614672801E-01  0.80698109847E-01  0.51100000000E-03 0.  1.
         11    1    4    4    0    0  0.25539234269E-01 -0.13602308630E-01 -0.39247493422E-01  0.48763738044E-01  0.51100000000E-03 0. -1.
</event>
<event>
 8    1  0.1109294E+005  0.1043930E+01  0.7957747E-01            NaN
         13   -1    0    0    0    0  0.00000000000E+00  0.00000000000E+00  0.74505805969E-08  0.10566000000E+00  0.10566000000E+00 0.  1.
     999900   -1    0    0    0    0 -0.00000000000E+00 -0.00000000000E+00 -0.74505805969E-08  0.93827000000E+00  0.93827000000E+00 0.  1.
     999902    2    1    2    0    0  0.21400021794E-01 -0.16203459013E-01  0.30183083499E-02  0.10169184617E+01  0.10165596562E+01 0.  0.
     999903    2    3    3    0    0  0.10935301581E+00  0.17278086007E-01  0.64622074108E-01  0.12975908087E+00  0.20119450363E-01 0.  0.
         14    1    1    2    0    0 -0.21400021794E-01  0.16203459013E-01 -0.30183083499E-02  0.27011538313E-01  0.00000000000E+00 0.  1.
     999901    1    3    3    0    0 -0.87952994020E-01 -0.33481545019E-01 -0.61603765758E-01  0.88715938082E+00  0.88000000000E+00 0.  1.
        -11    1    4    4    0    0  0.39446611688E-01  0.22194670474E-02  0.13126152211E-01  0.41635540114E-01  0.51100000000E-03 0.  1.
         11    1    4    4    0    0  0.69906404125E-01  0.15058618959E-01  0.51495921896E-01  0.88123540758E-01  0.51100000000E-03 0. -1.
</event>
<event>
 8    1  0.1109294E+005  0.1043930E+01  0.7957747E-01            NaN
         13   -1    0    0    0    0  0.00000000000E+00  0.00000000000E+00  0.74505805969E-08  0.10566000000E+00  0.10566000000E+00 0.  1.
     999900   -1    0    0    0    0 -0.00000000000E+00 -0.00000000000E+00 -0.74505805969E-08  0.93827000000E+00  0.93827000000E+00 0.  1.
     999902    2    1    2    0    0 -0.55176438225E-02  0.21532489394E-01  0.80445385898E-02  0.10202908990E+01  0.10200170153E+01 0.  0.
     999903    2    3    3    0    0  0.23309176845E-01  0.63508632260E-01 -0.11070670924E+00  0.13085577436E+00  0.17046821276E-01 0.  0.
         14    1    1    2    0    0  0.55176438225E-02 -0.21532489394E-01 -0.80445385898E-02  0.23639100955E-01  0.00000000000E+00 0. -1.
     999901    1    3    3    0    0 -0.28826820668E-01 -0.41976142866E-01  0.11875124783E+00  0.88943512468E+00  0.88000000000E+00 0. -1.
        -11    1    4    4    0    0  0.17456261317E-02  0.29082131401E-01 -0.45849530450E-01  0.54325483347E-01  0.51100000000E-03 0. -1.
         11    1    4    4    0    0  0.21563550714E-01  0.34426500859E-01 -0.64857178792E-01  0.76530291014E-01  0.51100000000E-03 0.  1.
</event>
<event>
 8    1  0.1109294E+005  0.1043930E+01  0.7957747E-01            NaN
         13   -1    0    0    0    0  0.00000000000E+00  0.00000000000E+00  0.74505805969E-08  0.10566000000E+00  0.10566000000E+00 0.  1.
     999900   -1    0    0    0    0 -0.00000000000E+00 -0.00000000000E+00 -0.74505805969E-08  0.93827000000E+00  0.93827000000E+00 0.  1.
     999902    2    1    2    0    0 -0.24156336828E-01 -0.56974322826E-02 -0.80418344262E-02  0.10178405300E+01  0.10175061101E+01 0.  0.
     999903    2    3    3    0    0  0.95985851222E-03 -0.87555171405E-01  0.88658588298E-01  0.12841235164E+00  0.31025109284E-01 0.  0.
         14    1    1    2    0    0  0.24156336828E-01  0.56974322826E-02  0.80418344262E-02  0.26089469993E-01  0.00000000000E+00 0.  1.
     999901    1    3    3    0    0 -0.25116195340E-01  0.81857739122E-01 -0.96700422724E-01  0.88942817837E+00  0.88000000000E+00 0.  1.
        -11    1    4    4    0    0  0.12204154490E-01 -0.59125609544E-01  0.45876277088E-01  0.75826598310E-01  0.51100000000E-03 0.  1.
         11    1    4    4    0    0 -0.11244295978E-01 -0.28429561861E-01  0.42782311210E-01  0.52585753328E-01  0.51100000000E-03 0. -1.
</event>
<event>
 8    1  0.1109294E+005  0.1043930E+01  0.7957747E-01            NaN
         13   -1    0    0    0    0  0.00000000000E+00  0.00000000000E+00  0.74505805969E-08  0.10566000000E+00  0.10566000000E+00 0.  1.
     999900   -1    0    0    0    0 -0.00000000000E+00 -0.00000000000E+00 -0.74505805969E-08  0.93827000000E+00  0.93827000000E+00 0.  1.
     999902    2    1    2    0    0  0.14455656705E-01  0.14591856539E-01 -0.16184585269E-01  0.10177798740E+01  0.10174438770E+01 0.  0.
     999903    2    3    3    0    0 -0.18796102840E-01  0.22217179734E-01 -0.12540385675E+00  0.13037203412E+00  0.20587458219E-01 0.  0.
         14    1    1    2    0    0 -0.14455656705E-01 -0.14591856539E-01  0.16184585269E-01  0.26150125972E-01  0.00000000000E+00 0. -1.
     999901    1    3    3    0    0  0.33251759545E-01 -0.76253231946E-02  0.10921927148E+00  0.88740783991E+00  0.88000000000E+00 0. -1.
        -11    1    4    4    0    0  0.11827365650E-02  0.11488897623E-01 -0.61117523726E-01  0.62201338103E-01  0.51100000000E-03 0.  1.
         11    1    4    4    0    0 -0.19978839405E-01  0.10728282110E-01 -0.64286333023E-01  0.68170696018E-01  0.51100000000E-03 0. -1.
</event>
<event>
 8    1  0.1109294E+005  0.1043930E+01  0.7957747E-01            NaN
         13   -1    0    0    0    0  0.00000000000E+00  0.00000000000E+00  0.74505805969E-08  0.10566000000E+00  0.10566000000E+00 0. -1.
     999900   -1    0    0    0    0 -0.00000000000E+00 -0.00000000000E+00 -0.74505805969E-08  0.93827000000E+00  0.93827000000E+00 0.  1.
     999902    2    1    2    0    0 -0.51056845363E-02 -0.26650779192E-02  0.18657561085E-01  0.10244037295E+01  0.10242176164E+01 0.  0.
     999903    2    3    3    0    0 -0.38493009627E-01  0.10544553062E+00 -0.68383279736E-01  0.13290009789E+00  0.19639026331E-01 0.  0.
         14    1    1    2    0    0  0.51056845363E-02  0.26650779192E-02 -0.18657561085E-01  0.19526270523E-01  0.00000000000E+00 0.  1.
     999901    1    3    3    0    0  0.33387325090E-01 -0.10811060854E+00  0.87040840821E-01  0.89150363158E+00  0.88000000000E+00 0. -1.
        -11    1    4    4    0    0 -0.27721389585E-01  0.64579054813E-01 -0.32384155167E-01  0.77381679925E-01  0.51100000000E-03 0. -1.
         11    1    4    4    0    0 -0.10771620041E-01  0.40866475805E-01 -0.35999124569E-01  0.55518417969E-01  0.51100000000E-03 0.  1.
</event>
<event>
 8    1  0.1109294E+005  0.1043930E+01  0.7957747E-01            NaN
         13   -1    0    0    0    0  0.00000000000E+00  0.00000000000E+00  0.74505805969E-08  0.10566000000E+00  0.10566000000E+00 0.  1.
     999900   -1    0    0    0    0 -0.00000000000E+00 -0.00000000000E+00 -0.74505805969E-08  0.93827000000E+00  0.93827000000E+00 0. -1.
     999902    2    1    2    0    0 -0.18435515426E-01 -0.14055048355E-01 -0.33987592466E-02  0.10205000154E+01  0.10202310117E+01 0.  0.
     999903    2    3    3    0    0  0.42673518000E-01 -0.11873545427E+00 -0.31445583883E-01  0.13174868589E+00  0.21207410262E-01 0.  0.
         14    1    1    2    0    0  0.18435515426E-01  0.14055048355E-01  0.33987592466E-02  0.23429984587E-01  0.00000000000E+00 0.  1.
     999901    1    3    3    0    0 -0.61109033427E-01  0.10468040591E+00  0.28046824636E-01  0.88875132952E+00  0.88000000000E+00 0.  1.
        -11    1    4    4    0    0  0.13490717118E-01 -0.31697964557E-01 -0.18298739092E-01  0.39011093022E-01  0.51100000000E-03 0.  1.
         11    1    4    4    0    0  0.29182800882E-01 -0.87037489713E-01 -0.13146844791E-01  0.92737592873E-01  0.51100000000E-03 0. -1.
</event>
<event>
 8    1  0.1109294E+005  0.1043930E+01  0.7957747E-01            NaN
         13   -1    0    0    0    0  0.00000000000E+00  0.00000000000E+00  0.74505805969E-08  0.10566000000E+00  0.10566000000E+00 0.  1.
     999900   -1    0    0    0    0 -0.00000000000E+00 -0.00000000000E+00 -0.74505805969E-08  0.93827000000E+00  0.93827000000E+00 0.  1.
     999902    2    1    2    0    0  0.12679158490E-01  0.12889089577E-01  0.15876924728E-01  0.10198682788E+01  0.10195843955E+01 0.  0.
     999903    2    3    3    0    0  0.11666294485E+00  0.58033443270E-01  0.14246364987E-01  0.13259532233E+00  0.20010930704E-01 0.  0.
         14    1    1    2    0    0 -0.12679158490E-01 -0.12889089577E-01 -0.15876924728E-01  0.24061721238E-01  0.00000000000E+00 0. -1.
     999901    1    3    3    0    0 -0.10398378636E+00 -0.45144353693E-01  0.16305597408E-02  0.88727295644E+00  0.88000000000E+00 0. -1.
        -11    1    4    4    0    0  0.26680360718E-01  0.12676993492E-01  0.11754306669E-01  0.31795796236E-01  0.51100000000E-03 0.  1.
         11    1    4    4    0    0  0.89982584136E-01  0.45356449778E-01  0.24920583178E-02  0.10079952609E+00  0.51100000000E-03 0. -1.
</event>
<event>
 8    1  0.1109294E+005  0.1043930E+01  0.7957747E-01            NaN
         13   -1    0    0    0    0  0.00000000000E+00  0.00000000000E+00  0.74505805969E-08  0.10566000000E+00  0.10566000000E+00 0. -1.
     999900   -1    0    0    0    0 -0.00000000000E+00 -0.00000000000E+00 -0.74505805969E-08  0.93827000000E+00  0.93827000000E+00 0.  1.
     999902    2    1    2    0    0  0.37517161010E-02  0.82461869646E-02 -0.23076066093E-01  0.10191392800E+01  0.10188377163E+01 0.  0.
     999903    2    3    3    0    0 -0.38829658985E-02  0.55242743240E-01  0.11302054766E+00  0.12740543350E+00  0.19790456962E-01 0.  0.
         14    1    1    2    0    0 -0.37517161010E-02 -0.82461869646E-02  0.23076066093E-01  0.24790720027E-01  0.00000000000E+00 0. -1.
     999901    1    3    3    0    0  0.76346819996E-02 -0.46996556276E-01 -0.13609661375E+00  0.89173384647E+00  0.88000000000E+00 0.  1.
        -11    1    4    4    0    0 -0.64207226162E-02  0.45010190084E-01  0.10405952125E+00  0.11355962299E+00  0.51100000000E-03 0.  1.
         11    1    4    4    0    0  0.25377567176E-02  0.10232553157E-01  0.89610264089E-02  0.13845810506E-01  0.51100000000E-03 0. -1.
</event>
<event>
 8    1  0.1109294E+005  0.1043930E+01  0.7957747E-01            NaN
         13   -1    0    0    0    0  0.00000000000E+00  0.00000000000E+00  0.74505805969E-08  0.10566000000E+00  0.10566000000E+00 0. -1.
     999900   -1    0    0    0    0 -0.00000000000E+00 -0.00000000000E+00 -0.74505805969E-08  0.93827000000E+00  0.93827000000E+00 0. -1.
     999902    2    1    2    0    0 -0.13159909171E-01  0.28951242951E-02 -0.19495636760E-01  0.10202309535E+01  0.10199556626E+01 0.  0.
     999903    2    3    3    0    0 -0.74896069730E-01  0.10157471796E+00 -0.35108790678E-01  0.13242873095E+00  0.19439573278E-01 0.  0.
         14    1    1    2    0    0  0.13159909171E-01 -0.28951242951E-02  0.19495636760E-01  0.23699046537E-01  0.00000000000E+00 0. -1.
     999901    1    3    3    0    0  0.61736160559E-01 -0.98679593660E-01  0.15613153918E-01  0.88780222251E+00  0.88000000000E+00 0. -1.
        -11    1    4    4    0    0 -0.58613842153E-01  0.81934316286E-01 -0.19794288315E-01  0.10266883484E+00  0.51100000000E-03 0. -1.
         11    1    4    4    0    0 -0.16282227577E-01  0.19640401669E-01 -0.15314502363E-01  0.29759896106E-01  0.51100000000E-03 0.  1.
</event>
<event>
 8    1  0.1109294E+005  0.1043930E+01  0.7957747E-01            NaN
         13   -1    0    0    0    0  0.00000000000E+00  0.00000000000E+00  0.74505805969E-08  0.10566000000E+00  0.10566000000E+00 0.  1.
     999900   -1    0    0    0    0 -0.00000000000E+00 -0.00000000000E+00 -0.74505805969E-08  0.93827000000E+00  0.93827000000E+00 0.  1.
     999902    2    1    2    0    0  0.14981334119E-01 -0.17260853018E-01 -0.60778834188E-02  0.10202800933E+01  0.10200059562E+01 0.  0.
     999903    2    3    3    0    0  0.74786484229E-01  0.82978852848E-01 -0.64537570627E-01  0.13064972646E+00  0.20633583292E-01 0.  0.
         14    1    1    2    0    0 -0.14981334119E-01  0.17260853018E-01  0.60778834188E-02  0.23649906675E-01  0.00000000000E+00 0.  1.
     999901    1    3    3    0    0 -0.59805150110E-01 -0.10023970587E+00  0.58459687208E-01  0.88963036686E+00  0.88000000000E+00 0. -1.
        -11    1    4    4    0    0  0.40487416475E-01  0.29707443751E-01 -0.29652754225E-01  0.58320751548E-01  0.51100000000E-03 0.  1.
         11    1    4    4    0    0  0.34299067754E-01  0.53271409098E-01 -0.34884816401E-01  0.72328974916E-01  0.51100000000E-03 0. -1.
</event>
<event>
 8    1  0.1109294E+005  0.1043930E+01  0.7957747E-01            NaN
         13   -1    0    0    0    0  0.00000000000E+00  0.00000000000E+00  0.74505805969E-08  0.10566000000E+00  0.10566000000E+00 0.  1.
     999900   -1    0    0    0    0 -0.00000000000E+00 -0.00000000000E+00 -0.74505805969E-08  0.93827000000E+00  0.93827000000E+00 0.  1.
     999902    2    1    2    0    0 -0.15428089084E-01 -0.12955899906E-01  0.14026820912E-01  0.10193814159E+01  0.10190857855E+01 0.  0.
     999903    2    3    3    0    0  0.81142962511E-01 -0.55986746664E-01 -0.79179184491E-01  0.12816596430E+00  0.20939794178E-01 0.  0.
         14    1    1    2    0    0  0.15428089084E-01  0.12955899906E-01 -0.14026820912E-01  0.24548584075E-01  0.00000000000E+00 0. -1.
     999901    1    3    3    0    0 -0.96571051595E-01  0.43030846758E-01  0.93206005404E-01  0.89121545163E+00  0.88000000000E+00 0. -1.
        -11    1    4    4    0    0  0.23088545741E-01 -0.28041468931E-01 -0.29876067045E-01  0.47034513150E-01  0.51100000000E-03 0. -1.
         11    1    4    4    0    0  0.58054416770E-01 -0.27945277733E-01 -0.49303117446E-01  0.81131451146E-01  0.51100000000E-03 0.  1.
</event>
<event>
 8    1  0.1109294E+005  0.1043930E+01  0.7957747E-01            NaN
         13   -1    0    0    0    0  0.00000000000E+00  0.00000000000E+00  0.74505805969E-08  0.10566000000E+00  0.10566000000E+00 0. -1.
     999900   -1    0    0    0    0 -0.00000000000E+00 -0.00000000000E+00 -0.74505805969E-08  0.93827000000E+00  0.93827000000E+00 0.  1.
     999902    2    1    2    0    0  0.10548943224E-01 -0.38317212090E-02 -0.20531696232E-01  0.10205310077E+01  0.10202627234E+01 0.  0.
     999903    2    3    3    0    0 -0.68142390124E-01 -0.16483540185E-01  0.10524934187E+00  0.12802147609E+00  0.19924405824E-01 0.  0.
         14    1    1    2    0    0 -0.10548943224E-01  0.38317212090E-02  0.20531696232E-01  0.23398992301E-01  0.00000000000E+00 0. -1.
     999901    1    3    3    0    0  0.78691333347E-01  0.12651818976E-01 -0.12578103810E+00  0.89250953161E+00  0.88000000000E+00 0.  1.
        -11    1    4    4    0    0 -0.11471249687E-01 -0.95303722875E-02  0.14522245794E-01  0.20822447243E-01  0.51100000000E-03 0.  1.
         11    1    4    4    0    0 -0.56671140437E-01 -0.69531678973E-02  0.90727096076E-01  0.10719902885E+00  0.51100000000E-03 0. -1.
</event>
<event>
 8    1  0.1109294E+005  0.1043930E+01  0.7957747E-01            NaN
         13   -1    0    0    0    0  0.00000000000E+00  0.00000000000E+00  0.74505805969E-08  0.10566000000E+00  0.10566000000E+00 0. -1.
     999900   -1    0    0    0    0 -0.00000000000E+00 -0.00000000000E+00 -0.74505805969E-08  0.93827000000E+00  0.93827000000E+00 0. -1.
     999902    2    1    2    0    0  0.18321269826E-01 -0.86244128272E-02 -0.12223352097E-01  0.10202770983E+01  0.10200028909E+01 0.  0.
     999903    2    3    3    0    0 -0.85773025333E-01  0.80511722552E-01  0.46020384398E-01  0.12776759928E+00  0.19171184165E-01 0.  0.
         14    1    1    2    0    0 -0.18321269826E-01  0.86244128272E-02  0.12223352097E-01  0.23652901749E-01  0.00000000000E+00 0. -1.
     999901    1    3    3    0    0  0.10409429516E+00 -0.89136135379E-01 -0.58243736495E-01  0.89250949897E+00  0.88000000000E+00 0. -1.
        -11    1    4    4    0    0 -0.48054716682E-01  0.39047230044E-01  0.33218991500E-01  0.70268801660E-01  0.51100000000E-03 0. -1.
         11    1    4    4    0    0 -0.37718308651E-01  0.41464492508E-01  0.12801392897E-01  0.57498797618E-01  0.51100000000E-03 0.  1.
</event>
<event>
 8    1  0.1109294E+005  0.1043930E+01  0.7957747E-01            NaN
         13   -1    0    0    0    0  0.00000000000E+00  0.00000000000E+00  0.74505805969E-08  0.10566000000E+00  0.10566000000E+00 0. -1.
     999900   -1    0    0    0    0 -0.00000000000E+00 -0.00000000000E+00 -0.74505805969E-08  0.93827000000E+00  0.93827000000E+00 0. -1.
     999902    2    1    2    0    0 -0.12718264065E-01 -0.20789330774E-01 -0.10094529449E-02  0.10195380032E+01  0.10192461775E+01 0.  0.
     999903    2    3    3    0    0 -0.11645681868E+00  0.51050843596E-01 -0.19458741363E-01  0.13034563105E+00  0.21046654606E-01 0.  0.
         14    1    1    2    0    0  0.12718264065E-01  0.20789330774E-01  0.10094529449E-02  0.24391996846E-01  0.00000000000E+00 0. -1.
     999901    1    3    3    0    0  0.10373855461E+00 -0.71840174370E-01  0.18449288418E-01  0.88919237210E+00  0.88000000000E+00 0.  1.
        -11    1    4    4    0    0 -0.87163189866E-01  0.39731910092E-01 -0.54309719154E-02  0.95946875531E-01  0.51100000000E-03 0. -1.
         11    1    4    4    0    0 -0.29293628810E-01  0.11318933504E-01 -0.14027769447E-01  0.34398755518E-01  0.51100000000E-03 0.  1.
</event>
<event>
 8    1  0.1109294E+005  0.1043930E+01  0.7957747E-01            NaN
         13   -1    0    0    0    0  0.00000000000E+00  0.00000000000E+00  0.74505805969E-08  0.10566000000E+00  0.10566000000E+00 0.  1.
     999900   -1    0    0    0    0 -0.00000000000E+00 -0.00000000000E+00 -0.74505805969E-08  0.93827000000E+00  0.93827000000E+00 0.  1.
     999902    2    1    2    0    0  0.70579415977E-03 -0.22555198270E-01 -0.69750839326E-02  0.10203103702E+01  0.10200369428E+01 0.  0.
     999903    2    3    3    0    0 -0.12761361186E+00 -0.46667241691E-02  0.14463975560E-01  0.13056574354E+00  0.23047658217E-01 0.  0.
         14    1    1    2    0    0 -0.70579415977E-03  0.22555198270E-01  0.69750839326E-02  0.23619629765E-01  0.00000000000E+00 0. -1.
     999901    1    3    3    0    0  0.12831940602E+00 -0.17888474101E-01 -0.21439059493E-01  0.88974462670E+00  0.88000000000E+00 0. -1.
        -11    1    4    4    0    0 -0.60562490789E-01 -0.11841015063E-01  0.13256780075E-01  0.63119159272E-01  0.51100000000E-03 0.  1.
         11    1    4    4    0    0 -0.67051121073E-01  0.71742908937E-02  0.12071954852E-02  0.67446584264E-01  0.51100000000E-03 0. -1.
</event>
<event>
 7    1  0.1109294E+005  0.1043930E+01  0.7957747E-01            NaN
         13   -1    0    0    0    0  0.00000000000E+00  0.00000000000E+00  0.74505805969E-08  0.10566000000E+00  0.10566000000E+00 0. -1.
     999900   -1    0    0    0    0 -0.00000000000E+00 -0.00000000000E+00 -0.74505805969E-08  0.93827000000E+00  0.93827000000E+00 0. -1.
     999903    2    1    2    0    0  0.80636792542E-01 -0.41153355736E-01 -0.65473166287E-01  0.11371905361E+00  0.21198977598E-01 0.  0.
         14    1    1    2    0    0  0.16850188703E-01  0.38950948492E-01  0.47299056837E-03  0.42442066017E-01  0.00000000000E+00 0. -1.
     999901    1    1    2    0    0 -0.97486981245E-01  0.22024072441E-02  0.65000175718E-01  0.88776888037E+00  0.88000000000E+00 0. -1.
        -11    1    3    3    0    0  0.16165461443E-01  0.94227579639E-04 -0.14822482962E-01  0.21938508260E-01  0.51100000000E-03 0.  1.
         11    1    3    3    0    0  0.64471331098E-01 -0.41247583316E-01 -0.50650683325E-01  0.91780545353E-01  0.51100000000E-03 0. -1.
</event>
<event>
 8    1  0.1109294E+005  0.1043930E+01  0.7957747E-01            NaN
         13   -1    0    0    0    0  0.00000000000E+00  0.00000000000E+00  0.74505805969E-08  0.10566000000E+00  0.10566000000E+00 0. -1.
     999900   -1    0    0    0    0 -0.00000000000E+00 -0.00000000000E+00 -0.74505805969E-08  0.93827000000E+00  0.93827000000E+00 0. -1.
     999902    2    1    2    0    0 -0.23092969781E-01 -0.18738779982E-02  0.45899212832E-02  0.10203108542E+01  0.10200374381E+01 0.  0.
     999903    2    3    3    0    0 -0.58558788150E-01 -0.91965640719E-01  0.72320853308E-01  0.13241343379E+00  0.20401001965E-01 0.  0.
         14    1    1    2    0    0  0.23092969781E-01  0.18738779982E-02 -0.45899212832E-02  0.23619145824E-01  0.00000000000E+00 0. -1.
     999901    1    3    3    0    0  0.35465818369E-01  0.90091762721E-01 -0.67730932025E-01  0.88789742039E+00  0.88000000000E+00 0.  1.
        -11    1    4    4    0    0 -0.41014974767E-01 -0.48422718993E-01  0.47797471613E-01  0.79447135149E-01  0.51100000000E-03 0.  1.
         11    1    4    4    0    0 -0.17543813383E-01 -0.43542921726E-01  0.24523381695E-01  0.52966298637E-01  0.51100000000E-03 0. -1.
</event>
<event>
 8    1  0.1109294E+005  0.1043930E+01  0.7957747E-01            NaN
         13   -1    0    0    0    0  0.00000000000E+00  0.00000000000E+00  0.74505805969E-08  0.10566000000E+00  0.10566000000E+00 0. -1.
     999900   -1    0    0    0    0 -0.00000000000E+00 -0.00000000000E+00 -0.74505805969E-08  0.93827000000E+00  0.93827000000E+00 0. -1.
     999902    2    1    2    0    0 -0.11962694759E-01  0.16651481046E-01  0.13386469476E-01  0.10194437702E+01  0.10191496578E+01 0.  0.
     999903    2    3    3    0    0  0.60673792225E-01 -0.60098987346E-01  0.95126882769E-01  0.12936052191E+00  0.19794531085E-01 0.  0.
         14    1    1    2    0    0  0.11962694759E-01 -0.16651481046E-01 -0.13386469476E-01  0.24486229844E-01  0.00000000000E+00 0. -1.
     999901    1    3    3    0    0 -0.72636486984E-01  0.76750468392E-01 -0.81740413293E-01  0.89008324824E+00  0.88000000000E+00 0. -1.
        -11    1    4    4    0    0  0.39604413720E-01 -0.40818980472E-01  0.48835548111E-01  0.74965796422E-01  0.51100000000E-03 0.  1.
         11    1    4    4    0    0  0.21069378505E-01 -0.19280006874E-01  0.46291334659E-01  0.54394725490E-01  0.51100000000E-03 0. -1.
</event>
<event>
 8    1  0.1109294E+005  0.1043930E+01  0.7957747E-01            NaN
         13   -1    0    0    0    0  0.00000000000E+00  0.00000000000E+00  0.74505805969E-08  0.10566000000E+00  0.10566000000E+00 0. -1.
     999900   -1    0    0    0    0 -0.00000000000E+00 -0.00000000000E+00 -0.74505805969E-08  0.93827000000E+00  0.93827000000E+00 0. -1.
     999902    2    1    2    0    0 -0.59972513470E-02 -0.19304580077E-01 -0.52926631207E-02  0.10230339210E+01  0.10228204913E+01 0.  0.
     999903    2    3    3    0    0 -0.57227587110E-01 -0.87042859854E-01 -0.84351502137E-01  0.13541726843E+00  0.19266668063E-01 0.  0.
         14    1    1    2    0    0  0.59972513470E-02  0.19304580077E-01  0.52926631207E-02  0.20896079024E-01  0.00000000000E+00 0. -1.
     999901    1    3    3    0    0  0.51230335763E-01  0.67738279777E-01  0.79058839017E-01  0.88761665255E+00  0.88000000000E+00 0.  1.
        -11    1    4    4    0    0 -0.17493728243E-01 -0.22740155230E-01 -0.13117342190E-01  0.31551085162E-01  0.51100000000E-03 0. -1.
         11    1    4    4    0    0 -0.39733858866E-01 -0.64302704624E-01 -0.71234159947E-01  0.10386618327E+00  0.51100000000E-03 0.  1.
</event>
<event>
 8    1  0.1109294E+005  0.1043930E+01  0.7957747E-01            NaN
         13   -1    0    0    0    0  0.00000000000E+00  0.00000000000E+00  0.74505805969E-08  0.10566000000E+00  0.10566000000E+00 0.  1.
     999900   -1    0    0    0    0 -0.00000000000E+00 -0.00000000000E+00 -0.74505805969E-08  0.93827000000E+00  0.93827000000E+00 0.  1.
     999902    2    1    2    0    0 -0.24062264967E-02 -0.22952230132E-01  0.12447572401E-03  0.10208516489E+01  0.10205907499E+01 0.  0.
     999903    2    3    3    0    0 -0.73309503875E-01 -0.41609213111E-01  0.99851512143E-01  0.13218926109E+00  0.19951598867E-01 0.  0.
         14    1    1    2    0    0  0.24062264967E-02  0.22952230132E-01 -0.12447572401E-03  0.23078351072E-01  0.00000000000E+00 0.  1.
     999901    1    3    3    0    0  0.70903277379E-01  0.18656982979E-01 -0.99727036419E-01  0.88866238783E+00  0.88000000000E+00 0.  1.
        -11    1    4    4    0    0 -0.32962799916E-01 -0.29344535195E-01  0.56690719192E-01  0.71845296907E-01  0.51100000000E-03 0. -1.
         11    1    4    4    0    0 -0.40346703959E-01 -0.12264677917E-01  0.43160792951E-01  0.60343964188E-01  0.51100000000E-03 0.  1.
</event>
<event>
 8    1  0.1109294E+005  0.1043930E+01  0.7957747E-01            NaN
         13   -1    0    0    0    0  0.00000000000E+00  0.00000000000E+00  0.74505805969E-08  0.10566000000E+00  0.10566000000E+00 0.  1.
     999900   -1    0    0    0    0 -0.00000000000E+00 -0.00000000000E+00 -0.74505805969E-08  0.93827000000E+00  0.93827000000E+00 0. -1.
     999902    2    1    2    0    0  0.79186321610E-02  0.69124087866E-02  0.21625544258E-01  0.10198852439E+01  0.10196017656E+01 0.  0.
     999903    2    3    3    0    0 -0.57147464243E-02 -0.10474319229E+00  0.76002697452E-01  0.13106033594E+00  0.19914993802E-01 0.  0.
         14    1    1    2    0    0 -0.79186321610E-02 -0.69124087866E-02 -0.21625544258E-01  0.24044756081E-01  0.00000000000E+00 0. -1.
     999901    1    3    3    0    0  0.13633378585E-01  0.11165560107E+00 -0.54377153194E-01  0.88882490798E+00  0.88000000000E+00 0. -1.
        -11    1    4    4    0    0 -0.76868577233E-02 -0.89167545505E-01  0.55801140358E-01  0.10547022015E+00  0.51100000000E-03 0.  1.
         11    1    4    4    0    0  0.19721112989E-02 -0.15575646783E-01  0.20201557094E-01  0.25590115782E-01  0.51100000000E-03 0. -1.
</event>
<event>
 8    1  0.1109294E+005  0.1043930E+01  0.7957747E-01            NaN
         13   -1    0    0    0    0  0.00000000000E+00  0.00000000000E+00  0.74505805969E-08  0.10566000000E+00  0.10566000000E+00 0.  1.
     999900   -1    0    0    0    0 -0.00000000000E+00 -0.00000000000E+00 -0.74505805969E-08  0.93827000000E+00  0.93827000000E+00 0.  1.
     999902    2    1    2    0    0 -0.17449855714E-01 -0.15702969850E-01 -0.50301124201E-03  0.10204495028E+01  0.10201793245E+01 0.  0.
     999903    2    3    3    0    0 -0.10807604985E+00 -0.75745309795E-01  0.85125532595E-02  0.13371421537E+00  0.19729250368E-01 0.  0.
         14    1    1    2    0    0  0.17449855714E-01  0.15702969850E-01  0.50301124201E-03  0.23480497159E-01  0.00000000000E+00 0. -1.
     999901    1    3    3    0    0  0.90626194140E-01  0.60042339945E-01 -0.90155645015E-02  0.88673528748E+00  0.88000000000E+00 0.  1.
        -11    1    4    4    0    0 -0.13104971184E-01 -0.45903379589E-02  0.56751803781E-02  0.15009339281E-01  0.51100000000E-03 0. -1.
         11    1    4    4    0    0 -0.94971078669E-01 -0.71154971836E-01  0.28373728813E-02  0.11870487609E+00  0.51100000000E-03 0.  1.
</event>
<event>
 8    1  0.1109294E+005  0.1043930E+01  0.7957747E-01            NaN
         13   -1    0    0    0    0  0.00000000000E+00  0.00000000000E+00  0.74505805969E-08  0.10566000000E+00  0.10566000000E+00 0.  1.
     999900   -1    0    0    0    0 -0.00000000000E+00 -0.00000000000E+00 -0.74505805969E-08  0.93827000000E+00  0.93827000000E+00 0.  1.
     999902    2    1    2    0    0 -0.18507170571E-01  0.11666996839E-01 -0.10010660498E-01  0.10198707502E+01  0.10195869260E+01 0.  0.
     999903    2    3    3    0    0 -0.96101309373E-01 -0.11197478564E-01 -0.88289103953E-01  0.13270044561E+00  0.21297821490E-01 0.  0.
         14    1    1    2    0    0  0.18507170571E-01 -0.11666996839E-01  0.10010660498E-01  0.24059249809E-01  0.00000000000E+00 0.  1.
     999901    1    3    3    0    0  0.77594138803E-01  0.22864475402E-01  0.78278443455E-01  0.88717030458E+00  0.88000000000E+00 0. -1.
        -11    1    4    4    0    0 -0.63605539921E-01 -0.16408804037E-01 -0.52634838532E-01  0.84176011469E-01  0.51100000000E-03 0. -1.
         11    1    4    4    0    0 -0.32495769452E-01  0.52113254737E-02 -0.35654265420E-01  0.48524434145E-01  0.51100000000E-03 0.  1.
</event>
<event>
 8    1  0.1109294E+005  0.1043930E+01  0.7957747E-01            NaN
         13   -1    0    0    0    0  0.00000000000E+00  0.00000000000E+00  0.74505805969E-08  0.10566000000E+00  0.10566000000E+00 0.  1.
     999900   -1    0    0    0    0 -0.00000000000E+00 -0.00000000000E+00 -0.74505805969E-08  0.93827000000E+00  0.93827000000E+00 0. -1.
     999902    2    1    2    0    0  0.10179978094E-01 -0.23325537747E-01  0.14058950751E-02  0.10184409983E+01  0.10181219858E+01 0.  0.
     999903    2    3    3    0    0 -0.30372164338E-01 -0.88374724375E-01 -0.89053940605E-01  0.13048894174E+00  0.19084006478E-01 0.  0.
         14    1    1    2    0    0 -0.10179978094E-01  0.23325537747E-01 -0.14058950751E-02  0.25489001671E-01  0.00000000000E+00 0. -1.
     999901    1    3    3    0    0  0.40552142433E-01  0.65049186628E-01  0.90459835680E-01  0.88795205659E+00  0.88000000000E+00 0.  1.
        -11    1    4    4    0    0 -0.12559290332E-01 -0.15148572458E-01 -0.23020362442E-01  0.30288830106E-01  0.51100000000E-03 0. -1.
         11    1    4    4    0    0 -0.17812874006E-01 -0.73226151917E-01 -0.66033578162E-01  0.10020011163E+00  0.51100000000E-03 0.  1.
</event>
<event>
 8    1  0.1109294E+005  0.1043930E+01  0.7957747E-01            NaN
         13   -1    0    0    0    0  0.00000000000E+00  0.00000000000E+00  0.74505805969E-08  0.10566000000E+00  0.10566000000E+00 0.  1.
     999900   -1    0    0    0    0 -0.00000000000E+00 -0.00000000000E+00 -0.74505805969E-08  0.93827000000E+00  0.93827000000E+00 0. -1.
     999902    2    1    2    0    0 -0.12396674699E-01  0.28067837692E-01 -0.83546184362E-02  0.10121293600E+01  0.10116296559E+01 0.  0.
     999903    2    3    3    0    0 -0.40783267429E-02 -0.12147859990E-01  0.11964323580E+00  0.12192154832E+00  0.19650873304E-01 0.  0.
         14    1    1    2    0    0  0.12396674699E-01 -0.28067837692E-01  0.83546184362E-02  0.31800640018E-01  0.00000000000E+00 0.  1.
     999901    1    3    3    0    0 -0.83183479559E-02  0.40215697682E-01 -0.12799785423E+00  0.89020781166E+00  0.88000000000E+00 0. -1.
        -11    1    4    4    0    0 -0.89046481265E-03 -0.17155655516E-01  0.79325141363E-01  0.81165563000E-01  0.51100000000E-03 0. -1.
         11    1    4    4    0    0 -0.31878619303E-02  0.50077955264E-02  0.40318094435E-01  0.40755985322E-01  0.51100000000E-03 0.  1.
</event>
<event>
 8    1  0.1109294E+005  0.1043930E+01  0.7957747E-01            NaN
         13   -1    0    0    0    0  0.00000000000E+00  0.00000000000E+00  0.74505805969E-08  0.10566000000E+00  0.10566000000E+00 0.  1.
     999900   -1    0    0    0    0 -0.00000000000E+00 -0.00000000000E+00 -0.74505805969E-08  0.93827000000E+00  0.93827000000E+00 0. -1.
     999902    2    1    2    0    0 -0.67349926090E-02 -0.10107422792E-01 -0.20385213937E-01  0.10202007550E+01  0.10199247538E+01 0.  0.
     999903    2    3    3    0    0 -0.58937557179E-01  0.29533716647E-01  0.10828355865E+00  0.12843162528E+00  0.20578562492E-01 0.  0.
         14    1    1    2    0    0  0.67349926090E-02  0.10107422792E-01  0.20385213937E-01  0.23729244999E-01  0.00000000000E+00 0.  1.
     999901    1    3    3    0    0  0.52202564570E-01 -0.39641139439E-01 -0.12866877258E+00  0.89176912972E+00  0.88000000000E+00 0. -1.
        -11    1    4    4    0    0 -0.39196386050E-01  0.21178523576E-01  0.53636132281E-01  0.69727916557E-01  0.51100000000E-03 0. -1.
         11    1    4    4    0    0 -0.19741171129E-01  0.83551930711E-02  0.54647426364E-01  0.58703708725E-01  0.51100000000E-03 0.  1.
</event>
<event>
 8    1  0.1109294E+005  0.1043930E+01  0.7957747E-01            NaN
         13   -1    0    0    0    0  0.00000000000E+00  0.00000000000E+00  0.74505805969E-08  0.10566000000E+00  0.10566000000E+00 0.  1.
     999900   -1    0    0    0    0 -0.00000000000E+00 -0.00000000000E+00 -0.74505805969E-08  0.93827000000E+00  0.93827000000E+00 0.  1.
     999902    2    1    2    0    0 -0.12142137835E-01  0.20949421194E-01  0.10419604205E-02  0.10196937577E+01  0.10194056916E+01 0.  0.
     999903    2    3    3    0    0 -0.33864929139E-02  0.32535815276E-01 -0.12470960922E+00  0.13063562511E+00  0.21050707960E-01 0.  0.
         14    1    1    2    0    0  0.12142137835E-01 -0.20949421194E-01 -0.10419604205E-02  0.24236242306E-01  0.00000000000E+00 0.  1.
     999901    1    3    3    0    0 -0.87556449213E-02 -0.11586394082E-01  0.12575156964E+00  0.88905813258E+00  0.88000000000E+00 0. -1.
        -11    1    4    4    0    0  0.21156206093E-02  0.12136589158E-01 -0.82650005535E-01  0.83564688612E-01  0.51100000000E-03 0. -1.
         11    1    4    4    0    0 -0.55021135233E-02  0.20399226119E-01 -0.42059603688E-01  0.47070936499E-01  0.51100000000E-03 0.  1.
</event>
<event>
 8    1  0.1109294E+005  0.1043930E+01  0.7957747E-01            NaN
         13   -1    0    0    0    0  0.00000000000E+00  0.00000000000E+00  0.74505805969E-08  0.10566000000E+00  0.10566000000E+00 0. -1.
     999900   -1    0    0    0    0 -0.00000000000E+00 -0.00000000000E+00 -0.74505805969E-08  0.93827000000E+00  0.93827000000E+00 0.  1.
     999902    2    1    2    0    0  0.14073054981E-01  0.39833967374E-03  0.18718883945E-01  0.10205076567E+01  0.10202388304E+01 0.  0.
     999903    2    3    3    0    0  0.40676474943E-01  0.48932777323E-01  0.11551549744E+00  0.13347162697E+00  0.20539054242E-01 0.  0.
         14    1    1    2    0    0 -0.14073054981E-01 -0.39833967374E-03 -0.18718883945E-01  0.23422343332E-01  0.00000000000E+00 0.  1.
     999901    1    3    3    0    0 -0.26603419962E-01 -0.48534437649E-01 -0.96796613490E-01  0.88703602969E+00  0.88000000000E+00 0.  1.
        -11    1    4    4    0    0  0.40118572318E-01  0.36682562386E-01  0.98265282655E-01  0.11230065505E+00  0.51100000000E-03 0.  1.
         11    1    4    4    0    0  0.55790262534E-03  0.12250214936E-01  0.17250214780E-01  0.21170971926E-01  0.51100000000E-03 0. -1.
</event>
<event>
 8    1  0.1109294E+005  0.1043930E+01  0.7957747E-01            NaN
         13   -1    0    0    0    0  0.00000000000E+00  0.00000000000E+00  0.74505805969E-08  0.10566000000E+00  0.10566000000E+00 0.  1.
     999900   -1    0    0    0    0 -0.00000000000E+00 -0.00000000000E+00 -0.74505805969E-08  0.93827000000E+00  0.93827000000E+00 0.  1.
     999902    2    1    2    0    0 -0.18918844893E-01 -0.12497754478E-01 -0.67520772681E-02  0.10202718702E+01  0.10199975402E+01 0.  0.
     999903    2    3    3    0    0 -0.91967630567E-01 -0.71366792923E-03  0.91985076892E-01  0.13166396149E+00  0.20386024367E-01 0.  0.
         14    1    1    2    0    0  0.18918844893E-01  0.12497754478E-01  0.67520772681E-02  0.23658129818E-01  0.00000000000E+00 0.  1.
     999901    1    3    3    0    0  0.73048785674E-01 -0.11784086548E-01 -0.98737154160E-01  0.88860790870E+00  0.88000000000E+00 0.  1.
        -11    1    4    4    0    0 -0.26568360498E-01  0.75587098618E-02  0.20356147283E-01  0.34316843204E-01  0.51100000000E-03 0.  1.
         11    1    4    4    0    0 -0.65399270070E-01 -0.82723777911E-02  0.71628929609E-01  0.97347118282E-01  0.51100000000E-03 0. -1.
</event>
<event>
 8    1  0.1109294E+005  0.1043930E+01  0.7957747E-01            NaN
         13   -1    0    0    0    0  0.00000000000E+00  0.00000000000E+00  0.74505805969E-08  0.10566000000E+00  0.10566000000E+00 0. -1.
     999900   -1    0    0    0    0 -0.00000000000E+00 -0.00000000000E+00 -0.74505805969E-08  0.93827000000E+00  0.93827000000E+00 0. -1.
     999902    2    1    2    0    0 -0.90148118419E-02  0.19226889416E-01  0.81282368184E-02  0.10211921825E+01  0.10209390116E+01 0.  0.
     999903    2    3    3    0    0 -0.58623670483E-01 -0.11336677741E+00 -0.11300132239E-01  0.12966563730E+00  0.19917920241E-01 0.  0.
         14    1    1    2    0    0  0.90148118419E-02 -0.19226889416E-01 -0.81282368184E-02  0.22737817462E-01  0.00000000000E+00 0.  1.
     999901    1    3    3    0    0  0.49608858641E-01  0.13259366683E+00  0.19428369058E-01  0.89152654524E+00  0.88000000000E+00 0. -1.
        -11    1    4    4    0    0 -0.42153581627E-01 -0.65917225222E-01 -0.13439759984E-01  0.79390763281E-01  0.51100000000E-03 0. -1.
         11    1    4    4    0    0 -0.16470088856E-01 -0.47449552189E-01  0.21396277450E-02  0.50274874020E-01  0.51100000000E-03 0.  1.
</event>
<event>
 8    1  0.1109294E+005  0.1043930E+01  0.7957747E-01            NaN
         13   -1    0    0    0    0  0.00000000000E+00  0.00000000000E+00  0.74505805969E-08  0.10566000000E+00  0.10566000000E+00 0.  1.
     999900   -1    0    0    0    0 -0.00000000000E+00 -0.00000000000E+00 -0.74505805969E-08  0.93827000000E+00  0.93827000000E+00 0.  1.
     999902    2    1    2    0    0  0.12775859571E-01 -0.19403967337E-01  0.48712355601E-02  0.10201925723E+01  0.10199163785E+01 0.  0.
     999903    2    3    3    0    0  0.88419245423E-01  0.83162889339E-01  0.42162452146E-01  0.13023048508E+00  0.21172570695E-01 0.  0.
         14    1    1    2    0    0 -0.12775859571E-01  0.19403967337E-01 -0.48712355601E-02  0.23737427664E-01  0.00000000000E+00 0. -1.
     999901    1    3    3    0    0 -0.75643385852E-01 -0.10256685668E+00 -0.37291216586E-01  0.88996208725E+00  0.88000000000E+00 0. -1.
        -11    1    4    4    0    0  0.90193651463E-02  0.82861481017E-02  0.11640474404E-01  0.16904761558E-01  0.51100000000E-03 0. -1.
         11    1    4    4    0    0  0.79399880277E-01  0.74876741238E-01  0.30521977742E-01  0.11332572353E+00  0.51100000000E-03 0.  1.
</event>
<event>
 8    1  0.1109294E+005  0.1043930E+01  0.7957747E-01            NaN
         13   -1    0    0    0    0  0.00000000000E+00  0.00000000000E+00  0.74505805969E-08  0.10566000000E+00  0.10566000000E+00 0. -1.
     999900   -1    0    0    0    0 -0.00000000000E+00 -0.00000000000E+00 -0.74505805969E-08  0.93827000000E+00  0.93827000000E+00 0. -1.
     999902    2    1    2    0    0 -0.28679816465E-02  0.18504685778E-01  0.14789545560E-01  0.10200683284E+01  0.10197892014E+01 0.  0.
     999903    2    3    3    0    0 -0.70338565579E-03 -0.11626175067E+00  0.52580737475E-01  0.12900444063E+00  0.18976889342E-01 0.  0.
         14    1    1    2    0    0  0.28679816465E-02 -0.18504685778E-01 -0.14789545560E-01  0.23861671617E-01  0.00000000000E+00 0.  1.
     999901    1    3    3    0    0 -0.21645959907E-02  0.13476643645E+00 -0.37791191914E-01  0.89106388775E+00  0.88000000000E+00 0. -1.
        -11    1    4    4    0    0 -0.90839507712E-02 -0.46964437719E-01  0.18085715806E-01  0.51142260500E-01  0.51100000000E-03 0. -1.
         11    1    4    4    0    0  0.83805651154E-02 -0.69297312951E-01  0.34495021669E-01  0.77862180132E-01  0.51100000000E-03 0.  1.
</event>
<event>
 8    1  0.1109294E+005  0.1043930E+01  0.7957747E-01            NaN
         13   -1    0    0    0    0  0.00000000000E+00  0.00000000000E+00  0.74505805969E-08  0.10566000000E+00  0.10566000000E+00 0. -1.
     999900   -1    0    0    0    0 -0.00000000000E+00 -0.00000000000E+00 -0.74505805969E-08  0.93827000000E+00  0.93827000000E+00 0.  1.
     999902    2    1    2    0    0  0.83498089203E-02 -0.87220990854E-02  0.17981292376E-01  0.10222707942E+01  0.10220413179E+01 0.  0.
     999903    2    3    3    0    0  0.61481178115E-01  0.10837825546E+00  0.40953733189E-01  0.13262863664E+00  0.19681602455E-01 0.  0.
         14    1    1    2    0    0 -0.83498089203E-02  0.87220990854E-02 -0.17981292376E-01  0.21659205825E-01  0.00000000000E+00 0.  1.
     999901    1    3    3    0    0 -0.53131369195E-01 -0.11710035455E+00 -0.22972440813E-01  0.88964215754E+00  0.88000000000E+00 0. -1.
        -11    1    4    4    0    0  0.42196335769E-01  0.54602321283E-01  0.23100670840E-01  0.72772565958E-01  0.51100000000E-03 0.  1.
         11    1    4    4    0    0  0.19284842346E-01  0.53775934180E-01  0.17853062350E-01  0.59856070682E-01  0.51100000000E-03 0. -1.
</event>
<event>
 8    1  0.1109294E+005  0.1043930E+01  0.7957747E-01            NaN
         13   -1    0    0    0    0  0.00000000000E+00  0.00000000000E+00  0.74505805969E-08  0.10566000000E+00  0.10566000000E+00 0. -1.
     999900   -1    0    0    0    0 -0.00000000000E+00 -0.00000000000E+00 -0.74505805969E-08  0.93827000000E+00  0.93827000000E+00 0.  1.
     999902    2    1    2    0    0 -0.11304436190E-01  0.15030838396E-01 -0.14359516829E-01  0.10202675381E+01  0.10199931064E+01 0.  0.
     999903    2    3    3    0    0  0.11197665555E+00  0.55518565296E-01 -0.32156141108E-01  0.13057421820E+00  0.19862692797E-01 0.  0.
         14    1    1    2    0    0  0.11304436190E-01 -0.15030838396E-01  0.14359516829E-01  0.23662461918E-01  0.00000000000E+00 0. -1.
     999901    1    3    3    0    0 -0.12328109174E+00 -0.40487726900E-01  0.17796624279E-01  0.88969331988E+00  0.88000000000E+00 0.  1.
        -11    1    4    4    0    0  0.56376916791E-01  0.29353176482E-01 -0.26492718130E-01  0.68862841586E-01  0.51100000000E-03 0.  1.
         11    1    4    4    0    0  0.55599738764E-01  0.26165388814E-01 -0.56634229782E-02  0.61711376611E-01  0.51100000000E-03 0. -1.
</event>
<event>
 8    1  0.1109294E+005  0.1043930E+01  0.7957747E-01            NaN
         13   -1    0    0    0    0  0.00000000000E+00  0.00000000000E+00  0.74505805969E-08  0.10566000000E+00  0.10566000000E+00 0. -1.
     999900   -1    0    0    0    0 -0.00000000000E+00 -0.00000000000E+00 -0.74505805969E-08  0.93827000000E+00  0.93827000000E+00 0.  1.
     999902    2    1    2    0    0 -0.14928885500E-01 -0.61916014160E-02  0.17896824932E-01  0.10198156082E+01  0.10195304658E+01 0.  0.
     999903    2    3    3    0    0  0.12733118784E-01 -0.91858846399E-01  0.91912500249E-01  0.13213188999E+00  0.20266935491E-01 0.  0.
         14    1    1    2    0    0  0.14928885500E-01  0.61916014160E-02 -0.17896824932E-01  0.24114391823E-01  0.00000000000E+00 0.  1.
     999901    1    3    3    0    0 -0.27662004285E-01  0.85667244983E-01 -0.74015675317E-01  0.88768371819E+00  0.88000000000E+00 0.  1.
        -11    1    4    4    0    0  0.10874744358E-01 -0.43105119876E-01  0.56240370412E-01  0.71690667520E-01  0.51100000000E-03 0. -1.
         11    1    4    4    0    0  0.18583744259E-02 -0.48753726523E-01  0.35672129837E-01  0.60441222468E-01  0.51100000000E-03 0.  1.
</event>
<event>
 8    1  0.1109294E+005  0.1043930E+01  0.7957747E-01            NaN
         13   -1    0    0    0    0  0.00000000000E+00  0.00000000000E+00  0.74505805969E-08  0.10566000000E+00  0.10566000000E+00 0. -1.
     999900   -1    0    0    0    0 -0.00000000000E+00 -0.00000000000E+00 -0.74505805969E-08  0.93827000000E+00  0.93827000000E+00 0. -1.
     999902    2    1    2    0    0 -0.12151442041E-01  0.15198220353E-01  0.13552989832E-01  0.10202165654E+01  0.10199409362E+01 0.  0.
     999903    2    3    3    0    0  0.26156141952E-01 -0.25161211111E-02  0.12759833740E+00  0.13185424623E+00  0.20340401026E-01 0.  0.
         14    1    1    2    0    0  0.12151442041E-01 -0.15198220353E-01 -0.13552989832E-01  0.23713434567E-01  0.00000000000E+00 0.  1.
     999901    1    3    3    0    0 -0.38307583993E-01  0.17714341464E-01 -0.11404534757E+00  0.88836231921E+00  0.88000000000E+00 0. -1.
        -11    1    4    4    0    0  0.67093576068E-02 -0.57858255782E-02  0.77590403745E-01  0.78096242749E-01  0.51100000000E-03 0. -1.
         11    1    4    4    0    0  0.19446784345E-01  0.32697044671E-02  0.50007933653E-01  0.53758003478E-01  0.51100000000E-03 0.  1.
</event>
<event>
 8    1  0.1109294E+005  0.1043930E+01  0.7957747E-01            NaN
         13   -1    0    0    0    0  0.00000000000E+00  0.00000000000E+00  0.74505805969E-08  0.10566000000E+00  0.10566000000E+00 0.  1.
     999900   -1    0    0    0    0 -0.00000000000E+00 -0.00000000000E+00 -0.74505805969E-08  0.93827000000E+00  0.93827000000E+00 0.  1.
     999902    2    1    2    0    0  0.70532102637E-02 -0.21845998511E-01  0.22518416345E-02  0.10208634394E+01  0.10206028100E+01 0.  0.
     999903    2    3    3    0    0 -0.49124908451E-01  0.53440004090E-01 -0.10519212383E+00  0.12936572831E+00  0.20025435757E-01 0.  0.
         14    1    1    2    0    0 -0.70532102637E-02  0.21845998511E-01 -0.22518416345E-02  0.23066560574E-01  0.00000000000E+00 0. -1.
     999901    1    3    3    0    0  0.56178118715E-01 -0.75286002601E-01  0.10744396547E+00  0.89149771112E+00  0.88000000000E+00 0. -1.
        -11    1    4    4    0    0 -0.46288109676E-01  0.40368556112E-01 -0.80229967381E-01  0.10104117085E+00  0.51100000000E-03 0.  1.
         11    1    4    4    0    0 -0.28367987748E-02  0.13071447978E-01 -0.24962156452E-01  0.28324557459E-01  0.51100000000E-03 0. -1.
</event>
<event>
 8    1  0.1109294E+005  0.1043930E+01  0.7957747E-01            NaN
         13   -1    0    0    0    0  0.00000000000E+00  0.00000000000E+00  0.74505805969E-08  0.10566000000E+00  0.10566000000E+00 0.  1.
     999900   -1    0    0    0    0 -0.00000000000E+00 -0.00000000000E+00 -0.74505805969E-08  0.93827000000E+00  0.93827000000E+00 0. -1.
     999902    2    1    2    0    0 -0.77762965000E-02 -0.98026130305E-02 -0.19940223638E-01  0.10203890882E+01  0.10201175015E+01 0.  0.
     999903    2    3    3    0    0  0.34418339027E-01  0.12247083069E+00  0.82572099117E-02  0.12905764231E+00  0.20098932568E-01 0.  0.
         14    1    1    2    0    0  0.77762965000E-02  0.98026130305E-02  0.19940223638E-01  0.23540911797E-01  0.00000000000E+00 0.  1.
     999901    1    3    3    0    0 -0.42194635527E-01 -0.13227344372E+00 -0.28197433550E-01  0.89133144589E+00  0.88000000000E+00 0. -1.
        -11    1    4    4    0    0  0.25897571395E-01  0.91687381431E-01  0.14886508866E-01  0.96431993576E-01  0.51100000000E-03 0. -1.
         11    1    4    4    0    0  0.85207676312E-02  0.30783449263E-01 -0.66292989546E-02  0.32625648732E-01  0.51100000000E-03 0.  1.
</event>
<event>
 8    1  0.1109294E+005  0.1043930E+01  0.7957747E-01            NaN
         13   -1    0    0    0    0  0.00000000000E+00  0.00000000000E+00  0.74505805969E-08  0.10566000000E+00  0.10566000000E+00 0.  1.
     999900   -1    0    0    0    0 -0.00000000000E+00 -0.00000000000E+00 -0.74505805969E-08  0.93827000000E+00  0.93827000000E+00 0.  1.
     999902    2    1    2    0    0  0.76296054605E-02 -0.41607131655E-03 -0.21931931183E-01  0.10207051512E+01  0.10204408911E+01 0.  0.
     999903    2    3    3    0    0  0.63137495526E-01 -0.80348538885E-01 -0.83159011337E-01  0.13322609200E+00  0.19787354069E-01 0.  0.
         14    1    1    2    0    0 -0.76296054605E-02  0.41607131655E-03  0.21931931183E-01  0.23224848767E-01  0.00000000000E+00 0.  1.
     999901    1    3    3    0    0 -0.55507890066E-01  0.79932467569E-01  0.61227080154E-01  0.88747905923E+00  0.88000000000E+00 0. -1.
        -11    1    4    4    0    0  0.41098322423E-01 -0.36518795493E-01 -0.45843001061E-01  0.71585867303E-01  0.51100000000E-03 0.  1.
         11    1    4    4    0    0  0.22039173103E-01 -0.43829743393E-01 -0.37316010276E-01  0.61640224698E-01  0.51100000000E-03 0. -1.
</event>
<event>
 8    1  0.1109294E+005  0.1043930E+01  0.7957747E-01            NaN
         13   -1    0    0    0    0  0.00000000000E+00  0.00000000000E+00  0.74505805969E-08  0.10566000000E+00  0.10566000000E+00 0.  1.
     999900   -1    0    0    0    0 -0.00000000000E+00 -0.00000000000E+00 -0.74505805969E-08  0.93827000000E+00  0.93827000000E+00 0.  1.
     999902    2    1    2    0    0  0.19767077437E-01  0.64913519785E-02  0.18392360224E-01  0.10161603418E+01  0.10157808260E+01 0.  0.
     999903    2    3    3    0    0 -0.28517199339E-01 -0.44823091626E-01 -0.11027352266E+00  0.12401716221E+00  0.19941577676E-01 0.  0.
         14    1    1    2    0    0 -0.19767077437E-01 -0.64913519785E-02 -0.18392360224E-01  0.27769658182E-01  0.00000000000E+00 0.  1.
     999901    1    3    3    0    0  0.48284276775E-01  0.51314443605E-01  0.12866588289E+00  0.89214317961E+00  0.88000000000E+00 0. -1.
        -11    1    4    4    0    0 -0.23673351514E-01 -0.25034842406E-01 -0.52915947282E-01  0.63146888316E-01  0.51100000000E-03 0. -1.
         11    1    4    4    0    0 -0.48438478244E-02 -0.19788249221E-01 -0.57357575382E-01  0.60870273892E-01  0.51100000000E-03 0.  1.
</event>
<event>
 8    1  0.1109294E+005  0.1043930E+01  0.7957747E-01            NaN
         13   -1    0    0    0    0  0.00000000000E+00  0.00000000000E+00  0.74505805969E-08  0.10566000000E+00  0.10566000000E+00 0.  1.
     999900   -1    0    0    0    0 -0.00000000000E+00 -0.00000000000E+00 -0.74505805969E-08  0.93827000000E+00  0.93827000000E+00 0.  1.
     999902    2    1    2    0    0  0.13190438275E-01 -0.41781592585E-04 -0.19428692796E-01  0.10204467398E+01  0.10201764971E+01 0.  0.
     999903    2    3    3    0    0  0.11473295149E+00 -0.23914565054E-01  0.55276408854E-01  0.13114271751E+00  0.20183518055E-01 0.  0.
         14    1    1    2    0    0 -0.13190438275E-01  0.41781592585E-04  0.19428692796E-01  0.23483260237E-01  0.00000000000E+00 0.  1.
     999901    1    3    3    0    0 -0.10154251322E+00  0.23872783461E-01 -0.74705101650E-01  0.88930402225E+00  0.88000000000E+00 0.  1.
        -11    1    4    4    0    0  0.49226504772E-01 -0.40785702727E-02  0.14546632202E-01  0.51495137022E-01  0.51100000000E-03 0. -1.
         11    1    4    4    0    0  0.65506446719E-01 -0.19835994781E-01  0.40729776652E-01  0.79647580489E-01  0.51100000000E-03 0.  1.
</event>
<event>
 8    1  0.1109294E+005  0.1043930E+01  0.7957747E-01            NaN
         13   -1    0    0    0    0  0.00000000000E+00  0.00000000000E+00  0.74505805969E-08  0.10566000000E+00  0.10566000000E+00 0.  1.
     999900   -1    0    0    0    0 -0.00000000000E+00 -0.00000000000E+00 -0.74505805969E-08  0.93827000000E+00  0.93827000000E+00 0.  1.
     999902    2    1    2    0    0  0.18265328940E-01  0.15575707460E-01 -0.27074951166E-03  0.10199237881E+01  0.10196412287E+01 0.  0.
     999903    2    3    3    0    0  0.93222237530E-01 -0.49258513334E-01 -0.75402566135E-01  0.13117927802E+00  0.20141233763E-01 0.  0.
         14    1    1    2    0    0 -0.18265328940E-01 -0.15575707460E-01  0.27074951166E-03  0.24006211893E-01  0.00000000000E+00 0.  1.
     999901    1    3    3    0    0 -0.74956908590E-01  0.64834220794E-01  0.75131816623E-01  0.88874451008E+00  0.88000000000E+00 0. -1.
        -11    1    4    4    0    0  0.81841459708E-01 -0.37625048357E-01 -0.56951599108E-01  0.10657117130E+00  0.51100000000E-03 0. -1.
         11    1    4    4    0    0  0.11380777821E-01 -0.11633464977E-01 -0.18450967026E-01  0.24608106721E-01  0.51100000000E-03 0.  1.
</event>
<event>
 8    1  0.1109294E+005  0.1043930E+01  0.7957747E-01            NaN
         13   -1    0    0    0    0  0.00000000000E+00  0.00000000000E+00  0.74505805969E-08  0.10566000000E+00  0.10566000000E+00 0. -1.
     999900   -1    0    0    0    0 -0.00000000000E+00 -0.00000000000E+00 -0.74505805969E-08  0.93827000000E+00  0.93827000000E+00 0.  1.
     999902    2    1    2    0    0  0.21890650917E-01  0.56538421469E-02 -0.65651853180E-02  0.10203870990E+01  0.10201154658E+01 0.  0.
     999903    2    3    3    0    0  0.48643820542E-01 -0.24521423657E-01 -0.11802928193E+00  0.13243973369E+00  0.25334762111E-01 0.  0.
         14    1    1    2    0    0 -0.21890650917E-01 -0.56538421469E-02  0.65651853180E-02  0.23542900987E-01  0.00000000000E+00 0.  1.
     999901    1    3    3    0    0 -0.26753169625E-01  0.30175265804E-01  0.11146409661E+00  0.88794736532E+00  0.88000000000E+00 0. -1.
        -11    1    4    4    0    0  0.34655362503E-01 -0.53780112875E-02 -0.56535391055E-01  0.66531411516E-01  0.51100000000E-03 0.  1.
         11    1    4    4    0    0  0.13988458039E-01 -0.19143412369E-01 -0.61493890878E-01  0.65908322174E-01  0.51100000000E-03 0. -1.
</event>
<event>
 8    1  0.1109294E+005  0.1043930E+01  0.7957747E-01            NaN
         13   -1    0    0    0    0  0.00000000000E+00  0.00000000000E+00  0.74505805969E-08  0.10566000000E+00  0.10566000000E+00 0.  1.
     999900   -1    0    0    0    0 -0.00000000000E+00 -0.00000000000E+00 -0.74505805969E-08  0.93827000000E+00  0.93827000000E+00 0. -1.
     999902    2    1    2    0    0 -0.14630692630E-01 -0.44759897649E-02  0.17064070934E-01  0.10210111395E+01  0.10207538747E+01 0.  0.
     999903    2    3    3    0    0  0.11556000169E+00 -0.45457288065E-01 -0.29001172370E-01  0.12929869123E+00  0.21368306576E-01 0.  0.
         14    1    1    2    0    0  0.14630692630E-01  0.44759897649E-02 -0.17064070934E-01  0.22918860531E-01  0.00000000000E+00 0. -1.
     999901    1    3    3    0    0 -0.13019069432E+00  0.40981298301E-01  0.46065243303E-01  0.89171244824E+00  0.88000000000E+00 0.  1.
        -11    1    4    4    0    0  0.48882755609E-01 -0.29895623147E-01 -0.17116335037E-01  0.59803863800E-01  0.51100000000E-03 0. -1.
         11    1    4    4    0    0  0.66677246085E-01 -0.15561664918E-01 -0.11884837332E-01  0.69494827433E-01  0.51100000000E-03 0.  1.
</event>
<event>
 8    1  0.1109294E+005  0.1043930E+01  0.7957747E-01            NaN
         13   -1    0    0    0    0  0.00000000000E+00  0.00000000000E+00  0.74505805969E-08  0.10566000000E+00  0.10566000000E+00 0.  1.
     999900   -1    0    0    0    0 -0.00000000000E+00 -0.00000000000E+00 -0.74505805969E-08  0.93827000000E+00  0.93827000000E+00 0.  1.
     999902    2    1    2    0    0  0.63309552842E-02 -0.22886524008E-02 -0.23106059575E-01  0.10198632405E+01  0.10195792369E+01 0.  0.
     999903    2    3    3    0    0  0.11627417917E+00 -0.14798996063E-01  0.51827235398E-01  0.12977390796E+00  0.20408572511E-01 0.  0.
         14    1    1    2    0    0 -0.63309552842E-02  0.22886524008E-02  0.23106059575E-01  0.24066759518E-01  0.00000000000E+00 0.  1.
     999901    1    3    3    0    0 -0.10994322388E+00  0.12510343662E-01 -0.74933294973E-01  0.89008933252E+00  0.88000000000E+00 0.  1.
        -11    1    4    4    0    0  0.47505055357E-01 -0.15661685420E-01  0.25323172555E-01  0.56067306551E-01  0.51100000000E-03 0.  1.
         11    1    4    4    0    0  0.68769123812E-01  0.86268935768E-03  0.26504062844E-01  0.73706601407E-01  0.51100000000E-03 0. -1.
</event>
<event>
 8    1  0.1109294E+005  0.1043930E+01  0.7957747E-01            NaN
         13   -1    0    0    0    0  0.00000000000E+00  0.00000000000E+00  0.74505805969E-08  0.10566000000E+00  0.10566000000E+00 0. -1.
     999900   -1    0    0    0    0 -0.00000000000E+00 -0.00000000000E+00 -0.74505805969E-08  0.93827000000E+00  0.93827000000E+00 0. -1.
     999902    2    1    2    0    0 -0.22066563948E-01 -0.90292840282E-02 -0.19029173345E-02  0.10200117578E+01  0.10197312900E+01 0.  0.
     999903    2    3    3    0    0 -0.10791974003E+00 -0.42812787673E-01  0.61691399158E-01  0.13290616656E+00  0.19458039527E-01 0.  0.
         14    1    1    2    0    0  0.22066563948E-01  0.90292840282E-02  0.19029173345E-02  0.23918242179E-01  0.00000000000E+00 0.  1.
     999901    1    3    3    0    0  0.85853176082E-01  0.33783503645E-01 -0.63594316492E-01  0.88710559126E+00  0.88000000000E+00 0. -1.
        -11    1    4    4    0    0 -0.91130684657E-01 -0.36802602029E-01  0.43669217364E-01  0.10754763999E+00  0.51100000000E-03 0.  1.
         11    1    4    4    0    0 -0.16789055373E-01 -0.60101856443E-02  0.18022181794E-01  0.25358526563E-01  0.51100000000E-03 0. -1.
</event>
<event>
 8    1  0.1109294E+005  0.1043930E+01  0.7957747E-01            NaN
         13   -1    0    0    0    0  0.00000000000E+00  0.00000000000E+00  0.74505805969E-08  0.10566000000E+00  0.10566000000E+00 0.  1.
     999900   -1    0    0    0    0 -0.00000000000E+00 -0.00000000000E+00 -0.74505805969E-08  0.93827000000E+00  0.93827000000E+00 0. -1.
     999902    2    1    2    0    0  0.99808751372E-02  0.27127041279E-01 -0.36513548845E-02  0.10147953706E+01  0.10143770589E+01 0.  0.
     999903    2    3    3    0    0  0.16899002638E-01 -0.11396740461E+00  0.36978674208E-01  0.12260351769E+00  0.19749800031E-01 0.  0.
         14    1    1    2    0    0 -0.99808751372E-02 -0.27127041279E-01  0.36513548845E-02  0.29134629387E-01  0.00000000000E+00 0.  1.
     999901    1    3    3    0    0 -0.69181275004E-02  0.14109444589E+00 -0.40630029092E-01  0.89219185292E+00  0.88000000000E+00 0. -1.
        -11    1    4    4    0    0  0.12458743114E-01 -0.73613596786E-01  0.14039322139E-01  0.75970689078E-01  0.51100000000E-03 0. -1.
         11    1    4    4    0    0  0.44402595233E-02 -0.40353807824E-01  0.22939352069E-01  0.46632828617E-01  0.51100000000E-03 0.  1.
</event>
<event>
 8    1  0.1109294E+005  0.1043930E+01  0.7957747E-01            NaN
         13   -1    0    0    0    0  0.00000000000E+00  0.00000000000E+00  0.74505805969E-08  0.10566000000E+00  0.10566000000E+00 0.  1.
     999900   -1    0    0    0    0 -0.00000000000E+00 -0.00000000000E+00 -0.74505805969E-08  0.93827000000E+00  0.93827000000E+00 0.  1.
     999902    2    1    2    0    0 -0.14201661367E-01 -0.15172489441E-01  0.11357452566E-01  0.10202470240E+01  0.10199721108E+01 0.  0.
     999903    2    3    3    0    0  0.82761641122E-01  0.85091424550E-01  0.48720172346E-01  0.12847872044E+00  0.65640414161E-02 0.  0.
         14    1    1    2    0    0  0.14201661367E-01  0.15172489441E-01 -0.11357452566E-01  0.23682975957E-01  0.00000000000E+00 0.  1.
     999901    1    3    3    0    0 -0.96963302489E-01 -0.10026391399E+00 -0.37362719779E-01  0.89176830360E+00  0.88000000000E+00 0.  1.
        -11    1    4    4    0    0  0.41590574413E-01  0.42663694631E-01  0.20951655475E-01  0.63160111682E-01  0.51100000000E-03 0. -1.
         11    1    4    4    0    0  0.41171066710E-01  0.42427729918E-01  0.27768516871E-01  0.65318608759E-01  0.51100000000E-03 0.  1.
</event>
<event>
 8    1  0.1109294E+005  0.1043930E+01  0.7957747E-01            NaN
         13   -1    0    0    0    0  0.00000000000E+00  0.00000000000E+00  0.74505805969E-08  0.10566000000E+00  0.10566000000E+00 0.  1.
     999900   -1    0    0    0    0 -0.00000000000E+00 -0.00000000000E+00 -0.74505805969E-08  0.93827000000E+00  0.93827000000E+00 0.  1.
     999902    2    1    2    0    0 -0.21243563352E-01  0.59395788587E-02 -0.62245441108E-02  0.10210103026E+01  0.10207530188E+01 0.  0.
     999903    2    3    3    0    0 -0.28802699919E-01  0.34578908771E-01  0.12206467219E+00  0.13121511558E+00  0.17097540921E-01 0.  0.
         14    1    1    2    0    0  0.21243563352E-01 -0.59395788587E-02  0.62245441108E-02  0.22919697431E-01  0.00000000000E+00 0.  1.
     999901    1    3    3    0    0  0.75591365666E-02 -0.28639329912E-01 -0.12828921630E+00  0.88979518699E+00  0.88000000000E+00 0.  1.
        -11    1    4    4    0    0 -0.22116067359E-02 -0.37710719935E-03  0.19577305753E-01  0.19712063204E-01  0.51100000000E-03 0.  1.
         11    1    4    4    0    0 -0.26591093183E-01  0.34956015970E-01  0.10248736644E+00  0.11150305238E+00  0.51100000000E-03 0. -1.
</event>
<event>
 8    1  0.1109294E+005  0.1043930E+01  0.7957747E-01            NaN
         13   -1    0    0    0    0  0.00000000000E+00  0.00000000000E+00  0.74505805969E-08  0.10566000000E+00  0.10566000000E+00 0.  1.
     999900   -1    0    0    0    0 -0.00000000000E+00 -0.00000000000E+00 -0.74505805969E-08  0.93827000000E+00  0.93827000000E+00 0. -1.
     999902    2    1    2    0    0 -0.21604259602E-01 -0.94614922857E-02  0.44279493347E-02  0.10199326959E+01  0.10196503487E+01 0.  0.
     999903    2    3    3    0    0  0.11707047196E+00 -0.48211409932E-02 -0.47164210212E-01  0.12756844013E+00  0.17902664225E-01 0.  0.
         14    1    1    2    0    0  0.21604259602E-01  0.94614922857E-02 -0.44279493347E-02  0.23997304110E-01  0.00000000000E+00 0.  1.
     999901    1    3    3    0    0 -0.13867473156E+00 -0.46403512925E-02  0.51592159547E-01  0.89236425576E+00  0.88000000000E+00 0.  1.
        -11    1    4    4    0    0  0.38682662439E-01 -0.43727274897E-02 -0.24370910783E-01  0.45931160800E-01  0.51100000000E-03 0. -1.
         11    1    4    4    0    0  0.78387809522E-01 -0.44841350346E-03 -0.22793299429E-01  0.81637279329E-01  0.51100000000E-03 0.  1.
</event>
<event>
 8    1  0.1109294E+005  0.1043930E+01  0.7957747E-01            NaN
         13   -1    0    0    0    0  0.00000000000E+00  0.00000000000E+00  0.74505805969E-08  0.10566000000E+00  0.10566000000E+00 0. -1.
     999900   -1    0    0    0    0 -0.00000000000E+00 -0.00000000000E+00 -0.74505805969E-08  0.93827000000E+00  0.93827000000E+00 0.  1.
     999902    2    1    2    0    0 -0.13133710333E-01  0.19045938704E-01 -0.22659857715E-02  0.10206839935E+01  0.10204192460E+01 0.  0.
     999903    2    3    3    0    0  0.54236044810E-01  0.10414622267E+00 -0.57211764936E-01  0.13231482421E+00  0.21119716013E-01 0.  0.
         14    1    1    2    0    0  0.13133710333E-01 -0.19045938704E-01  0.22659857715E-02  0.23246006533E-01  0.00000000000E+00 0.  1.
     999901    1    3    3    0    0 -0.67369755143E-01 -0.85100283971E-01  0.54945779164E-01  0.88836916926E+00  0.88000000000E+00 0.  1.
        -11    1    4    4    0    0  0.29813117991E-01  0.58865963874E-01 -0.20456383077E-01  0.69085081144E-01  0.51100000000E-03 0. -1.
         11    1    4    4    0    0  0.24422926819E-01  0.45280258800E-01 -0.36755381859E-01  0.63229743064E-01  0.51100000000E-03 0.  1.
</event>
<event>
 8    1  0.1109294E+005  0.1043930E+01  0.7957747E-01            NaN
         13   -1    0    0    0    0  0.00000000000E+00  0.00000000000E+00  0.74505805969E-08  0.10566000000E+00  0.10566000000E+00 0. -1.
     999900   -1    0    0    0    0 -0.00000000000E+00 -0.00000000000E+00 -0.74505805969E-08  0.93827000000E+00  0.93827000000E+00 0.  1.
     999902    2    1    2    0    0  0.20770641324E-01  0.21051475871E-02  0.13393853287E-01  0.10191258372E+01  0.10188239424E+01 0.  0.
     999903    2    3    3    0    0 -0.59307220277E-01  0.63985663724E-02 -0.11010545852E+00  0.12689101530E+00  0.20489747151E-01 0.  0.
         14    1    1    2    0    0 -0.20770641324E-01 -0.21051475871E-02 -0.13393853287E-01  0.24804162820E-01  0.00000000000E+00 0.  1.
     999901    1    3    3    0    0  0.80077861601E-01 -0.42934187853E-02  0.12349931181E+00  0.89223482188E+00  0.88000000000E+00 0. -1.
        -11    1    4    4    0    0 -0.14049676881E-01 -0.67297633866E-03 -0.11542681702E-01  0.18202772851E-01  0.51100000000E-03 0. -1.
         11    1    4    4    0    0 -0.45257543396E-01  0.70715427110E-02 -0.98562776819E-01  0.10868824245E+00  0.51100000000E-03 0.  1.
</event>
<event>
 8    1  0.1109294E+005  0.1043930E+01  0.7957747E-01            NaN
         13   -1    0    0    0    0  0.00000000000E+00  0.00000000000E+00  0.74505805969E-08  0.10566000000E+00  0.10566000000E+00 0.  1.
     999900   -1    0    0    0    0 -0.00000000000E+00 -0.00000000000E+00 -0.74505805969E-08  0.93827000000E+00  0.93827000000E+00 0.  1.
     999902    2    1    2    0    0  0.22499072526E-01  0.76251447324E-02 -0.45585218417E-02  0.10197405143E+01  0.10194535719E+01 0.  0.
     999903    2    3    3    0    0  0.21723898037E-01 -0.11804533704E+00  0.44084413636E-01  0.12948223377E+00  0.20385877326E-01 0.  0.
         14    1    1    2    0    0 -0.22499072526E-01 -0.76251447324E-02  0.45585218417E-02  0.24189485693E-01  0.00000000000E+00 0. -1.
     999901    1    3    3    0    0  0.77517448886E-03  0.12567048177E+00 -0.48642935478E-01  0.89025828053E+00  0.88000000000E+00 0. -1.
        -11    1    4    4    0    0  0.14083109923E-01 -0.28476728876E-01  0.13564586375E-01  0.34547318233E-01  0.51100000000E-03 0.  1.
         11    1    4    4    0    0  0.76407881138E-02 -0.89568608166E-01  0.30519827261E-01  0.94934915541E-01  0.51100000000E-03 0. -1.
</event>
<event>
 8    1  0.1109294E+005  0.1043930E+01  0.7957747E-01            NaN
         13   -1    0    0    0    0  0.00000000000E+00  0.00000000000E+00  0.74505805969E-08  0.10566000000E+00  0.10566000000E+00 0. -1.
     999900   -1    0    0    0    0 -0.00000000000E+00 -0.00000000000E+00 -0.74505805969E-08  0.93827000000E+00  0.93827000000E+00 0. -1.
     999902    2    1    2    0    0  0.31967692824E-02  0.11369793256E-01 -0.19842423800E-01  0.10208385879E+01  0.10205773901E+01 0.  0.
     999903    2    3    3    0    0 -0.24752603535E-01 -0.89447876135E-01 -0.91653631682E-01  0.13173667048E+00  0.18453948692E-01 0.  0.
         14    1    1    2    0    0 -0.31967692824E-02 -0.11369793256E-01  0.19842423800E-01  0.23091412143E-01  0.00000000000E+00 0. -1.
     999901    1    3    3    0    0  0.27949372817E-01  0.10081766939E+00  0.71811207882E-01  0.88910191737E+00  0.88000000000E+00 0.  1.
        -11    1    4    4    0    0  0.17830078314E-02 -0.80701272038E-02 -0.39095655786E-02  0.91570679819E-02  0.51100000000E-03 0.  1.
         11    1    4    4    0    0 -0.26535611366E-01 -0.81377748931E-01 -0.87744066103E-01  0.12257960250E+00  0.51100000000E-03 0. -1.
</event>
<event>
 8    1  0.1109294E+005  0.1043930E+01  0.7957747E-01            NaN
         13   -1    0    0    0    0  0.00000000000E+00  0.00000000000E+00  0.74505805969E-08  0.10566000000E+00  0.10566000000E+00 0. -1.
     999900   -1    0    0    0    0 -0.00000000000E+00 -0.00000000000E+00 -0.74505805969E-08  0.93827000000E+00  0.93827000000E+00 0.  1.
     999902    2    1    2    0    0 -0.17501461463E-01 -0.51721023771E-02 -0.19997264860E-01  0.10168570911E+01  0.10164966312E+01 0.  0.
     999903    2    3    3    0    0  0.52556245305E-01  0.81789307003E-01 -0.80405753194E-01  0.12774542515E+00  0.20053898374E-01 0.  0.
         14    1    1    2    0    0  0.17501461463E-01  0.51721023771E-02  0.19997264860E-01  0.27072908935E-01  0.00000000000E+00 0. -1.
     999901    1    3    3    0    0 -0.70057706768E-01 -0.86961409380E-01  0.60408488334E-01  0.88911166591E+00  0.88000000000E+00 0. -1.
        -11    1    4    4    0    0  0.18030069959E-01  0.38393697281E-01 -0.24438797501E-01  0.48955851110E-01  0.51100000000E-03 0. -1.
         11    1    4    4    0    0  0.34526175347E-01  0.43395609722E-01 -0.55966955692E-01  0.78789574042E-01  0.51100000000E-03 0.  1.
</event>
<event>
 8    1  0.1109294E+005  0.1043930E+01  0.7957747E-01            NaN
         13   -1    0    0    0    0  0.00000000000E+00  0.00000000000E+00  0.74505805969E-08  0.10566000000E+00  0.10566000000E+00 0. -1.
     999900   -1    0    0    0    0 -0.00000000000E+00 -0.00000000000E+00 -0.74505805969E-08  0.93827000000E+00  0.93827000000E+00 0.  1.
     999902    2    1    2    0    0 -0.54877803095E-02 -0.21261386626E-01 -0.88060111078E-02  0.10202718486E+01  0.10199975181E+01 0.  0.
     999903    2    3    3    0    0 -0.11154366208E+00 -0.13500098779E-01 -0.66008274473E-01  0.13202628205E+00  0.21203906121E-01 0.  0.
         14    1    1    2    0    0  0.54877803095E-02  0.21261386626E-01  0.88060111078E-02  0.23658151356E-01  0.00000000000E+00 0. -1.
     999901    1    3    3    0    0  0.10605588177E+00 -0.77612878471E-02  0.57202263365E-01  0.88824556660E+00  0.88000000000E+00 0.  1.
        -11    1    4    4    0    0 -0.72740127130E-01 -0.65222453453E-02 -0.31155853075E-01  0.79401599991E-01  0.51100000000E-03 0. -1.
         11    1    4    4    0    0 -0.38803534949E-01 -0.69778534332E-02 -0.34852421398E-01  0.52624682055E-01  0.51100000000E-03 0.  1.
</event>
<event>
 8    1  0.1109294E+005  0.1043930E+01  0.7957747E-01            NaN
         13   -1    0    0    0    0  0.00000000000E+00  0.00000000000E+00  0.74505805969E-08  0.10566000000E+00  0.10566000000E+00 0. -1.
     999900   -1    0    0    0    0 -0.00000000000E+00 -0.00000000000E+00 -0.74505805969E-08  0.93827000000E+00  0.93827000000E+00 0. -1.
     999902    2    1    2    0    0  0.11966824450E-01  0.69093549315E-02 -0.19581074659E-01  0.10199641377E+01  0.10196825386E+01 0.  0.
     999903    2    3    3    0    0 -0.82628931549E-01  0.37463187093E-01  0.88055354181E-01  0.12785007851E+00  0.18996485454E-01 0.  0.
         14    1    1    2    0    0 -0.11966824450E-01 -0.69093549315E-02  0.19581074659E-01  0.23965862342E-01  0.00000000000E+00 0. -1.
     999901    1    3    3    0    0  0.94595755999E-01 -0.30553832161E-01 -0.10763642884E+00  0.89211405915E+00  0.88000000000E+00 0. -1.
        -11    1    4    4    0    0 -0.41031322926E-01  0.28411919477E-01  0.51769896717E-01  0.71910986340E-01  0.51100000000E-03 0.  1.
         11    1    4    4    0    0 -0.41597608624E-01  0.90512676160E-02  0.36285457464E-01  0.55939092172E-01  0.51100000000E-03 0. -1.
</event>
<event>
 8    1  0.1109294E+005  0.1043930E+01  0.7957747E-01            NaN
         13   -1    0    0    0    0  0.00000000000E+00  0.00000000000E+00  0.74505805969E-08  0.10566000000E+00  0.10566000000E+00 0. -1.
     999900   -1    0    0    0    0 -0.00000000000E+00 -0.00000000000E+00 -0.74505805969E-08  0.93827000000E+00  0.93827000000E+00 0. -1.
     999902    2    1    2    0    0 -0.64085907602E-02  0.18338306087E-01  0.49936148856E-02  0.10238725900E+01  0.10236761113E+01 0.  0.
     999903    2    3    3    0    0 -0.67435814728E-01  0.98738780127E-01  0.62174179117E-01  0.13625883662E+00  0.20097417723E-01 0.  0.
         14    1    1    2    0    0  0.64085907602E-02 -0.18338306087E-01 -0.49936148856E-02  0.20057409985E-01  0.00000000000E+00 0.  1.
     999901    1    3    3    0    0  0.61027223967E-01 -0.80400474041E-01 -0.57180564231E-01  0.88761375340E+00  0.88000000000E+00 0.  1.
        -11    1    4    4    0    0 -0.26892551979E-01  0.24489818347E-01  0.22937867765E-01  0.43004272499E-01  0.51100000000E-03 0. -1.
         11    1    4    4    0    0 -0.40543262749E-01  0.74248961781E-01  0.39236311353E-01  0.93254564121E-01  0.51100000000E-03 0.  1.
</event>
<event>
 8    1  0.1109294E+005  0.1043930E+01  0.7957747E-01            NaN
         13   -1    0    0    0    0  0.00000000000E+00  0.00000000000E+00  0.74505805969E-08  0.10566000000E+00  0.10566000000E+00 0. -1.
     999900   -1    0    0    0    0 -0.00000000000E+00 -0.00000000000E+00 -0.74505805969E-08  0.93827000000E+00  0.93827000000E+00 0.  1.
     999902    2    1    2    0    0 -0.22588110349E-01  0.43097302765E-02 -0.72762217016E-02  0.10198107151E+01  0.10195254556E+01 0.  0.
     999903    2    3    3    0    0  0.22128813432E-01  0.10342667784E+00 -0.73880648441E-01  0.13062011556E+00  0.20408387994E-01 0.  0.
         14    1    1    2    0    0  0.22588110349E-01 -0.43097302765E-02  0.72762217016E-02  0.24119284949E-01  0.00000000000E+00 0. -1.
     999901    1    3    3    0    0 -0.44716923781E-01 -0.99116947567E-01  0.66604426739E-01  0.88919059949E+00  0.88000000000E+00 0. -1.
        -11    1    4    4    0    0  0.24864074755E-01  0.86891336467E-01 -0.57150629271E-01  0.10693354064E+00  0.51100000000E-03 0. -1.
         11    1    4    4    0    0 -0.27352613236E-02  0.16535341376E-01 -0.16730019170E-01  0.23686574918E-01  0.51100000000E-03 0.  1.
</event>
<event>
 8    1  0.1109294E+005  0.1043930E+01  0.7957747E-01            NaN
         13   -1    0    0    0    0  0.00000000000E+00  0.00000000000E+00  0.74505805969E-08  0.10566000000E+00  0.10566000000E+00 0. -1.
     999900   -1    0    0    0    0 -0.00000000000E+00 -0.00000000000E+00 -0.74505805969E-08  0.93827000000E+00  0.93827000000E+00 0.  1.
     999902    2    1    2    0    0 -0.16144141632E-01  0.15034840076E-01 -0.55664524727E-02  0.10211777448E+01  0.10209242486E+01 0.  0.
     999903    2    3    3    0    0 -0.12035150901E+00  0.29027624353E-02 -0.54415412513E-01  0.13360094041E+00  0.19881207436E-01 0.  0.
         14    1    1    2    0    0  0.16144141632E-01 -0.15034840076E-01  0.55664524727E-02  0.22752255235E-01  0.00000000000E+00 0.  1.
     999901    1    3    3    0    0  0.10420736738E+00  0.12132077641E-01  0.48848960040E-01  0.88757680435E+00  0.88000000000E+00 0. -1.
        -11    1    4    4    0    0 -0.62166431279E-01 -0.75941987956E-02 -0.32343223779E-01  0.70488880532E-01  0.51100000000E-03 0. -1.
         11    1    4    4    0    0 -0.58185077734E-01  0.10496961231E-01 -0.22072188734E-01  0.63112059881E-01  0.51100000000E-03 0.  1.
</event>
<event>
 7    1  0.1109294E+005  0.1043930E+01  0.7957747E-01            NaN
         13   -1    0    0    0    0  0.00000000000E+00  0.00000000000E+00  0.74505805969E-08  0.10566000000E+00  0.10566000000E+00 0.  1.
     999900   -1    0    0    0    0 -0.00000000000E+00 -0.00000000000E+00 -0.74505805969E-08  0.93827000000E+00  0.93827000000E+00 0.  1.
     999903    2    1    2    0    0 -0.24181175951E-01  0.10367682594E+00  0.49802067503E-01  0.11913937692E+00  0.19502094695E-01 0.  0.
         14    1    1    2    0    0 -0.22215034585E-01 -0.85454023226E-02 -0.29910419624E-01  0.38225186259E-01  0.00000000000E+00 0.  1.
     999901    1    1    2    0    0  0.46396210537E-01 -0.95131423618E-01 -0.19891647879E-01  0.88656543682E+00  0.88000000000E+00 0.  1.
        -11    1    3    3    0    0 -0.19334224870E-01  0.40669844610E-01  0.21003798546E-01  0.49691741630E-01  0.51100000000E-03 0.  1.
         11    1    3    3    0    0 -0.48469510813E-02  0.63006981331E-01  0.28798268957E-01  0.69447635289E-01  0.51100000000E-03 0. -1.
</event>
<event>
 8    1  0.1109294E+005  0.1043930E+01  0.7957747E-01            NaN
         13   -1    0    0    0    0  0.00000000000E+00  0.00000000000E+00  0.74505805969E-08  0.10566000000E+00  0.10566000000E+00 0.  1.
     999900   -1    0    0    0    0 -0.00000000000E+00 -0.00000000000E+00 -0.74505805969E-08  0.93827000000E+00  0.93827000000E+00 0.  1.
     999902    2    1    2    0    0  0.11274355202E-01 -0.13134216304E-01 -0.15184922941E-01  0.10209039146E+01  0.10206442094E+01 0.  0.
     999903    2    3    3    0    0 -0.27512223513E-01 -0.93235399889E-02 -0.12807526825E+00  0.13283682819E+00  0.19962408284E-01 0.  0.
         14    1    1    2    0    0 -0.11274355202E-01  0.13134216304E-01  0.15184922941E-01  0.23026085379E-01  0.00000000000E+00 0.  1.
     999901    1    3    3    0    0  0.38786578715E-01 -0.38106763148E-02  0.11289034531E+00  0.88806708643E+00  0.88000000000E+00 0. -1.
        -11    1    4    4    0    0 -0.29655464841E-02 -0.27195404071E-02 -0.60517564985E-01  0.60653335923E-01  0.51100000000E-03 0. -1.
         11    1    4    4    0    0 -0.24546677029E-01 -0.66039995818E-02 -0.67557703268E-01  0.72183492264E-01  0.51100000000E-03 0.  1.
</event>
<event>
 8    1  0.1109294E+005  0.1043930E+01  0.7957747E-01            NaN
         13   -1    0    0    0    0  0.00000000000E+00  0.00000000000E+00  0.74505805969E-08  0.10566000000E+00  0.10566000000E+00 0. -1.
     999900   -1    0    0    0    0 -0.00000000000E+00 -0.00000000000E+00 -0.74505805969E-08  0.93827000000E+00  0.93827000000E+00 0. -1.
     999902    2    1    2    0    0 -0.12468272034E-01 -0.33445345210E-03  0.19765306910E-01  0.10205582858E+01  0.10202906339E+01 0.  0.
     999903    2    3    3    0    0 -0.12858908300E+00 -0.21186587544E-01  0.14725538953E-01  0.13267076282E+00  0.20016644328E-01 0.  0.
         14    1    1    2    0    0  0.12468272034E-01  0.33445345210E-03 -0.19765306910E-01  0.23371714183E-01  0.00000000000E+00 0.  1.
     999901    1    3    3    0    0  0.11612081097E+00  0.20852134092E-01  0.50397679573E-02  0.88788752300E+00  0.88000000000E+00 0.  1.
        -11    1    4    4    0    0 -0.51203520033E-01 -0.18331784466E-01  0.72839598610E-02  0.54874146716E-01  0.51100000000E-03 0.  1.
         11    1    4    4    0    0 -0.77385562968E-01 -0.28548030781E-02  0.74415790919E-02  0.77796616102E-01  0.51100000000E-03 0. -1.
</event>
<event>
 8    1  0.1109294E+005  0.1043930E+01  0.7957747E-01            NaN
         13   -1    0    0    0    0  0.00000000000E+00  0.00000000000E+00  0.74505805969E-08  0.10566000000E+00  0.10566000000E+00 0.  1.
     999900   -1    0    0    0    0 -0.00000000000E+00 -0.00000000000E+00 -0.74505805969E-08  0.93827000000E+00  0.93827000000E+00 0.  1.
     999902    2    1    2    0    0  0.22552714959E-01 -0.61110792825E-02 -0.11876665460E-02  0.10205338295E+01  0.10202656107E+01 0.  0.
     999903    2    3    3    0    0 -0.72186046175E-03 -0.12960338637E+00  0.92247451042E-02  0.13154537396E+00  0.20531211561E-01 0.  0.
         14    1    1    2    0    0 -0.22552714959E-01  0.61110792825E-02  0.11876665460E-02  0.23396170495E-01  0.00000000000E+00 0. -1.
     999901    1    3    3    0    0  0.23274575421E-01  0.12349230709E+00 -0.10412411650E-01  0.88898845554E+00  0.88000000000E+00 0.  1.
        -11    1    4    4    0    0  0.51240282221E-02 -0.75955834373E-01  0.13850866558E-01  0.77379920302E-01  0.51100000000E-03 0.  1.
         11    1    4    4    0    0 -0.58458886838E-02 -0.53647551995E-01 -0.46261214542E-02  0.54165453660E-01  0.51100000000E-03 0. -1.
</event>
<event>
 8    1  0.1109294E+005  0.1043930E+01  0.7957747E-01            NaN
         13   -1    0    0    0    0  0.00000000000E+00  0.00000000000E+00  0.74505805969E-08  0.10566000000E+00  0.10566000000E+00 0. -1.
     999900   -1    0    0    0    0 -0.00000000000E+00 -0.00000000000E+00 -0.74505805969E-08  0.93827000000E+00  0.93827000000E+00 0.  1.
     999902    2    1    2    0    0 -0.85213676291E-02 -0.19346642479E-01  0.10772973416E-01  0.10202031537E+01  0.10199272089E+01 0.  0.
     999903    2    3    3    0    0 -0.43789969350E-01  0.11169861491E+00 -0.41538293468E-01  0.12826526209E+00  0.18231995158E-01 0.  0.
         14    1    1    2    0    0  0.85213676291E-02  0.19346642479E-01 -0.10772973416E-01  0.23726846350E-01  0.00000000000E+00 0. -1.
     999901    1    3    3    0    0  0.35268601721E-01 -0.13104525739E+00  0.52311266885E-01  0.89193789156E+00  0.88000000000E+00 0.  1.
        -11    1    4    4    0    0 -0.24057103335E-01  0.39668568726E-01 -0.11772521812E-01  0.47866407390E-01  0.51100000000E-03 0. -1.
         11    1    4    4    0    0 -0.19732866015E-01  0.72030046183E-01 -0.29765771657E-01  0.80398854704E-01  0.51100000000E-03 0.  1.
</event>
<event>
 8    1  0.1109294E+005  0.1043930E+01  0.7957747E-01            NaN
         13   -1    0    0    0    0  0.00000000000E+00  0.00000000000E+00  0.74505805969E-08  0.10566000000E+00  0.10566000000E+00 0.  1.
     999900   -1    0    0    0    0 -0.00000000000E+00 -0.00000000000E+00 -0.74505805969E-08  0.93827000000E+00  0.93827000000E+00 0.  1.
     999902    2    1    2    0    0  0.71091906499E-02  0.16025402454E-01  0.14640933298E-01  0.10210890052E+01  0.10208335053E+01 0.  0.
     999903    2    3    3    0    0 -0.10283292876E+00 -0.22510677333E-01 -0.72218431548E-01  0.12917149314E+00  0.19708651703E-01 0.  0.
         14    1    1    2    0    0 -0.71091906499E-02 -0.16025402454E-01 -0.14640933298E-01  0.22840994797E-01  0.00000000000E+00 0. -1.
     999901    1    3    3    0    0  0.10994211941E+00  0.38536079787E-01  0.86859364846E-01  0.89191751206E+00  0.88000000000E+00 0.  1.
        -11    1    4    4    0    0 -0.51386034806E-01 -0.36263597149E-02 -0.42760286507E-01  0.66950565950E-01  0.51100000000E-03 0.  1.
         11    1    4    4    0    0 -0.51446893958E-01 -0.18884317618E-01 -0.29458145041E-01  0.62220927187E-01  0.51100000000E-03 0. -1.
</event>
<event>
 8    1  0.1109294E+005  0.1043930E+01  0.7957747E-01            NaN
         13   -1    0    0    0    0  0.00000000000E+00  0.00000000000E+00  0.74505805969E-08  0.10566000000E+00  0.10566000000E+00 0.  1.
     999900   -1    0    0    0    0 -0.00000000000E+00 -0.00000000000E+00 -0.74505805969E-08  0.93827000000E+00  0.93827000000E+00 0.  1.
     999902    2    1    2    0    0  0.34216992934E-02 -0.22306088947E-01  0.10455729685E-01  0.10190584919E+01  0.10187549352E+01 0.  0.
     999903    2    3    3    0    0 -0.10199235779E+00  0.34490927037E-01  0.68439323760E-01  0.12905842360E+00  0.19495398703E-01 0.  0.
         14    1    1    2    0    0 -0.34216992934E-02  0.22306088947E-01 -0.10455729685E-01  0.24871508065E-01  0.00000000000E+00 0. -1.
     999901    1    3    3    0    0  0.10541405708E+00 -0.56797015984E-01 -0.57983594075E-01  0.89000006834E+00  0.88000000000E+00 0.  1.
        -11    1    4    4    0    0 -0.52172369665E-01  0.27629258180E-01  0.34411165582E-01  0.68335360551E-01  0.51100000000E-03 0.  1.
         11    1    4    4    0    0 -0.49819988123E-01  0.68616688572E-02  0.34028158178E-01  0.60723063049E-01  0.51100000000E-03 0. -1.
</event>
<event>
 8    1  0.1109294E+005  0.1043930E+01  0.7957747E-01            NaN
         13   -1    0    0    0    0  0.00000000000E+00  0.00000000000E+00  0.74505805969E-08  0.10566000000E+00  0.10566000000E+00 0.  1.
     999900   -1    0    0    0    0 -0.00000000000E+00 -0.00000000000E+00 -0.74505805969E-08  0.93827000000E+00  0.93827000000E+00 0.  1.
     999902    2    1    2    0    0  0.20536405266E-02  0.17744971259E-01  0.15506821938E-01  0.10202749166E+01  0.10200006581E+01 0.  0.
     999903    2    3    3    0    0  0.52153394465E-01 -0.11008251454E+00  0.39442351299E-01  0.12930759899E+00  0.18072617959E-01 0.  0.
         14    1    1    2    0    0 -0.20536405266E-02 -0.17744971259E-01 -0.15506821938E-01  0.23655083407E-01  0.00000000000E+00 0. -1.
     999901    1    3    3    0    0 -0.50099753938E-01  0.12782748580E+00 -0.23935529362E-01  0.89096731760E+00  0.88000000000E+00 0.  1.
        -11    1    4    4    0    0  0.55158669533E-02 -0.12123274810E-01 -0.13490076152E-02  0.13396996787E-01  0.51100000000E-03 0.  1.
         11    1    4    4    0    0  0.46637527511E-01 -0.97959239726E-01  0.40791358915E-01  0.11591060220E+00  0.51100000000E-03 0. -1.
</event>
<event>
 8    1  0.1109294E+005  0.1043930E+01  0.7957747E-01            NaN
         13   -1    0    0    0    0  0.00000000000E+00  0.00000000000E+00  0.74505805969E-08  0.10566000000E+00  0.10566000000E+00 0. -1.
     999900   -1    0    0    0    0 -0.00000000000E+00 -0.00000000000E+00 -0.74505805969E-08  0.93827000000E+00  0.93827000000E+00 0.  1.
     999902    2    1    2    0    0 -0.10589887064E-01  0.71164812612E-02 -0.16371798635E-01  0.10231736563E+01  0.10229631006E+01 0.  0.
     999903    2    3    3    0    0 -0.37776949349E-01 -0.94827187318E-01  0.80516858632E-01  0.13159132144E+00  0.20347432190E-01 0.  0.
         14    1    1    2    0    0  0.10589887064E-01 -0.71164812612E-02  0.16371798635E-01  0.20756343708E-01  0.00000000000E+00 0. -1.
     999901    1    3    3    0    0  0.27187062285E-01  0.10194366858E+00 -0.96888657267E-01  0.89158233486E+00  0.88000000000E+00 0. -1.
        -11    1    4    4    0    0 -0.13697421485E-01 -0.29194111134E-01  0.37683267191E-01  0.49600455919E-01  0.51100000000E-03 0. -1.
         11    1    4    4    0    0 -0.24079527864E-01 -0.65633076184E-01  0.42833591442E-01  0.81990865518E-01  0.51100000000E-03 0.  1.
</event>
<event>
 8    1  0.1109294E+005  0.1043930E+01  0.7957747E-01            NaN
         13   -1    0    0    0    0  0.00000000000E+00  0.00000000000E+00  0.74505805969E-08  0.10566000000E+00  0.10566000000E+00 0. -1.
     999900   -1    0    0    0    0 -0.00000000000E+00 -0.00000000000E+00 -0.74505805969E-08  0.93827000000E+00  0.93827000000E+00 0.  1.
     999902    2    1    2    0    0  0.17532856395E-01  0.11133511154E-01  0.11373644584E-01  0.10202505592E+01  0.10199757290E+01 0.  0.
     999903    2    3    3    0    0  0.21827842041E-01  0.63239179748E-01  0.11299443582E+00  0.13286099832E+00  0.20215187473E-01 0.  0.
         14    1    1    2    0    0 -0.17532856395E-01 -0.11133511154E-01 -0.11373644584E-01  0.23679440769E-01  0.00000000000E+00 0.  1.
     999901    1    3    3    0    0 -0.42949856453E-02 -0.52105668594E-01 -0.10162079124E+00  0.88738956091E+00  0.88000000000E+00 0.  1.
        -11    1    4    4    0    0  0.13039016261E-01  0.17668913089E-01  0.50026427972E-01  0.54636169809E-01  0.51100000000E-03 0.  1.
         11    1    4    4    0    0  0.87888257799E-02  0.45570266659E-01  0.62968007850E-01  0.78224828511E-01  0.51100000000E-03 0. -1.
</event>
<event>
 8    1  0.1109294E+005  0.1043930E+01  0.7957747E-01            NaN
         13   -1    0    0    0    0  0.00000000000E+00  0.00000000000E+00  0.74505805969E-08  0.10566000000E+00  0.10566000000E+00 0. -1.
     999900   -1    0    0    0    0 -0.00000000000E+00 -0.00000000000E+00 -0.74505805969E-08  0.93827000000E+00  0.93827000000E+00 0. -1.
     999902    2    1    2    0    0  0.39308725659E-03  0.17851236796E-02 -0.23298670846E-01  0.10205597358E+01  0.10202921176E+01 0.  0.
     999903    2    3    3    0    0 -0.50984036321E-01  0.71350426989E-01 -0.98270791041E-01  0.13314790412E+00  0.19518212238E-01 0.  0.
         14    1    1    2    0    0 -0.39308725659E-03 -0.17851236796E-02  0.23298670846E-01  0.23370264169E-01  0.00000000000E+00 0. -1.
     999901    1    3    3    0    0  0.51377123577E-01 -0.69565303310E-01  0.74972120195E-01  0.88741183171E+00  0.88000000000E+00 0.  1.
        -11    1    4    4    0    0 -0.19190294045E-01  0.39133134745E-01 -0.38396823298E-01  0.58088267153E-01  0.51100000000E-03 0. -1.
         11    1    4    4    0    0 -0.31793742276E-01  0.32217292244E-01 -0.59873967743E-01  0.75059636968E-01  0.51100000000E-03 0.  1.
</event>
<event>
 8    1  0.1109294E+005  0.1043930E+01  0.7957747E-01            NaN
         13   -1    0    0    0    0  0.00000000000E+00  0.00000000000E+00  0.74505805969E-08  0.10566000000E+00  0.10566000000E+00 0.  1.
     999900   -1    0    0    0    0 -0.00000000000E+00 -0.00000000000E+00 -0.74505805969E-08  0.93827000000E+00  0.93827000000E+00 0.  1.
     999902    2    1    2    0    0 -0.23568271945E-01 -0.20420971156E-02 -0.21984405114E-02  0.10201714911E+01  0.10198948007E+01 0.  0.
     999903    2    3    3    0    0  0.22889451923E-01 -0.56181840988E-01  0.11310108299E+00  0.12978763453E+00  0.19304114504E-01 0.  0.
         14    1    1    2    0    0  0.23568271945E-01  0.20420971156E-02  0.21984405114E-02  0.23758508871E-01  0.00000000000E+00 0.  1.
     999901    1    3    3    0    0 -0.46457723868E-01  0.54139743872E-01 -0.11529952350E+00  0.89038385660E+00  0.88000000000E+00 0.  1.
        -11    1    4    4    0    0  0.22984040811E-01 -0.43616315055E-01  0.10071676666E+00  0.11213731439E+00  0.51100000000E-03 0. -1.
         11    1    4    4    0    0 -0.94588887877E-04 -0.12565525933E-01  0.12384316327E-01  0.17650320136E-01  0.51100000000E-03 0.  1.
</event>
<event>
 8    1  0.1109294E+005  0.1043930E+01  0.7957747E-01            NaN
         13   -1    0    0    0    0  0.00000000000E+00  0.00000000000E+00  0.74505805969E-08  0.10566000000E+00  0.10566000000E+00 0.  1.
     999900   -1    0    0    0    0 -0.00000000000E+00 -0.00000000000E+00 -0.74505805969E-08  0.93827000000E+00  0.93827000000E+00 0.  1.
     999902    2    1    2    0    0  0.17193221886E-01  0.85438878865E-02  0.10790891404E-01  0.10219061893E+01  0.10216688365E+01 0.  0.
     999903    2    3    3    0    0 -0.12420130863E+00 -0.15425527810E-02 -0.32162041139E-01  0.12952784807E+00  0.17740405837E-01 0.  0.
         14    1    1    2    0    0 -0.17193221886E-01 -0.85438878865E-02 -0.10790891404E-01  0.22023810668E-01  0.00000000000E+00 0. -1.
     999901    1    3    3    0    0  0.14139453052E+00  0.10086440668E-01  0.42952932543E-01  0.89237834127E+00  0.88000000000E+00 0.  1.
        -11    1    4    4    0    0 -0.42140930290E-01 -0.12617972455E-02 -0.23861771886E-02  0.42230381251E-01  0.51100000000E-03 0.  1.
         11    1    4    4    0    0 -0.82060378343E-01 -0.28075553557E-03 -0.29775863950E-01  0.87297466816E-01  0.51100000000E-03 0. -1.
</event>
<event>
 8    1  0.1109294E+005  0.1043930E+01  0.7957747E-01            NaN
         13   -1    0    0    0    0  0.00000000000E+00  0.00000000000E+00  0.74505805969E-08  0.10566000000E+00  0.10566000000E+00 0.  1.
     999900   -1    0    0    0    0 -0.00000000000E+00 -0.00000000000E+00 -0.74505805969E-08  0.93827000000E+00  0.93827000000E+00 0. -1.
     999902    2    1    2    0    0 -0.13029557198E-01  0.20164370116E-01 -0.40105534232E-02  0.10195895867E+01  0.10192990089E+01 0.  0.
     999903    2    3    3    0    0 -0.12040406984E+00 -0.36311807141E-01  0.30503816754E-01  0.13059572486E+00  0.17580476183E-01 0.  0.
         14    1    1    2    0    0  0.13029557198E-01 -0.20164370116E-01  0.40105534232E-02  0.24340413343E-01  0.00000000000E+00 0.  1.
     999901    1    3    3    0    0  0.10737451264E+00  0.56476177257E-01 -0.34514370178E-01  0.88899386180E+00  0.88000000000E+00 0. -1.
        -11    1    4    4    0    0 -0.57836530067E-01 -0.94139383428E-02  0.18412880130E-01  0.61424601920E-01  0.51100000000E-03 0. -1.
         11    1    4    4    0    0 -0.62567539775E-01 -0.26897868799E-01  0.12090936624E-01  0.69171122940E-01  0.51100000000E-03 0.  1.
</event>
<event>
 8    1  0.1109294E+005  0.1043930E+01  0.7957747E-01            NaN
         13   -1    0    0    0    0  0.00000000000E+00  0.00000000000E+00  0.74505805969E-08  0.10566000000E+00  0.10566000000E+00 0.  1.
     999900   -1    0    0    0    0 -0.00000000000E+00 -0.00000000000E+00 -0.74505805969E-08  0.93827000000E+00  0.93827000000E+00 0. -1.
     999902    2    1    2    0    0 -0.33676970055E-02  0.10046189930E-01 -0.25291780975E-01  0.10165084483E+01  0.10161385161E+01 0.  0.
     999903    2    3    3    0    0 -0.35228628107E-01  0.10476532121E+00  0.58645550578E-01  0.12688363498E+00  0.21055342725E-01 0.  0.
         14    1    1    2    0    0  0.33676970055E-02 -0.10046189930E-01  0.25291780975E-01  0.27421551746E-01  0.00000000000E+00 0.  1.
     999901    1    3    3    0    0  0.31860931102E-01 -0.94719131279E-01 -0.83937331553E-01  0.88962481327E+00  0.88000000000E+00 0. -1.
        -11    1    4    4    0    0 -0.22967890220E-01  0.84225448993E-01  0.37739218453E-01  0.95110251654E-01  0.51100000000E-03 0. -1.
         11    1    4    4    0    0 -0.12260737888E-01  0.20539872217E-01  0.20906332125E-01  0.31773383329E-01  0.51100000000E-03 0.  1.
</event>
<event>
 8    1  0.1109294E+005  0.1043930E+01  0.7957747E-01            NaN
         13   -1    0    0    0    0  0.00000000000E+00  0.00000000000E+00  0.74505805969E-08  0.10566000000E+00  0.10566000000E+00 0.  1.
     999900   -1    0    0    0    0 -0.00000000000E+00 -0.00000000000E+00 -0.74505805969E-08  0.93827000000E+00  0.93827000000E+00 0. -1.
     999902    2    1    2    0    0 -0.16461108845E-01 -0.16529071490E-01 -0.21922720993E-02  0.10204995846E+01  0.10202305709E+01 0.  0.
     999903    2    3    3    0    0 -0.90714613524E-01  0.71752468280E-01 -0.58622239007E-01  0.13117874577E+00  0.19842848178E-01 0.  0.
         14    1    1    2    0    0  0.16461108845E-01  0.16529071490E-01  0.21922720993E-02  0.23430415397E-01  0.00000000000E+00 0. -1.
     999901    1    3    3    0    0  0.74253504680E-01 -0.88281539770E-01  0.56429966908E-01  0.88932083884E+00  0.88000000000E+00 0.  1.
        -11    1    4    4    0    0 -0.40616176429E-01  0.42042967863E-01 -0.22502363250E-01  0.62641060075E-01  0.51100000000E-03 0. -1.
         11    1    4    4    0    0 -0.50098437095E-01  0.29709500416E-01 -0.36119875757E-01  0.68537685693E-01  0.51100000000E-03 0.  1.
</event>
<event>
 8    1  0.1109294E+005  0.1043930E+01  0.7957747E-01            NaN
         13   -1    0    0    0    0  0.00000000000E+00  0.00000000000E+00  0.74505805969E-08  0.10566000000E+00  0.10566000000E+00 0. -1.
     999900   -1    0    0    0    0 -0.00000000000E+00 -0.00000000000E+00 -0.74505805969E-08  0.93827000000E+00  0.93827000000E+00 0.  1.
     999902    2    1    2    0    0 -0.17707691963E-01 -0.12813785139E-01  0.85692212366E-02  0.10204526280E+01  0.10201825224E+01 0.  0.
     999903    2    3    3    0    0  0.89110470969E-01  0.78151404920E-01 -0.43816784862E-01  0.12779979548E+00  0.19093427210E-01 0.  0.
         14    1    1    2    0    0  0.17707691963E-01  0.12813785139E-01 -0.85692212366E-02  0.23477372017E-01  0.00000000000E+00 0.  1.
     999901    1    3    3    0    0 -0.10681816293E+00 -0.90965190059E-01  0.52386006099E-01  0.89265283250E+00  0.88000000000E+00 0. -1.
        -11    1    4    4    0    0  0.51765736793E-01  0.39225361071E-01 -0.15082873918E-01  0.66678892189E-01  0.51100000000E-03 0.  1.
         11    1    4    4    0    0  0.37344734176E-01  0.38926043849E-01 -0.28733910944E-01  0.61120903294E-01  0.51100000000E-03 0. -1.
</event>
<event>
 8    1  0.1109294E+005  0.1043930E+01  0.7957747E-01            NaN
         13   -1    0    0    0    0  0.00000000000E+00  0.00000000000E+00  0.74505805969E-08  0.10566000000E+00  0.10566000000E+00 0. -1.
     999900   -1    0    0    0    0 -0.00000000000E+00 -0.00000000000E+00 -0.74505805969E-08  0.93827000000E+00  0.93827000000E+00 0. -1.
     999902    2    1    2    0    0 -0.22372078589E-01  0.91433526293E-02 -0.83641492796E-03  0.10197471468E+01  0.10194603637E+01 0.  0.
     999903    2    3    3    0    0 -0.61965748077E-03 -0.11595813910E+00  0.52724362846E-01  0.12902142699E+00  0.20493808505E-01 0.  0.
         14    1    1    2    0    0  0.22372078589E-01 -0.91433526293E-02  0.83641492796E-03  0.24182853174E-01  0.00000000000E+00 0.  1.
     999901    1    3    3    0    0 -0.21752421108E-01  0.12510149173E+00 -0.53560777774E-01  0.89072571983E+00  0.88000000000E+00 0.  1.
        -11    1    4    4    0    0  0.74043728373E-02 -0.43235817685E-01  0.26757635348E-01  0.51384752976E-01  0.51100000000E-03 0.  1.
         11    1    4    4    0    0 -0.80240303180E-02 -0.72722321415E-01  0.25966727498E-01  0.77636674017E-01  0.51100000000E-03 0. -1.
</event>
<event>
 8    1  0.1109294E+005  0.1043930E+01  0.7957747E-01            NaN
         13   -1    0    0    0    0  0.00000000000E+00  0.00000000000E+00  0.74505805969E-08  0.10566000000E+00  0.10566000000E+00 0.  1.
     999900   -1    0    0    0    0 -0.00000000000E+00 -0.00000000000E+00 -0.74505805969E-08  0.93827000000E+00  0.93827000000E+00 0. -1.
     999902    2    1    2    0    0  0.10836964590E-01  0.19243448785E-01 -0.31349497443E-02  0.10216235428E+01  0.10213799906E+01 0.  0.
     999903    2    3    3    0    0 -0.29447992972E-01  0.37291275581E-01  0.12128127777E+00  0.13177636518E+00  0.19950903686E-01 0.  0.
         14    1    1    2    0    0 -0.10836964590E-01 -0.19243448785E-01  0.31349497443E-02  0.22306457194E-01  0.00000000000E+00 0. -1.
     999901    1    3    3    0    0  0.40284957562E-01 -0.18047826796E-01 -0.12441622752E+00  0.88984717762E+00  0.88000000000E+00 0. -1.
        -11    1    4    4    0    0 -0.15883996806E-01  0.54891047030E-02  0.44413694533E-01  0.47489672646E-01  0.51100000000E-03 0.  1.
         11    1    4    4    0    0 -0.13563996166E-01  0.31802170878E-01  0.76867583239E-01  0.84286692535E-01  0.51100000000E-03 0. -1.
</event>
<event>
 8    1  0.1109294E+005  0.1043930E+01  0.7957747E-01            NaN
         13   -1    0    0    0    0  0.00000000000E+00  0.00000000000E+00  0.74505805969E-08  0.10566000000E+00  0.10566000000E+00 0.  1.
     999900   -1    0    0    0    0 -0.00000000000E+00 -0.00000000000E+00 -0.74505805969E-08  0.93827000000E+00  0.93827000000E+00 0. -1.
     999902    2    1    2    0    0  0.16900580670E-01 -0.13673927815E-01 -0.14698318927E-01  0.10176879249E+01  0.10173495298E+01 0.  0.
     999903    2    3    3    0    0 -0.10266587293E+00 -0.32168513054E-01  0.62497850362E-01  0.12606163819E+00  0.20259827914E-01 0.  0.
         14    1    1    2    0    0 -0.16900580670E-01  0.13673927815E-01  0.14698318927E-01  0.26242075149E-01  0.00000000000E+00 0. -1.
     999901    1    3    3    0    0  0.11956645360E+00  0.18494585239E-01 -0.77196169289E-01  0.89162628666E+00  0.88000000000E+00 0. -1.
        -11    1    4    4    0    0 -0.56075401527E-01 -0.27409050473E-01  0.31688281052E-01  0.70000821290E-01  0.51100000000E-03 0.  1.
         11    1    4    4    0    0 -0.46590471403E-01 -0.47594625810E-02  0.30809569309E-01  0.56060816901E-01  0.51100000000E-03 0. -1.
</event>
<event>
 8    1  0.1109294E+005  0.1043930E+01  0.7957747E-01            NaN
         13   -1    0    0    0    0  0.00000000000E+00  0.00000000000E+00  0.74505805969E-08  0.10566000000E+00  0.10566000000E+00 0.  1.
     999900   -1    0    0    0    0 -0.00000000000E+00 -0.00000000000E+00 -0.74505805969E-08  0.93827000000E+00  0.93827000000E+00 0. -1.
     999902    2    1    2    0    0 -0.99521191891E-02  0.60046751036E-02  0.13672317643E-01  0.10259847201E+01  0.10258277696E+01 0.  0.
     999903    2    3    3    0    0 -0.41779066359E-01  0.12819180593E+00  0.13828028043E-01  0.13697253026E+00  0.19789648679E-01 0.  0.
         14    1    1    2    0    0  0.99521191891E-02 -0.60046751036E-02 -0.13672317643E-01  0.17945279858E-01  0.00000000000E+00 0. -1.
     999901    1    3    3    0    0  0.31826947170E-01 -0.12218713082E+00 -0.15571040030E-03  0.88901218988E+00  0.88000000000E+00 0. -1.
        -11    1    4    4    0    0 -0.19616868964E-01  0.86783075256E-01  0.45123998366E-02  0.89088419967E-01  0.51100000000E-03 0. -1.
         11    1    4    4    0    0 -0.22162197394E-01  0.41408730671E-01  0.93156282063E-02  0.47884110298E-01  0.51100000000E-03 0.  1.
</event>
<event>
 8    1  0.1109294E+005  0.1043930E+01  0.7957747E-01            NaN
         13   -1    0    0    0    0  0.00000000000E+00  0.00000000000E+00  0.74505805969E-08  0.10566000000E+00  0.10566000000E+00 0.  1.
     999900   -1    0    0    0    0 -0.00000000000E+00 -0.00000000000E+00 -0.74505805969E-08  0.93827000000E+00  0.93827000000E+00 0. -1.
     999902    2    1    2    0    0 -0.15790169216E-01  0.15059962305E-01 -0.58886625704E-02  0.10213289324E+01  0.10210788314E+01 0.  0.
     999903    2    3    3    0    0  0.88811872060E-01 -0.69995519630E-01  0.58149020323E-01  0.12876137371E+00  0.20279581065E-01 0.  0.
         14    1    1    2    0    0  0.15790169216E-01 -0.15059962305E-01  0.58886625704E-02  0.22601067571E-01  0.00000000000E+00 0.  1.
     999901    1    3    3    0    0 -0.10460204128E+00  0.85055481935E-01 -0.64037682893E-01  0.89256755872E+00  0.88000000000E+00 0. -1.
        -11    1    4    4    0    0  0.39472404142E-01 -0.18770883376E-01  0.20329861300E-01  0.48207687488E-01  0.51100000000E-03 0.  1.
         11    1    4    4    0    0  0.49339467918E-01 -0.51224636254E-01  0.37819159023E-01  0.80553686222E-01  0.51100000000E-03 0. -1.
</event>
<event>
 8    1  0.1109294E+005  0.1043930E+01  0.7957747E-01            NaN
         13   -1    0    0    0    0  0.00000000000E+00  0.00000000000E+00  0.74505805969E-08  0.10566000000E+00  0.10566000000E+00 0.  1.
     999900   -1    0    0    0    0 -0.00000000000E+00 -0.00000000000E+00 -0.74505805969E-08  0.93827000000E+00  0.93827000000E+00 0.  1.
     999902    2    1    2    0    0 -0.37932380191E-02  0.22979515658E-01  0.59693930658E-02  0.10198866964E+01  0.10196032528E+01 0.  0.
     999903    2    3    3    0    0  0.12366638961E+00 -0.18914934213E-01 -0.25227426121E-01  0.12917106100E+00  0.19939641812E-01 0.  0.
         14    1    1    2    0    0  0.37932380191E-02 -0.22979515658E-01 -0.59693930658E-02  0.24043303602E-01  0.00000000000E+00 0. -1.
     999901    1    3    3    0    0 -0.12745962763E+00  0.41894449871E-01  0.31196819187E-01  0.89071563539E+00  0.88000000000E+00 0.  1.
        -11    1    4    4    0    0  0.62146818721E-01  0.56174326841E-03 -0.12109154168E-01  0.63320102403E-01  0.51100000000E-03 0.  1.
         11    1    4    4    0    0  0.61519570894E-01 -0.19476677481E-01 -0.13118271953E-01  0.65850958601E-01  0.51100000000E-03 0. -1.
</event>
<event>
 8    1  0.1109294E+005  0.1043930E+01  0.7957747E-01            NaN
         13   -1    0    0    0    0  0.00000000000E+00  0.00000000000E+00  0.74505805969E-08  0.10566000000E+00  0.10566000000E+00 0. -1.
     999900   -1    0    0    0    0 -0.00000000000E+00 -0.00000000000E+00 -0.74505805969E-08  0.93827000000E+00  0.93827000000E+00 0.  1.
     999902    2    1    2    0    0 -0.14946577351E-01 -0.14012805046E-01 -0.12073626269E-01  0.10201490973E+01  0.10198718790E+01 0.  0.
     999903    2    3    3    0    0 -0.61647494812E-01 -0.61744348210E-01 -0.98889881042E-01  0.13335919100E+00  0.19816334153E-01 0.  0.
         14    1    1    2    0    0  0.14946577351E-01  0.14012805046E-01  0.12073626269E-01  0.23780902654E-01  0.00000000000E+00 0.  1.
     999901    1    3    3    0    0  0.46700917461E-01  0.47731543164E-01  0.86816254773E-01  0.88678990635E+00  0.88000000000E+00 0. -1.
        -11    1    4    4    0    0 -0.31706739120E-02 -0.12342012506E-01 -0.17108778898E-01  0.21338928795E-01  0.51100000000E-03 0. -1.
         11    1    4    4    0    0 -0.58476820900E-01 -0.49402335704E-01 -0.81781102144E-01  0.11202026220E+00  0.51100000000E-03 0.  1.
</event>
<event>
 8    1  0.1109294E+005  0.1043930E+01  0.7957747E-01            NaN
         13   -1    0    0    0    0  0.00000000000E+00  0.00000000000E+00  0.74505805969E-08  0.10566000000E+00  0.10566000000E+00 0.  1.
     999900   -1    0    0    0    0 -0.00000000000E+00 -0.00000000000E+00 -0.74505805969E-08  0.93827000000E+00  0.93827000000E+00 0. -1.
     999902    2    1    2    0    0 -0.16064812068E-01  0.13812526802E-01  0.25325235432E-02  0.10225927612E+01  0.10223701275E+01 0.  0.
     999903    2    3    3    0    0  0.11292931561E+00  0.46875515622E-01 -0.43892720855E-01  0.13136442374E+00  0.19485804869E-01 0.  0.
         14    1    1    2    0    0  0.16064812068E-01 -0.13812526802E-01 -0.25325235432E-02  0.21337238784E-01  0.00000000000E+00 0.  1.
     999901    1    3    3    0    0 -0.12899412768E+00 -0.33062988821E-01  0.46425244398E-01  0.89122833748E+00  0.88000000000E+00 0. -1.
        -11    1    4    4    0    0  0.41332129008E-01  0.23751826736E-01 -0.93860112334E-02  0.48588604523E-01  0.51100000000E-03 0.  1.
         11    1    4    4    0    0  0.71597186602E-01  0.23123688886E-01 -0.34506709622E-01  0.82775819216E-01  0.51100000000E-03 0. -1.
</event>
<event>
 8    1  0.1109294E+005  0.1043930E+01  0.7957747E-01            NaN
         13   -1    0    0    0    0  0.00000000000E+00  0.00000000000E+00  0.74505805969E-08  0.10566000000E+00  0.10566000000E+00 0. -1.
     999900   -1    0    0    0    0 -0.00000000000E+00 -0.00000000000E+00 -0.74505805969E-08  0.93827000000E+00  0.93827000000E+00 0. -1.
     999902    2    1    2    0    0 -0.17121676075E-01 -0.14096502321E-01 -0.70501348159E-02  0.10206583956E+01  0.10203930581E+01 0.  0.
     999903    2    3    3    0    0 -0.91443666879E-01 -0.60720628679E-02 -0.94559944171E-01  0.13316410456E+00  0.19806098576E-01 0.  0.
         14    1    1    2    0    0  0.17121676075E-01  0.14096502321E-01  0.70501348159E-02  0.23271604376E-01  0.00000000000E+00 0. -1.
     999901    1    3    3    0    0  0.74321990803E-01 -0.80244394528E-02  0.87509809355E-01  0.88749429107E+00  0.88000000000E+00 0.  1.
        -11    1    4    4    0    0 -0.26762982107E-01  0.57928524407E-02 -0.34981960827E-01  0.44427615905E-01  0.51100000000E-03 0.  1.
         11    1    4    4    0    0 -0.64680684771E-01 -0.11864915309E-01 -0.59577983344E-01  0.88736488651E-01  0.51100000000E-03 0. -1.
</event>
<event>
 8    1  0.1109294E+005  0.1043930E+01  0.7957747E-01            NaN
         13   -1    0    0    0    0  0.00000000000E+00  0.00000000000E+00  0.74505805969E-08  0.10566000000E+00  0.10566000000E+00 0.  1.
     999900   -1    0    0    0    0 -0.00000000000E+00 -0.00000000000E+00 -0.74505805969E-08  0.93827000000E+00  0.93827000000E+00 0.  1.
     999902    2    1    2    0    0 -0.53179420432E-02  0.22544949124E-01  0.51042208873E-02  0.10202106343E+01  0.10199348656E+01 0.  0.
     999903    2    3    3    0    0 -0.99274073711E-01  0.72031977270E-01 -0.45111584537E-01  0.13240527964E+00  0.21263949717E-01 0.  0.
         14    1    1    2    0    0  0.53179420432E-02 -0.22544949124E-01 -0.51042208873E-02  0.23719365705E-01  0.00000000000E+00 0.  1.
     999901    1    3    3    0    0  0.93956131667E-01 -0.49487028145E-01  0.50215805425E-01  0.88780535465E+00  0.88000000000E+00 0. -1.
        -11    1    4    4    0    0 -0.31697816919E-01  0.16195844859E-01 -0.48072977348E-02  0.35922530822E-01  0.51100000000E-03 0.  1.
         11    1    4    4    0    0 -0.67576256791E-01  0.55836132411E-01 -0.40304286803E-01  0.96482748822E-01  0.51100000000E-03 0. -1.
</event>
<event>
 8    1  0.1109294E+005  0.1043930E+01  0.7957747E-01            NaN
         13   -1    0    0    0    0  0.00000000000E+00  0.00000000000E+00  0.74505805969E-08  0.10566000000E+00  0.10566000000E+00 0.  1.
     999900   -1    0    0    0    0 -0.00000000000E+00 -0.00000000000E+00 -0.74505805969E-08  0.93827000000E+00  0.93827000000E+00 0.  1.
     999902    2    1    2    0    0 -0.61715456563E-02  0.20000668901E-01  0.91267938009E-02  0.10210955283E+01  0.10208401760E+01 0.  0.
     999903    2    3    3    0    0 -0.12867327212E+00  0.25091485809E-01  0.18204052553E-01  0.13254897014E+00  0.71727496785E-02 0.  0.
         14    1    1    2    0    0  0.61715456563E-02 -0.20000668901E-01 -0.91267938009E-02  0.22834471690E-01  0.00000000000E+00 0. -1.
     999901    1    3    3    0    0  0.12250172647E+00 -0.50908169089E-02 -0.90772587521E-02  0.88854655817E+00  0.88000000000E+00 0. -1.
        -11    1    4    4    0    0 -0.80465989397E-01  0.16528932197E-01  0.80353661819E-02  0.82539743638E-01  0.51100000000E-03 0. -1.
         11    1    4    4    0    0 -0.48207282725E-01  0.85625536129E-02  0.10168686371E-01  0.50009226505E-01  0.51100000000E-03 0.  1.
</event>
<event>
 8    1  0.1109294E+005  0.1043930E+01  0.7957747E-01            NaN
         13   -1    0    0    0    0  0.00000000000E+00  0.00000000000E+00  0.74505805969E-08  0.10566000000E+00  0.10566000000E+00 0. -1.
     999900   -1    0    0    0    0 -0.00000000000E+00 -0.00000000000E+00 -0.74505805969E-08  0.93827000000E+00  0.93827000000E+00 0. -1.
     999902    2    1    2    0    0 -0.34899751043E-02  0.10491540625E-01 -0.20352188759E-01  0.10207683088E+01  0.10205055004E+01 0.  0.
     999903    2    3    3    0    0 -0.89571352730E-01  0.95494792701E-03 -0.96543187432E-01  0.13324027070E+00  0.20209986178E-01 0.  0.
         14    1    1    2    0    0  0.34899751043E-02 -0.10491540625E-01  0.20352188759E-01  0.23161691178E-01  0.00000000000E+00 0. -1.
     999901    1    3    3    0    0  0.86081377626E-01  0.95365926979E-02  0.76190998672E-01  0.88752803812E+00  0.88000000000E+00 0.  1.
        -11    1    4    4    0    0 -0.40057928766E-01 -0.20693498931E-02 -0.29288543958E-01  0.49668901681E-01  0.51100000000E-03 0. -1.
         11    1    4    4    0    0 -0.49513423964E-01  0.30242978202E-02 -0.67254643474E-01  0.83571369019E-01  0.51100000000E-03 0.  1.
</event>
<event>
 8    1  0.1109294E+005  0.1043930E+01  0.7957747E-01            NaN
         13   -1    0    0    0    0  0.00000000000E+00  0.00000000000E+00  0.74505805969E-08  0.10566000000E+00  0.10566000000E+00 0. -1.
     999900   -1    0    0    0    0 -0.00000000000E+00 -0.00000000000E+00 -0.74505805969E-08  0.93827000000E+00  0.93827000000E+00 0. -1.
     999902    2    1    2    0    0 -0.18089016488E-01 -0.12135276681E-01  0.94558438876E-02  0.10201836226E+01  0.10199072180E+01 0.  0.
     999903    2    3    3    0    0  0.55587334754E-02  0.55815300627E-01  0.11654484553E+00  0.13077676892E+00  0.19329122259E-01 0.  0.
         14    1    1    2    0    0  0.18089016488E-01  0.12135276681E-01 -0.94558438876E-02  0.23746377435E-01  0.00000000000E+00 0.  1.
     999901    1    3    3    0    0 -0.23647749964E-01 -0.67950577308E-01 -0.10708900165E+00  0.88940685364E+00  0.88000000000E+00 0. -1.
        -11    1    4    4    0    0 -0.64375099639E-02  0.11590891465E-01  0.31277428605E-01  0.33975417005E-01  0.51100000000E-03 0.  1.
         11    1    4    4    0    0  0.11996243439E-01  0.44224409162E-01  0.85267416928E-01  0.96801351917E-01  0.51100000000E-03 0. -1.
</event>
<event>
 8    1  0.1125191E+005  0.1043930E+01  0.7957747E-01            NaN
         13   -1    0    0    0    0  0.00000000000E+00  0.00000000000E+00  0.74505805969E-08  0.10566000000E+00  0.10566000000E+00 0.  1.
     999900   -1    0    0    0    0 -0.00000000000E+00 -0.00000000000E+00 -0.74505805969E-08  0.93827000000E+00  0.93827000000E+00 0. -1.
     999902    2    1    2    0    0  0.33705393404E-02  0.14484273155E-01 -0.18556269008E-01  0.10201499701E+01  0.10198727723E+01 0.  0.
     999903    2    3    3    0    0 -0.54415462812E-01  0.11412132182E+00  0.29526740173E-01  0.13134248850E+00  0.19857044436E-01 0.  0.
         14    1    1    2    0    0 -0.33705393404E-02 -0.14484273155E-01  0.18556269008E-01  0.23780029937E-01  0.00000000000E+00 0.  1.
     999901    1    3    3    0    0  0.57786002152E-01 -0.99637048662E-01 -0.48083009182E-01  0.88880748156E+00  0.88000000000E+00 0. -1.
        -11    1    4    4    0    0 -0.26142036383E-01  0.42785228181E-01  0.20133165057E-01  0.54033205281E-01  0.51100000000E-03 0.  1.
         11    1    4    4    0    0 -0.28273426428E-01  0.71336093637E-01  0.93935751165E-02  0.77309283219E-01  0.51100000000E-03 0. -1.
</event>
<event>
 8    1  0.1109294E+005  0.1043930E+01  0.7957747E-01            NaN
         13   -1    0    0    0    0  0.00000000000E+00  0.00000000000E+00  0.74505805969E-08  0.10566000000E+00  0.10566000000E+00 0. -1.
     999900   -1    0    0    0    0 -0.00000000000E+00 -0.00000000000E+00 -0.74505805969E-08  0.93827000000E+00  0.93827000000E+00 0.  1.
     999902    2    1    2    0    0  0.10244001785E-02 -0.23049550451E-01  0.29297031520E-02  0.10206724349E+01  0.10204074211E+01 0.  0.
     999903    2    3    3    0    0  0.83171762142E-01 -0.25852291608E-01  0.96918681751E-01  0.13185863412E+00  0.20188747386E-01 0.  0.
         14    1    1    2    0    0 -0.10244001785E-02  0.23049550451E-01 -0.29297031520E-02  0.23257565055E-01  0.00000000000E+00 0.  1.
     999901    1    3    3    0    0 -0.82147361963E-01  0.28027411571E-02 -0.93988978599E-01  0.88881380082E+00  0.88000000000E+00 0.  1.
        -11    1    4    4    0    0  0.31766486435E-01 -0.95022437176E-02  0.51934283680E-01  0.61618448849E-01  0.51100000000E-03 0.  1.
         11    1    4    4    0    0  0.51405275706E-01 -0.16350047890E-01  0.44984398071E-01  0.70240185274E-01  0.51100000000E-03 0. -1.
</event>
<event>
 8    1  0.1109294E+005  0.1043930E+01  0.7957747E-01            NaN
         13   -1    0    0    0    0  0.00000000000E+00  0.00000000000E+00  0.74505805969E-08  0.10566000000E+00  0.10566000000E+00 0.  1.
     999900   -1    0    0    0    0 -0.00000000000E+00 -0.00000000000E+00 -0.74505805969E-08  0.93827000000E+00  0.93827000000E+00 0.  1.
     999902    2    1    2    0    0 -0.13327682443E-01 -0.95758134068E-02 -0.63575451857E-02  0.10263305198E+01  0.10261796111E+01 0.  0.
     999903    2    3    3    0    0  0.61412006270E-01  0.94115744806E-02 -0.11918453733E+00  0.13578210894E+00  0.19282502976E-01 0.  0.
         14    1    1    2    0    0  0.13327682443E-01  0.95758134068E-02  0.63575451857E-02  0.17599480177E-01  0.00000000000E+00 0. -1.
     999901    1    3    3    0    0 -0.74739688713E-01 -0.18987387887E-01  0.11282699215E+00  0.89054841088E+00  0.88000000000E+00 0. -1.
        -11    1    4    4    0    0  0.12462371677E-01  0.10078383929E-01 -0.31974272121E-01  0.35770095459E-01  0.51100000000E-03 0. -1.
         11    1    4    4    0    0  0.48949634592E-01 -0.66680944805E-03 -0.87210265211E-01  0.10001201348E+00  0.51100000000E-03 0.  1.
</event>
<event>
 8    1  0.1109294E+005  0.1043930E+01  0.7957747E-01            NaN
         13   -1    0    0    0    0  0.00000000000E+00  0.00000000000E+00  0.74505805969E-08  0.10566000000E+00  0.10566000000E+00 0.  1.
     999900   -1    0    0    0    0 -0.00000000000E+00 -0.00000000000E+00 -0.74505805969E-08  0.93827000000E+00  0.93827000000E+00 0. -1.
     999902    2    1    2    0    0  0.20750514033E-01  0.69979645323E-02  0.77425183077E-02  0.10207028192E+01  0.10204385053E+01 0.  0.
     999903    2    3    3    0    0  0.47078019824E-01  0.74071176712E-01 -0.95995531519E-01  0.13168451994E+00  0.20561895605E-01 0.  0.
         14    1    1    2    0    0 -0.20750514033E-01 -0.69979645323E-02 -0.77425183077E-02  0.23227180845E-01  0.00000000000E+00 0. -1.
     999901    1    3    3    0    0 -0.26327505791E-01 -0.67073212180E-01  0.10373804983E+00  0.88901829921E+00  0.88000000000E+00 0.  1.
        -11    1    4    4    0    0  0.33456440841E-01  0.34973998009E-01 -0.57363546654E-01  0.75055656524E-01  0.51100000000E-03 0. -1.
         11    1    4    4    0    0  0.13621578984E-01  0.39097178703E-01 -0.38631984865E-01  0.56628863419E-01  0.51100000000E-03 0.  1.
</event>
<event>
 8    1  0.1109294E+005  0.1043930E+01  0.7957747E-01            NaN
         13   -1    0    0    0    0  0.00000000000E+00  0.00000000000E+00  0.74505805969E-08  0.10566000000E+00  0.10566000000E+00 0. -1.
     999900   -1    0    0    0    0 -0.00000000000E+00 -0.00000000000E+00 -0.74505805969E-08  0.93827000000E+00  0.93827000000E+00 0.  1.
     999902    2    1    2    0    0  0.18219143993E-01  0.28402648073E-02  0.15013285156E-01  0.10201517948E+01  0.10198746400E+01 0.  0.
     999903    2    3    3    0    0 -0.96259018391E-01  0.13467717033E-01 -0.80108888747E-01  0.12759007682E+00  0.20362112468E-01 0.  0.
         14    1    1    2    0    0 -0.18219143993E-01 -0.28402648073E-02 -0.15013285156E-01  0.23778205214E-01  0.00000000000E+00 0.  1.
     999901    1    3    3    0    0  0.11447816238E+00 -0.10627452225E-01  0.95122173903E-01  0.89256171796E+00  0.88000000000E+00 0. -1.
        -11    1    4    4    0    0 -0.26248648205E-01  0.10053328024E-01 -0.31883548651E-01  0.42507443261E-01  0.51100000000E-03 0. -1.
         11    1    4    4    0    0 -0.70010370185E-01  0.34143890088E-02 -0.48225340096E-01  0.85082633564E-01  0.51100000000E-03 0.  1.
</event>
<event>
 8    1  0.1109294E+005  0.1043930E+01  0.7957747E-01            NaN
         13   -1    0    0    0    0  0.00000000000E+00  0.00000000000E+00  0.74505805969E-08  0.10566000000E+00  0.10566000000E+00 0.  1.
     999900   -1    0    0    0    0 -0.00000000000E+00 -0.00000000000E+00 -0.74505805969E-08  0.93827000000E+00  0.93827000000E+00 0. -1.
     999902    2    1    2    0    0  0.18679396886E-01  0.15809380463E-01 -0.27960884527E-03  0.10194568604E+01  0.10191630663E+01 0.  0.
     999903    2    3    3    0    0 -0.48399970600E-01 -0.65101245430E-01 -0.96830374846E-01  0.12795911993E+00  0.20412877550E-01 0.  0.
         14    1    1    2    0    0 -0.18679396886E-01 -0.15809380463E-01  0.27960884527E-03  0.24473139556E-01  0.00000000000E+00 0. -1.
     999901    1    3    3    0    0  0.67079367486E-01  0.80910625893E-01  0.96550766001E-01  0.89149774051E+00  0.88000000000E+00 0.  1.
        -11    1    4    4    0    0 -0.14832083026E-01 -0.96000470649E-02 -0.30044728214E-01  0.34858261647E-01  0.51100000000E-03 0.  1.
         11    1    4    4    0    0 -0.33567887574E-01 -0.55501198365E-01 -0.66785646632E-01  0.93100858284E-01  0.51100000000E-03 0. -1.
</event>
<event>
 8    1  0.1109294E+005  0.1043930E+01  0.7957747E-01            NaN
         13   -1    0    0    0    0  0.00000000000E+00  0.00000000000E+00  0.74505805969E-08  0.10566000000E+00  0.10566000000E+00 0. -1.
     999900   -1    0    0    0    0 -0.00000000000E+00 -0.00000000000E+00 -0.74505805969E-08  0.93827000000E+00  0.93827000000E+00 0. -1.
     999902    2    1    2    0    0  0.70535397712E-02 -0.27203645420E-02  0.21040179796E-01  0.10215728541E+01  0.10213281815E+01 0.  0.
     999903    2    3    3    0    0 -0.69820496317E-01  0.88826755284E-02  0.11092628964E+00  0.13358425018E+00  0.24213767403E-01 0.  0.
         14    1    1    2    0    0 -0.70535397712E-02  0.27203645420E-02 -0.21040179796E-01  0.22357145891E-01  0.00000000000E+00 0.  1.
     999901    1    3    3    0    0  0.76874036089E-01 -0.11603040070E-01 -0.89886109846E-01  0.88798860393E+00  0.88000000000E+00 0. -1.
        -11    1    4    4    0    0 -0.39852172255E-01  0.17062349472E-01  0.65641724175E-01  0.78666488905E-01  0.51100000000E-03 0. -1.
         11    1    4    4    0    0 -0.29968324062E-01 -0.81796739437E-02  0.45284565467E-01  0.54917761275E-01  0.51100000000E-03 0.  1.
</event>
<event>
 7    1  0.1109294E+005  0.1043930E+01  0.7957747E-01            NaN
         13   -1    0    0    0    0  0.00000000000E+00  0.00000000000E+00  0.74505805969E-08  0.10566000000E+00  0.10566000000E+00 0. -1.
     999900   -1    0    0    0    0 -0.00000000000E+00 -0.00000000000E+00 -0.74505805969E-08  0.93827000000E+00  0.93827000000E+00 0.  1.
     999903    2    1    2    0    0 -0.23584748738E-01  0.63777418757E-01 -0.79954325229E-01  0.10676357494E+00  0.19543983578E-01 0.  0.
         14    1    1    2    0    0 -0.19033257754E-01  0.64178662058E-02 -0.40466331672E-01  0.45177183470E-01  0.00000000000E+00 0.  1.
     999901    1    1    2    0    0  0.42618006492E-01 -0.70195284963E-01  0.12042065690E+00  0.89198924159E+00  0.88000000000E+00 0. -1.
        -11    1    3    3    0    0 -0.22352801849E-01  0.34455013464E-01 -0.51609113370E-01  0.65958755349E-01  0.51100000000E-03 0.  1.
         11    1    3    3    0    0 -0.12319468895E-02  0.29322405292E-01 -0.28345211859E-01  0.40804819588E-01  0.51100000000E-03 0. -1.
</event>
<event>
 8    1  0.1109294E+005  0.1043930E+01  0.7957747E-01            NaN
         13   -1    0    0    0    0  0.00000000000E+00  0.00000000000E+00  0.74505805969E-08  0.10566000000E+00  0.10566000000E+00 0.  1.
     999900   -1    0    0    0    0 -0.00000000000E+00 -0.00000000000E+00 -0.74505805969E-08  0.93827000000E+00  0.93827000000E+00 0.  1.
     999902    2    1    2    0    0 -0.23649451219E-01 -0.36916396626E-02 -0.24653696869E-03  0.10199928839E+01  0.10197119680E+01 0.  0.
     999903    2    3    3    0    0 -0.10990413823E+00  0.68395777142E-01  0.20309487248E-01  0.13260400815E+00  0.20357941298E-01 0.  0.
         14    1    1    2    0    0  0.23649451219E-01  0.36916396626E-02  0.24653696869E-03  0.23937116093E-01  0.00000000000E+00 0. -1.
     999901    1    3    3    0    0  0.86254687008E-01 -0.72087416805E-01 -0.20556024216E-01  0.88738887576E+00  0.88000000000E+00 0.  1.
        -11    1    4    4    0    0 -0.44839308651E-01  0.18540740913E-01  0.17351281067E-02  0.48555066311E-01  0.51100000000E-03 0. -1.
         11    1    4    4    0    0 -0.65064829576E-01  0.49855036229E-01  0.18574359141E-01  0.84048941836E-01  0.51100000000E-03 0.  1.
</event>
<event>
 8    1  0.1109294E+005  0.1043930E+01  0.7957747E-01            NaN
         13   -1    0    0    0    0  0.00000000000E+00  0.00000000000E+00  0.74505805969E-08  0.10566000000E+00  0.10566000000E+00 0. -1.
     999900   -1    0    0    0    0 -0.00000000000E+00 -0.00000000000E+00 -0.74505805969E-08  0.93827000000E+00  0.93827000000E+00 0. -1.
     999902    2    1    2    0    0 -0.31804375188E-02 -0.18395515842E-01  0.16264792687E-01  0.10191700794E+01  0.10188692738E+01 0.  0.
     999903    2    3    3    0    0 -0.12236343090E+00  0.30729526701E-01  0.22689967100E-01  0.12975502525E+00  0.20110170015E-01 0.  0.
         14    1    1    2    0    0  0.31804375188E-02  0.18395515842E-01 -0.16264792687E-01  0.24759920579E-01  0.00000000000E+00 0.  1.
     999901    1    3    3    0    0  0.11918299338E+00 -0.49125042543E-01 -0.64251744137E-02  0.88941505417E+00  0.88000000000E+00 0. -1.
        -11    1    4    4    0    0 -0.79335771449E-01  0.10193908770E-01  0.16520761782E-01  0.81677886226E-01  0.51100000000E-03 0. -1.
         11    1    4    4    0    0 -0.43027659452E-01  0.20535617931E-01  0.61692053185E-02  0.48077139027E-01  0.51100000000E-03 0.  1.
</event>
<event>
 8    1  0.1109294E+005  0.1043930E+01  0.7957747E-01            NaN
         13   -1    0    0    0    0  0.00000000000E+00  0.00000000000E+00  0.74505805969E-08  0.10566000000E+00  0.10566000000E+00 0. -1.
     999900   -1    0    0    0    0 -0.00000000000E+00 -0.00000000000E+00 -0.74505805969E-08  0.93827000000E+00  0.93827000000E+00 0.  1.
     999902    2    1    2    0    0  0.19959269193E-01  0.89724276960E-02  0.72220675243E-02  0.10208858002E+01  0.10206256816E+01 0.  0.
     999903    2    3    3    0    0  0.11105238611E+00  0.46704150942E-02  0.70921648365E-01  0.13388292542E+00  0.23244618165E-01 0.  0.
         14    1    1    2    0    0 -0.19959269193E-01 -0.89724276960E-02 -0.72220675243E-02  0.23044199808E-01  0.00000000000E+00 0.  1.
     999901    1    3    3    0    0 -0.91093116915E-01  0.43020126018E-02 -0.63699580841E-01  0.88700287478E+00  0.88000000000E+00 0.  1.
        -11    1    4    4    0    0  0.14485159042E-01 -0.72936848495E-02  0.92165062815E-02  0.18660728287E-01  0.51100000000E-03 0. -1.
         11    1    4    4    0    0  0.96567227066E-01  0.11964099944E-01  0.61705142084E-01  0.11522219713E+00  0.51100000000E-03 0.  1.
</event>
<event>
 8    1  0.1109294E+005  0.1043930E+01  0.7957747E-01            NaN
         13   -1    0    0    0    0  0.00000000000E+00  0.00000000000E+00  0.74505805969E-08  0.10566000000E+00  0.10566000000E+00 0.  1.
     999900   -1    0    0    0    0 -0.00000000000E+00 -0.00000000000E+00 -0.74505805969E-08  0.93827000000E+00  0.93827000000E+00 0. -1.
     999902    2    1    2    0    0  0.94706771375E-02  0.21270425674E-01 -0.24968815739E-02  0.10205129303E+01  0.10202442266E+01 0.  0.
     999903    2    3    3    0    0 -0.23560299120E-01 -0.11683336412E+00  0.42136967748E-01  0.12801313614E+00  0.20167208708E-01 0.  0.
         14    1    1    2    0    0 -0.94706771375E-02 -0.21270425674E-01  0.24968815739E-02  0.23417069658E-01  0.00000000000E+00 0. -1.
     999901    1    3    3    0    0  0.33030976257E-01  0.13810378979E+00 -0.44633849322E-01  0.89249979420E+00  0.88000000000E+00 0. -1.
        -11    1    4    4    0    0 -0.22768758358E-01 -0.62263312842E-01  0.22628999103E-01  0.70053331146E-01  0.51100000000E-03 0.  1.
         11    1    4    4    0    0 -0.79154076217E-03 -0.54570051277E-01  0.19507968644E-01  0.57959804993E-01  0.51100000000E-03 0. -1.
</event>
<event>
 8    1  0.1109294E+005  0.1043930E+01  0.7957747E-01            NaN
         13   -1    0    0    0    0  0.00000000000E+00  0.00000000000E+00  0.74505805969E-08  0.10566000000E+00  0.10566000000E+00 0.  1.
     999900   -1    0    0    0    0 -0.00000000000E+00 -0.00000000000E+00 -0.74505805969E-08  0.93827000000E+00  0.93827000000E+00 0. -1.
     999902    2    1    2    0    0 -0.18401309646E-01 -0.72354694614E-02  0.11670331279E-01  0.10209701035E+01  0.10207119062E+01 0.  0.
     999903    2    3    3    0    0 -0.19498663952E-01 -0.29692148990E-01  0.12699879354E+00  0.13316034863E+00  0.18470605811E-01 0.  0.
         14    1    1    2    0    0  0.18401309646E-01  0.72354694614E-02 -0.11670331279E-01  0.22959896498E-01  0.00000000000E+00 0.  1.
     999901    1    3    3    0    0  0.10973543064E-02  0.22456679529E-01 -0.11532846226E+00  0.88780975487E+00  0.88000000000E+00 0. -1.
        -11    1    4    4    0    0 -0.16033089053E-01 -0.31965377264E-01  0.11631967222E+00  0.12169376547E+00  0.51100000000E-03 0.  1.
         11    1    4    4    0    0 -0.34655748995E-02  0.22732282737E-02  0.10679121323E-01  0.11466583161E-01  0.51100000000E-03 0. -1.
</event>
<event>
 8    1  0.1109294E+005  0.1043930E+01  0.7957747E-01            NaN
         13   -1    0    0    0    0  0.00000000000E+00  0.00000000000E+00  0.74505805969E-08  0.10566000000E+00  0.10566000000E+00 0.  1.
     999900   -1    0    0    0    0 -0.00000000000E+00 -0.00000000000E+00 -0.74505805969E-08  0.93827000000E+00  0.93827000000E+00 0.  1.
     999902    2    1    2    0    0 -0.13198732447E-01  0.18233109691E-01 -0.65504310879E-02  0.10204872831E+01  0.10202179836E+01 0.  0.
     999903    2    3    3    0    0  0.49147802773E-01 -0.77394028320E-01 -0.89117954657E-01  0.12928077735E+00  0.19135501395E-01 0.  0.
         14    1    1    2    0    0  0.13198732447E-01 -0.18233109691E-01  0.65504310879E-02  0.23442716878E-01  0.00000000000E+00 0.  1.
     999901    1    3    3    0    0 -0.62346535220E-01  0.95627138010E-01  0.82567523569E-01  0.89120650577E+00  0.88000000000E+00 0. -1.
        -11    1    4    4    0    0  0.13521391158E-01 -0.25083679638E-01 -0.16422213508E-01  0.32893300542E-01  0.51100000000E-03 0. -1.
         11    1    4    4    0    0  0.35626411615E-01 -0.52310348682E-01 -0.72695741148E-01  0.96387476810E-01  0.51100000000E-03 0.  1.
</event>
<event>
 8    1  0.1109294E+005  0.1043930E+01  0.7957747E-01            NaN
         13   -1    0    0    0    0  0.00000000000E+00  0.00000000000E+00  0.74505805969E-08  0.10566000000E+00  0.10566000000E+00 0. -1.
     999900   -1    0    0    0    0 -0.00000000000E+00 -0.00000000000E+00 -0.74505805969E-08  0.93827000000E+00  0.93827000000E+00 0. -1.
     999902    2    1    2    0    0 -0.14512344951E-01 -0.14692077536E-01  0.47987894225E-02  0.10227287340E+01  0.10225089583E+01 0.  0.
     999903    2    3    3    0    0 -0.34636283850E-02 -0.13251524884E+00 -0.70998167549E-02  0.13472763570E+00  0.22996532905E-01 0.  0.
         14    1    1    2    0    0  0.14512344951E-01  0.14692077536E-01 -0.47987894225E-02  0.21201265958E-01  0.00000000000E+00 0. -1.
     999901    1    3    3    0    0 -0.11048716566E-01  0.11782317130E+00  0.11898606177E-01  0.88800109835E+00  0.88000000000E+00 0. -1.
        -11    1    4    4    0    0 -0.11077440345E-01 -0.75022837173E-01 -0.10848595115E-01  0.76609979240E-01  0.51100000000E-03 0.  1.
         11    1    4    4    0    0  0.76138119601E-02 -0.57492411667E-01  0.37487783599E-02  0.58117656457E-01  0.51100000000E-03 0. -1.
</event>
<event>
 8    1  0.1109294E+005  0.1043930E+01  0.7957747E-01            NaN
         13   -1    0    0    0    0  0.00000000000E+00  0.00000000000E+00  0.74505805969E-08  0.10566000000E+00  0.10566000000E+00 0.  1.
     999900   -1    0    0    0    0 -0.00000000000E+00 -0.00000000000E+00 -0.74505805969E-08  0.93827000000E+00  0.93827000000E+00 0. -1.
     999902    2    1    2    0    0  0.60406811340E-02  0.47112539341E-02  0.22214426312E-01  0.10204317771E+01  0.10201611859E+01 0.  0.
     999903    2    3    3    0    0 -0.51943401762E-01  0.10623422686E+00  0.55276787299E-01  0.13208376670E+00  0.20168546505E-01 0.  0.
         14    1    1    2    0    0 -0.60406811340E-02 -0.47112539341E-02 -0.22214426312E-01  0.23498222881E-01  0.00000000000E+00 0. -1.
     999901    1    3    3    0    0  0.57984082896E-01 -0.10152297293E+00 -0.33062360988E-01  0.88834801042E+00  0.88000000000E+00 0.  1.
        -11    1    4    4    0    0 -0.92756293317E-03  0.17360901226E-01  0.98694830772E-02  0.19998226961E-01  0.51100000000E-03 0. -1.
         11    1    4    4    0    0 -0.51015838829E-01  0.88873325636E-01  0.45407304222E-01  0.11208553974E+00  0.51100000000E-03 0.  1.
</event>
<event>
 8    1  0.1109294E+005  0.1043930E+01  0.7957747E-01            NaN
         13   -1    0    0    0    0  0.00000000000E+00  0.00000000000E+00  0.74505805969E-08  0.10566000000E+00  0.10566000000E+00 0.  1.
     999900   -1    0    0    0    0 -0.00000000000E+00 -0.00000000000E+00 -0.74505805969E-08  0.93827000000E+00  0.93827000000E+00 0. -1.
     999902    2    1    2    0    0 -0.12865610133E-01  0.20770954668E-01  0.52182559123E-02  0.10189462718E+01  0.10186399354E+01 0.  0.
     999903    2    3    3    0    0  0.10375997341E-01 -0.89846503474E-02  0.12719619481E+00  0.12973078273E+00  0.21513222702E-01 0.  0.
         14    1    1    2    0    0  0.12865610133E-01 -0.20770954668E-01 -0.52182559123E-02  0.24983728238E-01  0.00000000000E+00 0. -1.
     999901    1    3    3    0    0 -0.23241607474E-01  0.29755605016E-01 -0.12197793890E+00  0.88921548903E+00  0.88000000000E+00 0. -1.
        -11    1    4    4    0    0  0.91635528556E-02  0.29043218145E-02  0.93118372693E-01  0.93614626208E-01  0.51100000000E-03 0.  1.
         11    1    4    4    0    0  0.12124444851E-02 -0.11888972162E-01  0.34077822121E-01  0.36116156526E-01  0.51100000000E-03 0. -1.
</event>
<event>
 8    1  0.1109294E+005  0.1043930E+01  0.7957747E-01            NaN
         13   -1    0    0    0    0  0.00000000000E+00  0.00000000000E+00  0.74505805969E-08  0.10566000000E+00  0.10566000000E+00 0. -1.
     999900   -1    0    0    0    0 -0.00000000000E+00 -0.00000000000E+00 -0.74505805969E-08  0.93827000000E+00  0.93827000000E+00 0. -1.
     999902    2    1    2    0    0  0.22667399772E-02 -0.23822741318E-01 -0.27229014421E-02  0.10198452474E+01  0.10195608140E+01 0.  0.
     999903    2    3    3    0    0  0.23659555466E-01 -0.12983071998E+00 -0.45118645989E-03  0.13322215683E+00  0.18224957784E-01 0.  0.
         14    1    1    2    0    0 -0.22667399772E-02  0.23822741318E-01  0.27229014421E-02  0.24084752568E-01  0.00000000000E+00 0. -1.
     999901    1    3    3    0    0 -0.21392815489E-01  0.10600797866E+00 -0.22717149822E-02  0.88662309060E+00  0.88000000000E+00 0. -1.
        -11    1    4    4    0    0  0.18037317675E-01 -0.12202059975E+00  0.16511708897E-02  0.12335866033E+00  0.51100000000E-03 0.  1.
         11    1    4    4    0    0  0.56222377910E-02 -0.78101202273E-02 -0.21023573496E-02  0.98634964982E-02  0.51100000000E-03 0. -1.
</event>
<event>
 8    1  0.1109294E+005  0.1043930E+01  0.7957747E-01            NaN
         13   -1    0    0    0    0  0.00000000000E+00  0.00000000000E+00  0.74505805969E-08  0.10566000000E+00  0.10566000000E+00 0.  1.
     999900   -1    0    0    0    0 -0.00000000000E+00 -0.00000000000E+00 -0.74505805969E-08  0.93827000000E+00  0.93827000000E+00 0.  1.
     999902    2    1    2    0    0 -0.45053372153E-02 -0.22963451009E-01 -0.98782569778E-03  0.10205079176E+01  0.10202390974E+01 0.  0.
     999903    2    3    3    0    0 -0.47437598436E-01  0.20897851310E-01  0.11798807040E+00  0.13038306299E+00  0.19786672859E-01 0.  0.
         14    1    1    2    0    0  0.45053372153E-02  0.22963451009E-01  0.98782569778E-03  0.23422082428E-01  0.00000000000E+00 0.  1.
     999901    1    3    3    0    0  0.42932261221E-01 -0.43861302319E-01 -0.11897589610E+00  0.89012485458E+00  0.88000000000E+00 0.  1.
        -11    1    4    4    0    0 -0.48341539841E-01  0.16828784401E-01  0.11090517873E+00  0.12214881190E+00  0.51100000000E-03 0.  1.
         11    1    4    4    0    0  0.90394140431E-03  0.40690669087E-02  0.70828916654E-02  0.82342510839E-02  0.51100000000E-03 0. -1.
</event>
<event>
 8    1  0.1109294E+005  0.1043930E+01  0.7957747E-01            NaN
         13   -1    0    0    0    0  0.00000000000E+00  0.00000000000E+00  0.74505805969E-08  0.10566000000E+00  0.10566000000E+00 0. -1.
     999900   -1    0    0    0    0 -0.00000000000E+00 -0.00000000000E+00 -0.74505805969E-08  0.93827000000E+00  0.93827000000E+00 0.  1.
     999902    2    1    2    0    0  0.11549428071E-03 -0.10240048734E-01 -0.23345466364E-01  0.10184372023E+01  0.10181180934E+01 0.  0.
     999903    2    3    3    0    0  0.70054528714E-01  0.21628717409E-01  0.10104357922E+00  0.12637233833E+00  0.19614397327E-01 0.  0.
         14    1    1    2    0    0 -0.11549428071E-03  0.10240048734E-01  0.23345466364E-01  0.25492797743E-01  0.00000000000E+00 0. -1.
     999901    1    3    3    0    0 -0.69939034433E-01 -0.31868766143E-01 -0.12438904559E+00  0.89206486393E+00  0.88000000000E+00 0.  1.
        -11    1    4    4    0    0  0.66314589062E-02  0.79599116139E-02  0.20248208749E-01  0.22750549855E-01  0.51100000000E-03 0. -1.
         11    1    4    4    0    0  0.63423069808E-01  0.13668805795E-01  0.80795370473E-01  0.10362178847E+00  0.51100000000E-03 0.  1.
</event>
<event>
 8    1  0.1109294E+005  0.1043930E+01  0.7957747E-01            NaN
         13   -1    0    0    0    0  0.00000000000E+00  0.00000000000E+00  0.74505805969E-08  0.10566000000E+00  0.10566000000E+00 0. -1.
     999900   -1    0    0    0    0 -0.00000000000E+00 -0.00000000000E+00 -0.74505805969E-08  0.93827000000E+00  0.93827000000E+00 0. -1.
     999902    2    1    2    0    0  0.51568551909E-02  0.11321760311E-01  0.20737081993E-01  0.10197473206E+01  0.10194605416E+01 0.  0.
     999903    2    3    3    0    0 -0.85260655013E-01 -0.65924771960E-01  0.70581553613E-01  0.13035043270E+00  0.19850056537E-01 0.  0.
         14    1    1    2    0    0 -0.51568551909E-02 -0.11321760311E-01 -0.20737081993E-01  0.24182679371E-01  0.00000000000E+00 0.  1.
     999901    1    3    3    0    0  0.90417510204E-01  0.77246532271E-01 -0.49844471620E-01  0.88939688792E+00  0.88000000000E+00 0. -1.
        -11    1    4    4    0    0 -0.51711015038E-01 -0.39369161393E-01  0.30793255842E-01  0.71919716847E-01  0.51100000000E-03 0. -1.
         11    1    4    4    0    0 -0.33549639975E-01 -0.26555610567E-01  0.39788297771E-01  0.58430715857E-01  0.51100000000E-03 0.  1.
</event>
<event>
 8    1  0.1109294E+005  0.1043930E+01  0.7957747E-01            NaN
         13   -1    0    0    0    0  0.00000000000E+00  0.00000000000E+00  0.74505805969E-08  0.10566000000E+00  0.10566000000E+00 0. -1.
     999900   -1    0    0    0    0 -0.00000000000E+00 -0.00000000000E+00 -0.74505805969E-08  0.93827000000E+00  0.93827000000E+00 0. -1.
     999902    2    1    2    0    0 -0.20220515996E-01  0.11430795942E-01 -0.65729868547E-02  0.10197900638E+01  0.10195043098E+01 0.  0.
     999903    2    3    3    0    0 -0.23251209985E-01  0.12837308730E+00 -0.46202618466E-02  0.13204657735E+00  0.19866641932E-01 0.  0.
         14    1    1    2    0    0  0.20220515996E-01 -0.11430795942E-01  0.65729868547E-02  0.24139936189E-01  0.00000000000E+00 0. -1.
     999901    1    3    3    0    0  0.30306939895E-02 -0.11694229136E+00 -0.19527250081E-02  0.88774348646E+00  0.88000000000E+00 0.  1.
        -11    1    4    4    0    0 -0.38957809674E-02  0.76435180841E-01 -0.26396597013E-02  0.76581609436E-01  0.51100000000E-03 0.  1.
         11    1    4    4    0    0 -0.19355429018E-01  0.51937906462E-01 -0.19806021453E-02  0.55464967916E-01  0.51100000000E-03 0. -1.
</event>
<event>
 8    1  0.1109294E+005  0.1043930E+01  0.7957747E-01            NaN
         13   -1    0    0    0    0  0.00000000000E+00  0.00000000000E+00  0.74505805969E-08  0.10566000000E+00  0.10566000000E+00 0. -1.
     999900   -1    0    0    0    0 -0.00000000000E+00 -0.00000000000E+00 -0.74505805969E-08  0.93827000000E+00  0.93827000000E+00 0.  1.
     999902    2    1    2    0    0  0.15491491578E-01  0.15121686540E-01 -0.24847577862E-04  0.10222816206E+01  0.10220523761E+01 0.  0.
     999903    2    3    3    0    0 -0.11681021377E+00  0.48783930690E-01  0.29076962968E-01  0.13128004744E+00  0.19091441717E-01 0.  0.
         14    1    1    2    0    0 -0.15491491578E-01 -0.15121686540E-01  0.24847577862E-04  0.21648379443E-01  0.00000000000E+00 0. -1.
     999901    1    3    3    0    0  0.13230170534E+00 -0.33662244150E-01 -0.29101810546E-01  0.89100157312E+00  0.88000000000E+00 0.  1.
        -11    1    4    4    0    0 -0.55283951743E-01  0.13958780090E-01  0.85389620779E-02  0.57657071173E-01  0.51100000000E-03 0.  1.
         11    1    4    4    0    0 -0.61526262024E-01  0.34825150600E-01  0.20538000890E-01  0.73622976268E-01  0.51100000000E-03 0. -1.
</event>
<event>
 8    1  0.1109294E+005  0.1043930E+01  0.7957747E-01            NaN
         13   -1    0    0    0    0  0.00000000000E+00  0.00000000000E+00  0.74505805969E-08  0.10566000000E+00  0.10566000000E+00 0.  1.
     999900   -1    0    0    0    0 -0.00000000000E+00 -0.00000000000E+00 -0.74505805969E-08  0.93827000000E+00  0.93827000000E+00 0. -1.
     999902    2    1    2    0    0 -0.21809823085E-01  0.40273435415E-02  0.87430860815E-02  0.10200903391E+01  0.10198117328E+01 0.  0.
     999903    2    3    3    0    0 -0.94583104434E-02  0.76176655254E-01 -0.10284871873E+00  0.13002808622E+00  0.20906980176E-01 0.  0.
         14    1    1    2    0    0  0.21809823085E-01 -0.40273435415E-02 -0.87430860815E-02  0.23839660929E-01  0.00000000000E+00 0. -1.
     999901    1    3    3    0    0 -0.12351512642E-01 -0.72149311713E-01  0.11159180481E+00  0.89006225285E+00  0.88000000000E+00 0. -1.
        -11    1    4    4    0    0  0.62332345713E-02  0.29070652455E-01 -0.34481631501E-01  0.45532406914E-01  0.51100000000E-03 0.  1.
         11    1    4    4    0    0 -0.15691545015E-01  0.47106002799E-01 -0.68367087228E-01  0.84495679308E-01  0.51100000000E-03 0. -1.
</event>
<event>
 8    1  0.1109294E+005  0.1043930E+01  0.7957747E-01            NaN
         13   -1    0    0    0    0  0.00000000000E+00  0.00000000000E+00  0.74505805969E-08  0.10566000000E+00  0.10566000000E+00 0. -1.
     999900   -1    0    0    0    0 -0.00000000000E+00 -0.00000000000E+00 -0.74505805969E-08  0.93827000000E+00  0.93827000000E+00 0. -1.
     999902    2    1    2    0    0  0.96183887123E-02  0.13651427893E-01 -0.16892857552E-01  0.10201761893E+01  0.10198996096E+01 0.  0.
     999903    2    3    3    0    0  0.65596710480E-01 -0.10244301011E+00 -0.42450136466E-01  0.13042079286E+00  0.20250194550E-01 0.  0.
         14    1    1    2    0    0 -0.96183887123E-02 -0.13651427893E-01  0.16892857552E-01  0.23753810668E-01  0.00000000000E+00 0. -1.
     999901    1    3    3    0    0 -0.55978321767E-01  0.11609443800E+00  0.25557278914E-01  0.88975539647E+00  0.88000000000E+00 0. -1.
        -11    1    4    4    0    0  0.51767591795E-01 -0.85578692869E-01 -0.42322536713E-01  0.10860503887E+00  0.51100000000E-03 0.  1.
         11    1    4    4    0    0  0.13829118684E-01 -0.16864317238E-01 -0.12759975298E-03  0.21815753991E-01  0.51100000000E-03 0. -1.
</event>
<event>
 8    1  0.1109294E+005  0.1043930E+01  0.7957747E-01            NaN
         13   -1    0    0    0    0  0.00000000000E+00  0.00000000000E+00  0.74505805969E-08  0.10566000000E+00  0.10566000000E+00 0. -1.
     999900   -1    0    0    0    0 -0.00000000000E+00 -0.00000000000E+00 -0.74505805969E-08  0.93827000000E+00  0.93827000000E+00 0.  1.
     999902    2    1    2    0    0 -0.14457512829E-01  0.19580037109E-01  0.27341323369E-02  0.10194376949E+01  0.10191434348E+01 0.  0.
     999903    2    3    3    0    0  0.12178111989E+00  0.28814363960E-01  0.20609277741E-01  0.12872687836E+00  0.22021765443E-01 0.  0.
         14    1    1    2    0    0  0.14457512829E-01 -0.19580037109E-01 -0.27341323369E-02  0.24492305118E-01  0.00000000000E+00 0.  1.
     999901    1    3    3    0    0 -0.13623863272E+00 -0.92343268510E-02 -0.17875145404E-01  0.89071081652E+00  0.88000000000E+00 0.  1.
        -11    1    4    4    0    0  0.94127495205E-01  0.12974881456E-01  0.12490656304E-01  0.95836373671E-01  0.51100000000E-03 0. -1.
         11    1    4    4    0    0  0.27653624682E-01  0.15839482503E-01  0.81186214370E-02  0.32890504694E-01  0.51100000000E-03 0.  1.
</event>
<event>
 8    1  0.1109294E+005  0.1043930E+01  0.7957747E-01            NaN
         13   -1    0    0    0    0  0.00000000000E+00  0.00000000000E+00  0.74505805969E-08  0.10566000000E+00  0.10566000000E+00 0.  1.
     999900   -1    0    0    0    0 -0.00000000000E+00 -0.00000000000E+00 -0.74505805969E-08  0.93827000000E+00  0.93827000000E+00 0. -1.
     999902    2    1    2    0    0  0.15219768179E-01 -0.48680350056E-02  0.86763259312E-03  0.10279271286E+01  0.10278025539E+01 0.  0.
     999903    2    3    3    0    0 -0.18339593314E-02 -0.59315038491E-01  0.12284957824E+00  0.13768283575E+00  0.18517753292E-01 0.  0.
         14    1    1    2    0    0 -0.15219768179E-01  0.48680350056E-02 -0.86763259312E-03  0.16002871447E-01  0.00000000000E+00 0.  1.
     999901    1    3    3    0    0  0.17053727510E-01  0.54447003486E-01 -0.12198194565E+00  0.89024429281E+00  0.88000000000E+00 0. -1.
        -11    1    4    4    0    0 -0.58847567190E-02 -0.51040038076E-01  0.11328675603E+00  0.12439399528E+00  0.51100000000E-03 0. -1.
         11    1    4    4    0    0  0.40507973876E-02 -0.82750004154E-02  0.95628222129E-02  0.13288840470E-01  0.51100000000E-03 0.  1.
</event>
<event>
 8    1  0.1109294E+005  0.1043930E+01  0.7957747E-01            NaN
         13   -1    0    0    0    0  0.00000000000E+00  0.00000000000E+00  0.74505805969E-08  0.10566000000E+00  0.10566000000E+00 0.  1.
     999900   -1    0    0    0    0 -0.00000000000E+00 -0.00000000000E+00 -0.74505805969E-08  0.93827000000E+00  0.93827000000E+00 0.  1.
     999902    2    1    2    0    0  0.81250734799E-02 -0.30784001148E-02  0.21411339541E-01  0.10208228836E+01  0.10205613264E+01 0.  0.
     999903    2    3    3    0    0 -0.28086108257E-02 -0.25803856100E-01 -0.12403705400E+00  0.12852740174E+00  0.21456349850E-01 0.  0.
         14    1    1    2    0    0 -0.81250734799E-02  0.30784001148E-02 -0.21411339541E-01  0.23107116377E-01  0.00000000000E+00 0. -1.
     999901    1    3    3    0    0  0.10933684306E-01  0.22725455985E-01  0.14544839354E+00  0.89229548188E+00  0.88000000000E+00 0. -1.
        -11    1    4    4    0    0 -0.55696526829E-02 -0.14393614078E-01 -0.29826679396E-01  0.33587037411E-01  0.51100000000E-03 0.  1.
         11    1    4    4    0    0  0.27610418572E-02 -0.11410242022E-01 -0.94210374604E-01  0.94940364330E-01  0.51100000000E-03 0. -1.
</event>
<event>
 8    1  0.1109294E+005  0.1043930E+01  0.7957747E-01            NaN
         13   -1    0    0    0    0  0.00000000000E+00  0.00000000000E+00  0.74505805969E-08  0.10566000000E+00  0.10566000000E+00 0.  1.
     999900   -1    0    0    0    0 -0.00000000000E+00 -0.00000000000E+00 -0.74505805969E-08  0.93827000000E+00  0.93827000000E+00 0. -1.
     999902    2    1    2    0    0  0.11358798729E-01 -0.96074526798E-02 -0.18301782311E-01  0.10203443965E+01  0.10200717655E+01 0.  0.
     999903    2    3    3    0    0 -0.11258918360E+00 -0.22267341852E-01  0.54456245886E-01  0.12859493295E+00  0.19975367017E-01 0.  0.
         14    1    1    2    0    0 -0.11358798729E-01  0.96074526798E-02  0.18301782311E-01  0.23585603476E-01  0.00000000000E+00 0. -1.
     999901    1    3    3    0    0  0.12394798233E+00  0.12659889172E-01 -0.72758028197E-01  0.89174946357E+00  0.88000000000E+00 0.  1.
        -11    1    4    4    0    0 -0.28012074551E-01 -0.82523506289E-02  0.23353194117E-01  0.37395326019E-01  0.51100000000E-03 0. -1.
         11    1    4    4    0    0 -0.84577109049E-01 -0.14014991223E-01  0.31103051769E-01  0.91199606931E-01  0.51100000000E-03 0.  1.
</event>
<event>
 8    1  0.1109294E+005  0.1043930E+01  0.7957747E-01            NaN
         13   -1    0    0    0    0  0.00000000000E+00  0.00000000000E+00  0.74505805969E-08  0.10566000000E+00  0.10566000000E+00 0.  1.
     999900   -1    0    0    0    0 -0.00000000000E+00 -0.00000000000E+00 -0.74505805969E-08  0.93827000000E+00  0.93827000000E+00 0. -1.
     999902    2    1    2    0    0 -0.21209582188E-01 -0.73600991265E-02  0.79103501383E-02  0.10201268264E+01  0.10198490824E+01 0.  0.
     999903    2    3    3    0    0 -0.11599134950E+00 -0.58921707998E-01 -0.20348522526E-01  0.13308638377E+00  0.19291509597E-01 0.  0.
         14    1    1    2    0    0  0.21209582188E-01  0.73600991265E-02 -0.79103501383E-02  0.23803173634E-01  0.00000000000E+00 0. -1.
     999901    1    3    3    0    0  0.94781767313E-01  0.51561608871E-01  0.28258872665E-01  0.88704044260E+00  0.88000000000E+00 0.  1.
        -11    1    4    4    0    0 -0.32952171093E-01 -0.14425480333E-01 -0.14196766882E-01  0.38674919179E-01  0.51100000000E-03 0. -1.
         11    1    4    4    0    0 -0.83039178407E-01 -0.44496227664E-01 -0.61517556445E-02  0.94411464587E-01  0.51100000000E-03 0.  1.
</event>
<event>
 7    1  0.1109294E+005  0.1043930E+01  0.7957747E-01            NaN
         13   -1    0    0    0    0  0.00000000000E+00  0.00000000000E+00  0.74505805969E-08  0.10566000000E+00  0.10566000000E+00 0. -1.
     999900   -1    0    0    0    0 -0.00000000000E+00 -0.00000000000E+00 -0.74505805969E-08  0.93827000000E+00  0.93827000000E+00 0. -1.
     999903    2    1    2    0    0  0.94610911518E-01  0.56779740286E-01  0.15620851980E-01  0.11300844667E+00  0.18754586573E-01 0.  0.
         14    1    1    2    0    0  0.11960002719E-01 -0.25430428757E-01  0.32089721170E-01  0.42655580837E-01  0.00000000000E+00 0. -1.
     999901    1    1    2    0    0 -0.10657091424E+00 -0.31349311529E-01 -0.47710573149E-01  0.88826597249E+00  0.88000000000E+00 0. -1.
        -11    1    3    3    0    0  0.77073554950E-01  0.48576664660E-01  0.57931003882E-02  0.91289902811E-01  0.51100000000E-03 0.  1.
         11    1    3    3    0    0  0.17537356567E-01  0.82030756264E-02  0.98277515913E-02  0.21718543861E-01  0.51100000000E-03 0. -1.
</event>
<event>
 8    1  0.1109294E+005  0.1043930E+01  0.7957747E-01            NaN
         13   -1    0    0    0    0  0.00000000000E+00  0.00000000000E+00  0.74505805969E-08  0.10566000000E+00  0.10566000000E+00 0. -1.
     999900   -1    0    0    0    0 -0.00000000000E+00 -0.00000000000E+00 -0.74505805969E-08  0.93827000000E+00  0.93827000000E+00 0.  1.
     999902    2    1    2    0    0  0.18227042425E-02 -0.23889648786E-01 -0.41573548505E-02  0.10196129038E+01  0.10193228892E+01 0.  0.
     999903    2    3    3    0    0  0.58359169059E-02 -0.10509708269E+00  0.77439378789E-01  0.13210584456E+00  0.19381487658E-01 0.  0.
         14    1    1    2    0    0 -0.18227042425E-02  0.23889648786E-01  0.41573548505E-02  0.24317096234E-01  0.00000000000E+00 0.  1.
     999901    1    3    3    0    0 -0.40132126634E-02  0.81207433904E-01 -0.81596733640E-01  0.88750705920E+00  0.88000000000E+00 0.  1.
        -11    1    4    4    0    0  0.61218280196E-02 -0.24531879721E-01  0.27287516274E-01  0.37204294999E-01  0.51100000000E-03 0. -1.
         11    1    4    4    0    0 -0.28591111366E-03 -0.80565202969E-01  0.50151862515E-01  0.94901549563E-01  0.51100000000E-03 0.  1.
</event>
<event>
 8    1  0.1109294E+005  0.1043930E+01  0.7957747E-01            NaN
         13   -1    0    0    0    0  0.00000000000E+00  0.00000000000E+00  0.74505805969E-08  0.10566000000E+00  0.10566000000E+00 0. -1.
     999900   -1    0    0    0    0 -0.00000000000E+00 -0.00000000000E+00 -0.74505805969E-08  0.93827000000E+00  0.93827000000E+00 0.  1.
     999902    2    1    2    0    0  0.84021354921E-02 -0.10392420797E-01  0.18613325534E-01  0.10210159393E+01  0.10207587835E+01 0.  0.
     999903    2    3    3    0    0 -0.81236461754E-01  0.62384043884E-01  0.79741974347E-01  0.13137095187E+00  0.20209227441E-01 0.  0.
         14    1    1    2    0    0 -0.84021354921E-02  0.10392420797E-01 -0.18613325534E-01  0.22914060712E-01  0.00000000000E+00 0.  1.
     999901    1    3    3    0    0  0.89638597246E-01 -0.72776464681E-01 -0.61128648812E-01  0.88964498742E+00  0.88000000000E+00 0.  1.
        -11    1    4    4    0    0 -0.12033594657E-01  0.19680816602E-01  0.16974677770E-01  0.28645117366E-01  0.51100000000E-03 0.  1.
         11    1    4    4    0    0 -0.69202867097E-01  0.42703227281E-01  0.62767296577E-01  0.10272583451E+00  0.51100000000E-03 0. -1.
</event>
<event>
 8    1  0.1109294E+005  0.1043930E+01  0.7957747E-01            NaN
         13   -1    0    0    0    0  0.00000000000E+00  0.00000000000E+00  0.74505805969E-08  0.10566000000E+00  0.10566000000E+00 0.  1.
     999900   -1    0    0    0    0 -0.00000000000E+00 -0.00000000000E+00 -0.74505805969E-08  0.93827000000E+00  0.93827000000E+00 0. -1.
     999902    2    1    2    0    0  0.11262918545E-01  0.17787260456E-01 -0.69785734722E-02  0.10217502692E+01  0.10215095067E+01 0.  0.
     999903    2    3    3    0    0  0.30938393415E-01  0.97145753112E-01  0.83364554428E-01  0.13335465049E+00  0.20960256128E-01 0.  0.
         14    1    1    2    0    0 -0.11262918545E-01 -0.17787260456E-01  0.69785734722E-02  0.22179730755E-01  0.00000000000E+00 0.  1.
     999901    1    3    3    0    0 -0.19675474871E-01 -0.79358492656E-01 -0.90343127900E-01  0.88839561876E+00  0.88000000000E+00 0. -1.
        -11    1    4    4    0    0  0.63062247231E-02  0.39170459123E-01  0.43148412226E-01  0.58618597192E-01  0.51100000000E-03 0.  1.
         11    1    4    4    0    0  0.24632168692E-01  0.57975293989E-01  0.40216142202E-01  0.74736053295E-01  0.51100000000E-03 0. -1.
</event>
<event>
 8    1  0.1109294E+005  0.1043930E+01  0.7957747E-01            NaN
         13   -1    0    0    0    0  0.00000000000E+00  0.00000000000E+00  0.74505805969E-08  0.10566000000E+00  0.10566000000E+00 0. -1.
     999900   -1    0    0    0    0 -0.00000000000E+00 -0.00000000000E+00 -0.74505805969E-08  0.93827000000E+00  0.93827000000E+00 0. -1.
     999902    2    1    2    0    0 -0.13673192082E-01 -0.73499471129E-02  0.17296355768E-01  0.10206890485E+01  0.10204244175E+01 0.  0.
     999903    2    3    3    0    0  0.69830837451E-01  0.10672040662E+00 -0.51931304901E-02  0.12912259245E+00  0.19495748938E-01 0.  0.
         14    1    1    2    0    0  0.13673192082E-01  0.73499471129E-02 -0.17296355768E-01  0.23240951511E-01  0.00000000000E+00 0.  1.
     999901    1    3    3    0    0 -0.83504029534E-01 -0.11407035374E+00  0.22489486258E-01  0.89156645604E+00  0.88000000000E+00 0.  1.
        -11    1    4    4    0    0  0.29528050829E-01  0.34998610919E-01 -0.93804421436E-02  0.46744650687E-01  0.51100000000E-03 0.  1.
         11    1    4    4    0    0  0.40302786622E-01  0.71721795704E-01  0.41873116535E-02  0.82377941759E-01  0.51100000000E-03 0. -1.
</event>
<event>
 8    1  0.1109294E+005  0.1043930E+01  0.7957747E-01            NaN
         13   -1    0    0    0    0  0.00000000000E+00  0.00000000000E+00  0.74505805969E-08  0.10566000000E+00  0.10566000000E+00 0.  1.
     999900   -1    0    0    0    0 -0.00000000000E+00 -0.00000000000E+00 -0.74505805969E-08  0.93827000000E+00  0.93827000000E+00 0. -1.
     999902    2    1    2    0    0 -0.14432769997E-01  0.21481698174E-01  0.15240807175E-02  0.10180052815E+01  0.10176751260E+01 0.  0.
     999903    2    3    3    0    0 -0.61301570545E-01 -0.77862965105E-01 -0.78881148736E-01  0.12753852329E+00  0.14943741543E-01 0.  0.
         14    1    1    2    0    0  0.14432769997E-01 -0.21481698174E-01 -0.15240807175E-02  0.25924718480E-01  0.00000000000E+00 0. -1.
     999901    1    3    3    0    0  0.46868800548E-01  0.99344663279E-01  0.80405229453E-01  0.89046675823E+00  0.88000000000E+00 0.  1.
        -11    1    4    4    0    0 -0.38792938687E-01 -0.55369871443E-01 -0.45972802441E-01  0.81758635268E-01  0.51100000000E-03 0.  1.
         11    1    4    4    0    0 -0.22508631858E-01 -0.22493093662E-01 -0.32908346295E-01  0.45779888024E-01  0.51100000000E-03 0. -1.
</event>
<event>
 8    1  0.1109294E+005  0.1043930E+01  0.7957747E-01            NaN
         13   -1    0    0    0    0  0.00000000000E+00  0.00000000000E+00  0.74505805969E-08  0.10566000000E+00  0.10566000000E+00 0.  1.
     999900   -1    0    0    0    0 -0.00000000000E+00 -0.00000000000E+00 -0.74505805969E-08  0.93827000000E+00  0.93827000000E+00 0. -1.
     999902    2    1    2    0    0 -0.18629757433E-01  0.13192081148E-01 -0.63058419417E-02  0.10202474640E+01  0.10199725611E+01 0.  0.
     999903    2    3    3    0    0  0.11231844774E+00 -0.39611453786E-01 -0.42723999533E-01  0.12824862551E+00  0.20925315643E-01 0.  0.
         14    1    1    2    0    0  0.18629757433E-01 -0.13192081148E-01  0.63058419417E-02  0.23682535962E-01  0.00000000000E+00 0.  1.
     999901    1    3    3    0    0 -0.13094820517E+00  0.52803534934E-01  0.36418157591E-01  0.89199883853E+00  0.88000000000E+00 0.  1.
        -11    1    4    4    0    0  0.70309063932E-01 -0.35271121030E-01 -0.26549735689E-01  0.83021479365E-01  0.51100000000E-03 0.  1.
         11    1    4    4    0    0  0.42009383806E-01 -0.43403327552E-02 -0.16174263844E-01  0.45227146141E-01  0.51100000000E-03 0. -1.
</event>
<event>
 8    1  0.1109294E+005  0.1043930E+01  0.7957747E-01            NaN
         13   -1    0    0    0    0  0.00000000000E+00  0.00000000000E+00  0.74505805969E-08  0.10566000000E+00  0.10566000000E+00 0. -1.
     999900   -1    0    0    0    0 -0.00000000000E+00 -0.00000000000E+00 -0.74505805969E-08  0.93827000000E+00  0.93827000000E+00 0. -1.
     999902    2    1    2    0    0  0.17370313942E-01 -0.19580763431E-02  0.16164001799E-01  0.10201216648E+01  0.10198437989E+01 0.  0.
     999903    2    3    3    0    0 -0.40597933246E-01  0.11980395759E+00 -0.17756470445E-01  0.12920252763E+00  0.19411864024E-01 0.  0.
         14    1    1    2    0    0 -0.17370313942E-01  0.19580763431E-02 -0.16164001799E-01  0.23808335170E-01  0.00000000000E+00 0.  1.
     999901    1    3    3    0    0  0.57968247188E-01 -0.12176203394E+00  0.33920472244E-01  0.89091913720E+00  0.88000000000E+00 0.  1.
        -11    1    4    4    0    0 -0.25577630027E-01  0.53888994679E-01 -0.15149860956E-02  0.59672399057E-01  0.51100000000E-03 0. -1.
         11    1    4    4    0    0 -0.15020303219E-01  0.65914962914E-01 -0.16241484350E-01  0.69530128574E-01  0.51100000000E-03 0.  1.
</event>
<event>
 8    1  0.1109294E+005  0.1043930E+01  0.7957747E-01            NaN
         13   -1    0    0    0    0  0.00000000000E+00  0.00000000000E+00  0.74505805969E-08  0.10566000000E+00  0.10566000000E+00 0. -1.
     999900   -1    0    0    0    0 -0.00000000000E+00 -0.00000000000E+00 -0.74505805969E-08  0.93827000000E+00  0.93827000000E+00 0. -1.
     999902    2    1    2    0    0 -0.77038059815E-02  0.93626814566E-02  0.20665375242E-01  0.10199703221E+01  0.10196888701E+01 0.  0.
     999903    2    3    3    0    0  0.70379531035E-01 -0.10552933629E+00 -0.77050102673E-02  0.12862187059E+00  0.19862004027E-01 0.  0.
         14    1    1    2    0    0  0.77038059815E-02 -0.93626814566E-02 -0.20665375242E-01  0.23959677889E-01  0.00000000000E+00 0.  1.
     999901    1    3    3    0    0 -0.78083337016E-01  0.11489201774E+00  0.28370385509E-01  0.89134845152E+00  0.88000000000E+00 0. -1.
        -11    1    4    4    0    0  0.33549213013E-01 -0.42843778136E-01 -0.12225571499E-01  0.55775126520E-01  0.51100000000E-03 0.  1.
         11    1    4    4    0    0  0.36830318022E-01 -0.62685558151E-01  0.45205612314E-02  0.72846744067E-01  0.51100000000E-03 0. -1.
</event>
<event>
 8    1  0.1109294E+005  0.1043930E+01  0.7957747E-01            NaN
         13   -1    0    0    0    0  0.00000000000E+00  0.00000000000E+00  0.74505805969E-08  0.10566000000E+00  0.10566000000E+00 0. -1.
     999900   -1    0    0    0    0 -0.00000000000E+00 -0.00000000000E+00 -0.74505805969E-08  0.93827000000E+00  0.93827000000E+00 0. -1.
     999902    2    1    2    0    0  0.11320533746E-01  0.20601622505E-01  0.82450527328E-02  0.10190189135E+01  0.10187143780E+01 0.  0.
     999903    2    3    3    0    0  0.85291142445E-01  0.93740412033E-01  0.32955004164E-01  0.13254752924E+00  0.20517587082E-01 0.  0.
         14    1    1    2    0    0 -0.11320533746E-01 -0.20601622505E-01 -0.82450527328E-02  0.24911086462E-01  0.00000000000E+00 0.  1.
     999901    1    3    3    0    0 -0.73970608699E-01 -0.73138789528E-01 -0.24709951431E-01  0.88647138430E+00  0.88000000000E+00 0. -1.
        -11    1    4    4    0    0  0.16938539790E-01  0.26197989340E-01  0.15651450996E-01  0.34906701576E-01  0.51100000000E-03 0.  1.
         11    1    4    4    0    0  0.68352602656E-01  0.67542422693E-01  0.17303553168E-01  0.97640827661E-01  0.51100000000E-03 0. -1.
</event>
<event>
 8    1  0.1109294E+005  0.1043930E+01  0.7957747E-01            NaN
         13   -1    0    0    0    0  0.00000000000E+00  0.00000000000E+00  0.74505805969E-08  0.10566000000E+00  0.10566000000E+00 0.  1.
     999900   -1    0    0    0    0 -0.00000000000E+00 -0.00000000000E+00 -0.74505805969E-08  0.93827000000E+00  0.93827000000E+00 0. -1.
     999902    2    1    2    0    0  0.37476458710E-02  0.97593419434E-02  0.20941097981E-01  0.10205244624E+01  0.10202560263E+01 0.  0.
     999903    2    3    3    0    0 -0.49094184022E-02 -0.35277623503E-01  0.12645324629E+00  0.13303582223E+00  0.20964097688E-01 0.  0.
         14    1    1    2    0    0 -0.37476458710E-02 -0.97593419434E-02 -0.20941097981E-01  0.23405537580E-01  0.00000000000E+00 0. -1.
     999901    1    3    3    0    0  0.86570642732E-02  0.45036965446E-01 -0.10551214831E+00  0.88748864019E+00  0.88000000000E+00 0. -1.
        -11    1    4    4    0    0 -0.63237765803E-02 -0.35991476316E-01  0.98968640145E-01  0.10550085009E+00  0.51100000000E-03 0.  1.
         11    1    4    4    0    0  0.14143581781E-02  0.71385281325E-03  0.27484606143E-01  0.27534972140E-01  0.51100000000E-03 0. -1.
</event>
<event>
 8    1  0.1109294E+005  0.1043930E+01  0.7957747E-01            NaN
         13   -1    0    0    0    0  0.00000000000E+00  0.00000000000E+00  0.74505805969E-08  0.10566000000E+00  0.10566000000E+00 0.  1.
     999900   -1    0    0    0    0 -0.00000000000E+00 -0.00000000000E+00 -0.74505805969E-08  0.93827000000E+00  0.93827000000E+00 0. -1.
     999902    2    1    2    0    0  0.10106261943E-01 -0.11550748185E-01 -0.17034612289E-01  0.10210011027E+01  0.10207436100E+01 0.  0.
     999903    2    3    3    0    0  0.52640622211E-01 -0.58867759887E-01  0.10217513266E+00  0.13068709369E+00  0.20072629707E-01 0.  0.
         14    1    1    2    0    0 -0.10106261943E-01  0.11550748185E-01  0.17034612289E-01  0.22928897269E-01  0.00000000000E+00 0.  1.
     999901    1    3    3    0    0 -0.42534360267E-01  0.47317011701E-01 -0.11920974495E+00  0.89031400904E+00  0.88000000000E+00 0.  1.
        -11    1    4    4    0    0  0.73085060987E-03 -0.13006292047E-02  0.10563796485E-01  0.10680856526E-01  0.51100000000E-03 0.  1.
         11    1    4    4    0    0  0.51909771601E-01 -0.57567130682E-01  0.91611336173E-01  0.12000623717E+00  0.51100000000E-03 0. -1.
</event>
<event>
 8    1  0.1109294E+005  0.1043930E+01  0.7957747E-01            NaN
         13   -1    0    0    0    0  0.00000000000E+00  0.00000000000E+00  0.74505805969E-08  0.10566000000E+00  0.10566000000E+00 0. -1.
     999900   -1    0    0    0    0 -0.00000000000E+00 -0.00000000000E+00 -0.74505805969E-08  0.93827000000E+00  0.93827000000E+00 0. -1.
     999902    2    1    2    0    0  0.10127026980E-01  0.20135918211E-01 -0.10491039229E-01  0.10190689103E+01  0.10187656110E+01 0.  0.
     999903    2    3    3    0    0 -0.40320798828E-02 -0.39642166662E-01  0.11769237629E+00  0.12766278076E+00  0.29300701526E-01 0.  0.
         14    1    1    2    0    0 -0.10127026980E-01 -0.20135918211E-01  0.10491039229E-01  0.24861089714E-01  0.00000000000E+00 0. -1.
     999901    1    3    3    0    0  0.14159106863E-01  0.59778084873E-01 -0.12818341552E+00  0.89140612952E+00  0.88000000000E+00 0. -1.
        -11    1    4    4    0    0 -0.37051076996E-02 -0.30517260413E-01  0.45625494143E-01  0.55017977452E-01  0.51100000000E-03 0.  1.
         11    1    4    4    0    0 -0.32697218320E-03 -0.91249062491E-02  0.72066882145E-01  0.72644803310E-01  0.51100000000E-03 0. -1.
</event>
<event>
 8    1  0.1109294E+005  0.1043930E+01  0.7957747E-01            NaN
         13   -1    0    0    0    0  0.00000000000E+00  0.00000000000E+00  0.74505805969E-08  0.10566000000E+00  0.10566000000E+00 0.  1.
     999900   -1    0    0    0    0 -0.00000000000E+00 -0.00000000000E+00 -0.74505805969E-08  0.93827000000E+00  0.93827000000E+00 0. -1.
     999902    2    1    2    0    0 -0.12892252032E-01  0.42300354049E-02  0.19270234544E-01  0.10203621129E+01  0.10200898961E+01 0.  0.
     999903    2    3    3    0    0 -0.80224176089E-01 -0.90512956999E-01 -0.43006610262E-01  0.13053728297E+00  0.23704427937E-01 0.  0.
         14    1    1    2    0    0  0.12892252032E-01 -0.42300354049E-02 -0.19270234544E-01  0.23567887079E-01  0.00000000000E+00 0. -1.
     999901    1    3    3    0    0  0.67331924057E-01  0.94742992404E-01  0.62276844806E-01  0.88982482996E+00  0.88000000000E+00 0. -1.
        -11    1    4    4    0    0 -0.13091882632E-01 -0.12721259658E-01  0.19750967676E-02  0.18368178091E-01  0.51100000000E-03 0.  1.
         11    1    4    4    0    0 -0.67132293458E-01 -0.77791697341E-01 -0.44981707029E-01  0.11216910487E+00  0.51100000000E-03 0. -1.
</event>
<event>
 8    1  0.1109294E+005  0.1043930E+01  0.7957747E-01            NaN
         13   -1    0    0    0    0  0.00000000000E+00  0.00000000000E+00  0.74505805969E-08  0.10566000000E+00  0.10566000000E+00 0. -1.
     999900   -1    0    0    0    0 -0.00000000000E+00 -0.00000000000E+00 -0.74505805969E-08  0.93827000000E+00  0.93827000000E+00 0. -1.
     999902    2    1    2    0    0  0.70193507412E-02 -0.13518397276E-01 -0.18294636895E-01  0.10201242845E+01  0.10198464805E+01 0.  0.
     999903    2    3    3    0    0  0.11749267888E+00  0.52139772542E-01  0.10002361920E-01  0.13034000077E+00  0.19114996369E-01 0.  0.
         14    1    1    2    0    0 -0.70193507412E-02  0.13518397276E-01  0.18294636895E-01  0.23805715466E-01  0.00000000000E+00 0.  1.
     999901    1    3    3    0    0 -0.11047332814E+00 -0.65658169818E-01 -0.28296998815E-01  0.88978428376E+00  0.88000000000E+00 0. -1.
        -11    1    4    4    0    0  0.88121107282E-01  0.46014360717E-01  0.12655286985E-01  0.10021511039E+00  0.51100000000E-03 0.  1.
         11    1    4    4    0    0  0.29371571595E-01  0.61254118248E-02 -0.26529250645E-02  0.30124890379E-01  0.51100000000E-03 0. -1.
</event>
<event>
 8    1  0.1109294E+005  0.1043930E+01  0.7957747E-01            NaN
         13   -1    0    0    0    0  0.00000000000E+00  0.00000000000E+00  0.74505805969E-08  0.10566000000E+00  0.10566000000E+00 0. -1.
     999900   -1    0    0    0    0 -0.00000000000E+00 -0.00000000000E+00 -0.74505805969E-08  0.93827000000E+00  0.93827000000E+00 0.  1.
     999902    2    1    2    0    0 -0.70491719251E-02 -0.19430619280E-01  0.13040511213E-01  0.10194903862E+01  0.10191974062E+01 0.  0.
     999903    2    3    3    0    0  0.58933737706E-01  0.10111128785E+00 -0.44826001837E-01  0.12694759782E+00  0.20239668535E-01 0.  0.
         14    1    1    2    0    0  0.70491719251E-02  0.19430619280E-01 -0.13040511213E-01  0.24439613809E-01  0.00000000000E+00 0.  1.
     999901    1    3    3    0    0 -0.65982909631E-01 -0.12054190713E+00  0.57866513050E-01  0.89254278837E+00  0.88000000000E+00 0. -1.
        -11    1    4    4    0    0  0.27747550221E-01  0.63860952237E-01 -0.20332376297E-01  0.72538365096E-01  0.51100000000E-03 0.  1.
         11    1    4    4    0    0  0.31186187486E-01  0.37250335608E-01 -0.24493625540E-01  0.54409232726E-01  0.51100000000E-03 0. -1.
</event>
<event>
 8    1  0.1109294E+005  0.1043930E+01  0.7957747E-01            NaN
         13   -1    0    0    0    0  0.00000000000E+00  0.00000000000E+00  0.74505805969E-08  0.10566000000E+00  0.10566000000E+00 0.  1.
     999900   -1    0    0    0    0 -0.00000000000E+00 -0.00000000000E+00 -0.74505805969E-08  0.93827000000E+00  0.93827000000E+00 0. -1.
     999902    2    1    2    0    0 -0.14312558226E-01  0.18719200803E-01 -0.40326889277E-02  0.10200235075E+01  0.10197433185E+01 0.  0.
     999903    2    3    3    0    0 -0.11037624617E+00  0.28797507289E-01  0.63309524816E-01  0.13218074097E+00  0.21247122279E-01 0.  0.
         14    1    1    2    0    0  0.14312558226E-01 -0.18719200803E-01  0.40326889277E-02  0.23906492459E-01  0.00000000000E+00 0.  1.
     999901    1    3    3    0    0  0.96063687947E-01 -0.10078306486E-01 -0.67342213744E-01  0.88784276657E+00  0.88000000000E+00 0. -1.
        -11    1    4    4    0    0 -0.91102301506E-01  0.20382466148E-01  0.42446470241E-01  0.10255261198E+00  0.51100000000E-03 0. -1.
         11    1    4    4    0    0 -0.19273944667E-01  0.84150411414E-02  0.20863054575E-01  0.29628128993E-01  0.51100000000E-03 0.  1.
</event>
<event>
 8    1  0.1109294E+005  0.1043930E+01  0.7957747E-01            NaN
         13   -1    0    0    0    0  0.00000000000E+00  0.00000000000E+00  0.74505805969E-08  0.10566000000E+00  0.10566000000E+00 0. -1.
     999900   -1    0    0    0    0 -0.00000000000E+00 -0.00000000000E+00 -0.74505805969E-08  0.93827000000E+00  0.93827000000E+00 0. -1.
     999902    2    1    2    0    0 -0.85805778203E-02 -0.21639880749E-01  0.50296882990E-02  0.10201138601E+01  0.10198358099E+01 0.  0.
     999903    2    3    3    0    0  0.82573667035E-01 -0.56198006899E-01 -0.82381628917E-01  0.13042621897E+00  0.15736560732E-01 0.  0.
         14    1    1    2    0    0  0.85805778203E-02  0.21639880749E-01 -0.50296882990E-02  0.23816139884E-01  0.00000000000E+00 0.  1.
     999901    1    3    3    0    0 -0.91154244855E-01  0.34558126149E-01  0.87411317216E-01  0.88968764115E+00  0.88000000000E+00 0.  1.
        -11    1    4    4    0    0  0.80214035264E-01 -0.50777799275E-01 -0.75206468418E-01  0.12111544231E+00  0.51100000000E-03 0.  1.
         11    1    4    4    0    0  0.23596317706E-02 -0.54202076235E-02 -0.71751604996E-02  0.93107766577E-02  0.51100000000E-03 0. -1.
</event>
<event>
 8    1  0.1109294E+005  0.1043930E+01  0.7957747E-01            NaN
         13   -1    0    0    0    0  0.00000000000E+00  0.00000000000E+00  0.74505805969E-08  0.10566000000E+00  0.10566000000E+00 0. -1.
     999900   -1    0    0    0    0 -0.00000000000E+00 -0.00000000000E+00 -0.74505805969E-08  0.93827000000E+00  0.93827000000E+00 0.  1.
     999902    2    1    2    0    0 -0.22146855765E-01 -0.76750214669E-02  0.58389609393E-03  0.10204836760E+01  0.10202142926E+01 0.  0.
     999903    2    3    3    0    0  0.93953484037E-02  0.12658155060E+00  0.15353272452E-01  0.12962012176E+00  0.21318805428E-01 0.  0.
         14    1    1    2    0    0  0.22146855765E-01  0.76750214669E-02 -0.58389609393E-03  0.23446324007E-01  0.00000000000E+00 0. -1.
     999901    1    3    3    0    0 -0.31542204169E-01 -0.13425657207E+00 -0.14769376358E-01  0.89086355424E+00  0.88000000000E+00 0. -1.
        -11    1    4    4    0    0  0.14629440874E-01  0.78029142860E-01  0.14929332807E-01  0.80781890141E-01  0.51100000000E-03 0. -1.
         11    1    4    4    0    0 -0.52340924698E-02  0.48552407743E-01  0.42393964484E-03  0.48838231616E-01  0.51100000000E-03 0.  1.
</event>
<event>
 8    1  0.1109294E+005  0.1043930E+01  0.7957747E-01            NaN
         13   -1    0    0    0    0  0.00000000000E+00  0.00000000000E+00  0.74505805969E-08  0.10566000000E+00  0.10566000000E+00 0.  1.
     999900   -1    0    0    0    0 -0.00000000000E+00 -0.00000000000E+00 -0.74505805969E-08  0.93827000000E+00  0.93827000000E+00 0. -1.
     999902    2    1    2    0    0  0.96911746852E-02  0.72763362017E-02  0.20522370371E-01  0.10200965860E+01  0.10198181275E+01 0.  0.
     999903    2    3    3    0    0  0.11855286267E+00  0.52220354457E-01 -0.12883596984E-01  0.13162216855E+00  0.19407769469E-01 0.  0.
         14    1    1    2    0    0 -0.96911746852E-02 -0.72763362017E-02 -0.20522370371E-01  0.23833413959E-01  0.00000000000E+00 0. -1.
     999901    1    3    3    0    0 -0.10886168798E+00 -0.44944018256E-01  0.33405967355E-01  0.88847441749E+00  0.88000000000E+00 0. -1.
        -11    1    4    4    0    0  0.50934125920E-01  0.18675904049E-01 -0.14371787780E-01  0.56123827206E-01  0.51100000000E-03 0. -1.
         11    1    4    4    0    0  0.67618736746E-01  0.33544450408E-01  0.14881907964E-02  0.75498341340E-01  0.51100000000E-03 0.  1.
</event>
<event>
 8    1  0.1109294E+005  0.1043930E+01  0.7957747E-01            NaN
         13   -1    0    0    0    0  0.00000000000E+00  0.00000000000E+00  0.74505805969E-08  0.10566000000E+00  0.10566000000E+00 0. -1.
     999900   -1    0    0    0    0 -0.00000000000E+00 -0.00000000000E+00 -0.74505805969E-08  0.93827000000E+00  0.93827000000E+00 0. -1.
     999902    2    1    2    0    0 -0.11410310541E-01  0.20160757907E-01 -0.11251707752E-01  0.10181763153E+01  0.10178505572E+01 0.  0.
     999903    2    3    3    0    0  0.19667990308E-01  0.92590405910E-01  0.85793154339E-01  0.12934021124E+00  0.20214148606E-01 0.  0.
         14    1    1    2    0    0  0.11410310541E-01 -0.20160757907E-01  0.11251707752E-01  0.25753684656E-01  0.00000000000E+00 0. -1.
     999901    1    3    3    0    0 -0.31078300849E-01 -0.72429648003E-01 -0.97044862091E-01  0.88883610410E+00  0.88000000000E+00 0. -1.
        -11    1    4    4    0    0  0.51380794304E-03  0.35555884105E-01  0.22879586570E-01  0.42287368039E-01  0.51100000000E-03 0.  1.
         11    1    4    4    0    0  0.19154182365E-01  0.57034521805E-01  0.62913567769E-01  0.87052843205E-01  0.51100000000E-03 0. -1.
</event>
<event>
 8    1  0.1109294E+005  0.1043930E+01  0.7957747E-01            NaN
         13   -1    0    0    0    0  0.00000000000E+00  0.00000000000E+00  0.74505805969E-08  0.10566000000E+00  0.10566000000E+00 0. -1.
     999900   -1    0    0    0    0 -0.00000000000E+00 -0.00000000000E+00 -0.74505805969E-08  0.93827000000E+00  0.93827000000E+00 0.  1.
     999902    2    1    2    0    0  0.21626812111E-01  0.18845095720E-02  0.45767723861E-02  0.10217440309E+01  0.10215031314E+01 0.  0.
     999903    2    3    3    0    0 -0.75109089011E-02  0.12571227990E+00 -0.33320572404E-01  0.13178980051E+00  0.19957452336E-01 0.  0.
         14    1    1    2    0    0 -0.21626812111E-01 -0.18845095720E-02 -0.45767723861E-02  0.22185969077E-01  0.00000000000E+00 0.  1.
     999901    1    3    3    0    0  0.29137721012E-01 -0.12382777032E+00  0.37897344790E-01  0.88995423041E+00  0.88000000000E+00 0. -1.
        -11    1    4    4    0    0 -0.10067234506E-04  0.10308735483E+00 -0.22058080403E-01  0.10542211750E+00  0.51100000000E-03 0.  1.
         11    1    4    4    0    0 -0.75008416666E-02  0.22624925069E-01 -0.11262492001E-01  0.26367683007E-01  0.51100000000E-03 0. -1.
</event>
<event>
 8    1  0.1109294E+005  0.1043930E+01  0.7957747E-01            NaN
         13   -1    0    0    0    0  0.00000000000E+00  0.00000000000E+00  0.74505805969E-08  0.10566000000E+00  0.10566000000E+00 0. -1.
     999900   -1    0    0    0    0 -0.00000000000E+00 -0.00000000000E+00 -0.74505805969E-08  0.93827000000E+00  0.93827000000E+00 0. -1.
     999902    2    1    2    0    0 -0.97755863200E-02  0.20885849401E-01  0.71277232334E-02  0.10197931976E+01  0.10195075186E+01 0.  0.
     999903    2    3    3    0    0 -0.11216934633E+00  0.66620633582E-01 -0.11395108073E-01  0.13248307825E+00  0.20041119224E-01 0.  0.
         14    1    1    2    0    0  0.97755863200E-02 -0.20885849401E-01 -0.71277232334E-02  0.24136802431E-01  0.00000000000E+00 0. -1.
     999901    1    3    3    0    0  0.10239376001E+00 -0.45734784180E-01  0.18522831307E-01  0.88731011932E+00  0.88000000000E+00 0.  1.
        -11    1    4    4    0    0 -0.43323419657E-01  0.36912112954E-01 -0.24986358340E-02  0.56973038146E-01  0.51100000000E-03 0.  1.
         11    1    4    4    0    0 -0.68845926668E-01  0.29708520628E-01 -0.88964722392E-02  0.75510040101E-01  0.51100000000E-03 0. -1.
</event>
<event>
 8    1  0.1109294E+005  0.1043930E+01  0.7957747E-01            NaN
         13   -1    0    0    0    0  0.00000000000E+00  0.00000000000E+00  0.74505805969E-08  0.10566000000E+00  0.10566000000E+00 0.  1.
     999900   -1    0    0    0    0 -0.00000000000E+00 -0.00000000000E+00 -0.74505805969E-08  0.93827000000E+00  0.93827000000E+00 0. -1.
     999902    2    1    2    0    0 -0.25282969996E-01 -0.59697765665E-02  0.87227725846E-02  0.10165264680E+01  0.10161570285E+01 0.  0.
     999903    2    3    3    0    0  0.32248099927E-01 -0.43609699705E-01  0.11375451868E+00  0.12761800506E+00  0.20112653629E-01 0.  0.
         14    1    1    2    0    0  0.25282969996E-01  0.59697765665E-02 -0.87227725846E-02  0.27403531992E-01  0.00000000000E+00 0. -1.
     999901    1    3    3    0    0 -0.57531069923E-01  0.37639923139E-01 -0.10503174610E+00  0.88890846295E+00  0.88000000000E+00 0. -1.
        -11    1    4    4    0    0  0.12221567425E-01 -0.29344489235E-01  0.49632794315E-01  0.58941845503E-01  0.51100000000E-03 0. -1.
         11    1    4    4    0    0  0.20026532502E-01 -0.14265210470E-01  0.64121724369E-01  0.68676159552E-01  0.51100000000E-03 0.  1.
</event>
<event>
 8    1  0.1109294E+005  0.1043930E+01  0.7957747E-01            NaN
         13   -1    0    0    0    0  0.00000000000E+00  0.00000000000E+00  0.74505805969E-08  0.10566000000E+00  0.10566000000E+00 0. -1.
     999900   -1    0    0    0    0 -0.00000000000E+00 -0.00000000000E+00 -0.74505805969E-08  0.93827000000E+00  0.93827000000E+00 0. -1.
     999902    2    1    2    0    0  0.19867200629E-01  0.79244768482E-02  0.10076379553E-01  0.10202860490E+01  0.10200120516E+01 0.  0.
     999903    2    3    3    0    0  0.24200149802E-01  0.12578068849E+00 -0.26027079899E-01  0.13168472058E+00  0.16032089687E-01 0.  0.
         14    1    1    2    0    0 -0.19867200629E-01 -0.79244768482E-02 -0.10076379553E-01  0.23643951003E-01  0.00000000000E+00 0.  1.
     999901    1    3    3    0    0 -0.43329491727E-02 -0.11785621164E+00  0.36103459452E-01  0.88860132841E+00  0.88000000000E+00 0. -1.
        -11    1    4    4    0    0  0.15664519896E-01  0.87699430957E-01 -0.10601344157E-01  0.89717428589E-01  0.51100000000E-03 0. -1.
         11    1    4    4    0    0  0.85356299059E-02  0.38081257534E-01 -0.15425735741E-01  0.41967291995E-01  0.51100000000E-03 0.  1.
</event>
<event>
 8    1  0.1109294E+005  0.1043930E+01  0.7957747E-01            NaN
         13   -1    0    0    0    0  0.00000000000E+00  0.00000000000E+00  0.74505805969E-08  0.10566000000E+00  0.10566000000E+00 0. -1.
     999900   -1    0    0    0    0 -0.00000000000E+00 -0.00000000000E+00 -0.74505805969E-08  0.93827000000E+00  0.93827000000E+00 0.  1.
     999902    2    1    2    0    0  0.11641894000E-01  0.14597818684E-01  0.15083135669E-01  0.10199272712E+01  0.10196447948E+01 0.  0.
     999903    2    3    3    0    0  0.31442634475E-01  0.35930245701E-01  0.12250353646E+00  0.13291752819E+00  0.19502077703E-01 0.  0.
         14    1    1    2    0    0 -0.11641894000E-01 -0.14597818684E-01 -0.15083135669E-01  0.24002728758E-01  0.00000000000E+00 0.  1.
     999901    1    3    3    0    0 -0.19800740476E-01 -0.21332427017E-01 -0.10742040079E+00  0.88700974305E+00  0.88000000000E+00 0.  1.
        -11    1    4    4    0    0  0.25976566151E-01  0.36289350554E-01  0.96259427619E-01  0.10610295698E+00  0.51100000000E-03 0. -1.
         11    1    4    4    0    0  0.54660683239E-02 -0.35910485326E-03  0.26244108844E-01  0.26814571211E-01  0.51100000000E-03 0.  1.
</event>
<event>
 8    1  0.1109294E+005  0.1043930E+01  0.7957747E-01            NaN
         13   -1    0    0    0    0  0.00000000000E+00  0.00000000000E+00  0.74505805969E-08  0.10566000000E+00  0.10566000000E+00 0. -1.
     999900   -1    0    0    0    0 -0.00000000000E+00 -0.00000000000E+00 -0.74505805969E-08  0.93827000000E+00  0.93827000000E+00 0.  1.
     999902    2    1    2    0    0  0.22933129603E-01  0.88631819949E-02  0.78218656257E-03  0.10193312959E+01  0.10190344423E+01 0.  0.
     999903    2    3    3    0    0 -0.90154307363E-01  0.86581963758E-01  0.21576409213E-01  0.12845454956E+00  0.20268060697E-01 0.  0.
         14    1    1    2    0    0 -0.22933129603E-01 -0.88631819949E-02 -0.78218656257E-03  0.24598704118E-01  0.00000000000E+00 0. -1.
     999901    1    3    3    0    0  0.11308743697E+00 -0.77718781763E-01 -0.20794222650E-01  0.89087674632E+00  0.88000000000E+00 0.  1.
        -11    1    4    4    0    0 -0.48977701092E-01  0.37298076566E-01  0.17951861480E-01  0.64128715654E-01  0.51100000000E-03 0.  1.
         11    1    4    4    0    0 -0.41176606270E-01  0.49283887192E-01  0.36245477329E-02  0.64325833908E-01  0.51100000000E-03 0. -1.
</event>
<event>
 8    1  0.1109294E+005  0.1043930E+01  0.7957747E-01            NaN
         13   -1    0    0    0    0  0.00000000000E+00  0.00000000000E+00  0.74505805969E-08  0.10566000000E+00  0.10566000000E+00 0. -1.
     999900   -1    0    0    0    0 -0.00000000000E+00 -0.00000000000E+00 -0.74505805969E-08  0.93827000000E+00  0.93827000000E+00 0. -1.
     999902    2    1    2    0    0  0.25244927176E-02 -0.56966193719E-02 -0.22702612777E-01  0.10203878429E+01  0.10201162271E+01 0.  0.
     999903    2    3    3    0    0  0.10244423425E+00 -0.79646499016E-01  0.30363740444E-02  0.13127871858E+00  0.19659512888E-01 0.  0.
         14    1    1    2    0    0 -0.25244927176E-02  0.56966193719E-02  0.22702612777E-01  0.23542157136E-01  0.00000000000E+00 0. -1.
     999901    1    3    3    0    0 -0.99919741533E-01  0.73949879644E-01 -0.25738986821E-01  0.88910912429E+00  0.88000000000E+00 0.  1.
        -11    1    4    4    0    0  0.49241846368E-01 -0.44773386720E-01 -0.68207578459E-02  0.66904405317E-01  0.51100000000E-03 0. -1.
         11    1    4    4    0    0  0.53202387883E-01 -0.34873112296E-01  0.98571318903E-02  0.64374313260E-01  0.51100000000E-03 0.  1.
</event>
<event>
 8    1  0.1109294E+005  0.1043930E+01  0.7957747E-01            NaN
         13   -1    0    0    0    0  0.00000000000E+00  0.00000000000E+00  0.74505805969E-08  0.10566000000E+00  0.10566000000E+00 0. -1.
     999900   -1    0    0    0    0 -0.00000000000E+00 -0.00000000000E+00 -0.74505805969E-08  0.93827000000E+00  0.93827000000E+00 0.  1.
     999902    2    1    2    0    0 -0.60975977833E-02  0.30957432778E-02 -0.22841950408E-01  0.10200863630E+01  0.10198076628E+01 0.  0.
     999903    2    3    3    0    0  0.12335302747E+00  0.35308145577E-01 -0.17683591508E-02  0.12978349351E+00  0.19442056576E-01 0.  0.
         14    1    1    2    0    0  0.60975977833E-02 -0.30957432778E-02  0.22841950408E-01  0.23843636963E-01  0.00000000000E+00 0. -1.
     999901    1    3    3    0    0 -0.12945062525E+00 -0.32212402299E-01 -0.21073591258E-01  0.89030286953E+00  0.88000000000E+00 0.  1.
        -11    1    4    4    0    0  0.30902330852E-01  0.13537330427E-01  0.67904898156E-02  0.34417804115E-01  0.51100000000E-03 0. -1.
         11    1    4    4    0    0  0.92450696616E-01  0.21770815150E-01 -0.85588489664E-02  0.95365689395E-01  0.51100000000E-03 0.  1.
</event>
<event>
 8    1  0.1109294E+005  0.1043930E+01  0.7957747E-01            NaN
         13   -1    0    0    0    0  0.00000000000E+00  0.00000000000E+00  0.74505805969E-08  0.10566000000E+00  0.10566000000E+00 0. -1.
     999900   -1    0    0    0    0 -0.00000000000E+00 -0.00000000000E+00 -0.74505805969E-08  0.93827000000E+00  0.93827000000E+00 0.  1.
     999902    2    1    2    0    0  0.18861697847E-01 -0.13235521005E-01 -0.10878283223E-01  0.10184490324E+01  0.10181302235E+01 0.  0.
     999903    2    3    3    0    0 -0.65937253039E-01 -0.10392187248E+00  0.30218138044E-01  0.12878404366E+00  0.22906704651E-01 0.  0.
         14    1    1    2    0    0 -0.18861697847E-01  0.13235521005E-01  0.10878283223E-01  0.25480967561E-01  0.00000000000E+00 0. -1.
     999901    1    3    3    0    0  0.84798950886E-01  0.90686351471E-01 -0.41096421267E-01  0.88966498878E+00  0.88000000000E+00 0. -1.
        -11    1    4    4    0    0 -0.29976983632E-01 -0.34480439999E-01  0.23063375027E-02  0.45750416434E-01  0.51100000000E-03 0.  1.
         11    1    4    4    0    0 -0.35960269407E-01 -0.69441432477E-01  0.27911800541E-01  0.83033627229E-01  0.51100000000E-03 0. -1.
</event>
<event>
 8    1  0.1109294E+005  0.1043930E+01  0.7957747E-01            NaN
         13   -1    0    0    0    0  0.00000000000E+00  0.00000000000E+00  0.74505805969E-08  0.10566000000E+00  0.10566000000E+00 0.  1.
     999900   -1    0    0    0    0 -0.00000000000E+00 -0.00000000000E+00 -0.74505805969E-08  0.93827000000E+00  0.93827000000E+00 0.  1.
     999902    2    1    2    0    0  0.22814235337E-01  0.56881688023E-02  0.39171692878E-02  0.10200932885E+01  0.10198147520E+01 0.  0.
     999903    2    3    3    0    0  0.88293991684E-01  0.35360498622E-01  0.91140070532E-01  0.13286396071E+00  0.17324138320E-01 0.  0.
         14    1    1    2    0    0 -0.22814235337E-01 -0.56881688023E-02 -0.39171692878E-02  0.23836711467E-01  0.00000000000E+00 0.  1.
     999901    1    3    3    0    0 -0.65479756347E-01 -0.29672329819E-01 -0.87222901245E-01  0.88722932782E+00  0.88000000000E+00 0.  1.
        -11    1    4    4    0    0  0.24155331366E-01  0.33077769453E-02  0.29773808156E-01  0.38485870067E-01  0.51100000000E-03 0. -1.
         11    1    4    4    0    0  0.64138660318E-01  0.32052721676E-01  0.61366262377E-01  0.94378090643E-01  0.51100000000E-03 0.  1.
</event>
<event>
 8    1  0.1109294E+005  0.1043930E+01  0.7957747E-01            NaN
         13   -1    0    0    0    0  0.00000000000E+00  0.00000000000E+00  0.74505805969E-08  0.10566000000E+00  0.10566000000E+00 0. -1.
     999900   -1    0    0    0    0 -0.00000000000E+00 -0.00000000000E+00 -0.74505805969E-08  0.93827000000E+00  0.93827000000E+00 0.  1.
     999902    2    1    2    0    0 -0.15020884677E-01 -0.10118345474E-01 -0.14692581817E-01  0.10206087682E+01  0.10203422847E+01 0.  0.
     999903    2    3    3    0    0  0.60691071283E-01  0.81587706911E-01  0.75218028915E-01  0.12806957118E+00  0.20102316673E-01 0.  0.
         14    1    1    2    0    0  0.15020884677E-01  0.10118345474E-01  0.14692581817E-01  0.23321231787E-01  0.00000000000E+00 0. -1.
     999901    1    3    3    0    0 -0.75711955961E-01 -0.91706052385E-01 -0.89910610732E-01  0.89253919703E+00  0.88000000000E+00 0. -1.
        -11    1    4    4    0    0  0.61637110337E-01  0.79286853728E-01  0.70472865518E-01  0.12268750727E+00  0.51100000000E-03 0.  1.
         11    1    4    4    0    0 -0.94603905324E-03  0.23008531828E-02  0.47451633972E-02  0.53820639095E-02  0.51100000000E-03 0. -1.
</event>
<event>
 8    1  0.1109294E+005  0.1043930E+01  0.7957747E-01            NaN
         13   -1    0    0    0    0  0.00000000000E+00  0.00000000000E+00  0.74505805969E-08  0.10566000000E+00  0.10566000000E+00 0.  1.
     999900   -1    0    0    0    0 -0.00000000000E+00 -0.00000000000E+00 -0.74505805969E-08  0.93827000000E+00  0.93827000000E+00 0.  1.
     999902    2    1    2    0    0 -0.99636998142E-02  0.21257254746E-01 -0.12532969294E-03  0.10204531625E+01  0.10201830693E+01 0.  0.
     999903    2    3    3    0    0 -0.31647091160E-01 -0.30527065829E-01 -0.12112084307E+00  0.13040164734E+00  0.20022259482E-01 0.  0.
         14    1    1    2    0    0  0.99636998142E-02 -0.21257254746E-01  0.12532969294E-03  0.23476837539E-01  0.00000000000E+00 0. -1.
     999901    1    3    3    0    0  0.21683391346E-01  0.51784320575E-01  0.12099551338E+00  0.89005151512E+00  0.88000000000E+00 0. -1.
        -11    1    4    4    0    0 -0.17432456030E-01 -0.22924825153E-01 -0.52210505643E-01  0.59629155219E-01  0.51100000000E-03 0. -1.
         11    1    4    4    0    0 -0.14214635130E-01 -0.76022406759E-02 -0.68910337427E-01  0.70772492117E-01  0.51100000000E-03 0.  1.
</event>
<event>
 8    1  0.1109294E+005  0.1043930E+01  0.7957747E-01            NaN
         13   -1    0    0    0    0  0.00000000000E+00  0.00000000000E+00  0.74505805969E-08  0.10566000000E+00  0.10566000000E+00 0. -1.
     999900   -1    0    0    0    0 -0.00000000000E+00 -0.00000000000E+00 -0.74505805969E-08  0.93827000000E+00  0.93827000000E+00 0. -1.
     999902    2    1    2    0    0 -0.15233428158E-01 -0.14462191324E-01  0.11749359757E-01  0.10198621840E+01  0.10195781552E+01 0.  0.
     999903    2    3    3    0    0 -0.12270584385E+00 -0.19469522105E-01 -0.39764400192E-01  0.13181429063E+00  0.18921239009E-01 0.  0.
         14    1    1    2    0    0  0.15233428158E-01  0.14462191324E-01 -0.11749359757E-01  0.24067815980E-01  0.00000000000E+00 0.  1.
     999901    1    3    3    0    0  0.10747241569E+00  0.50073307807E-02  0.51513759950E-01  0.88804789339E+00  0.88000000000E+00 0.  1.
        -11    1    4    4    0    0 -0.24907441110E-01  0.28193848135E-02 -0.43970458053E-02  0.25454364777E-01  0.51100000000E-03 0. -1.
         11    1    4    4    0    0 -0.97798402737E-01 -0.22288906918E-01 -0.35367354387E-01  0.10635992585E+00  0.51100000000E-03 0.  1.
</event>
<event>
 8    1  0.1109294E+005  0.1043930E+01  0.7957747E-01            NaN
         13   -1    0    0    0    0  0.00000000000E+00  0.00000000000E+00  0.74505805969E-08  0.10566000000E+00  0.10566000000E+00 0.  1.
     999900   -1    0    0    0    0 -0.00000000000E+00 -0.00000000000E+00 -0.74505805969E-08  0.93827000000E+00  0.93827000000E+00 0.  1.
     999902    2    1    2    0    0 -0.14007857235E-01  0.18837332665E-01  0.15052659583E-01  0.10160436642E+01  0.10156609079E+01 0.  0.
     999903    2    3    3    0    0 -0.45650724488E-01  0.40620024541E-01  0.11279924097E+00  0.12979869188E+00  0.19749850862E-01 0.  0.
         14    1    1    2    0    0  0.14007857235E-01 -0.18837332665E-01 -0.15052659583E-01  0.27886335843E-01  0.00000000000E+00 0. -1.
     999901    1    3    3    0    0  0.31642867253E-01 -0.21782691876E-01 -0.97746581392E-01  0.88624497228E+00  0.88000000000E+00 0.  1.
        -11    1    4    4    0    0 -0.78109351522E-02  0.17426103029E-01  0.25479987802E-01  0.31846046444E-01  0.51100000000E-03 0. -1.
         11    1    4    4    0    0 -0.37839789335E-01  0.23193921512E-01  0.87319253172E-01  0.97952645435E-01  0.51100000000E-03 0.  1.
</event>
<event>
 8    1  0.1109294E+005  0.1043930E+01  0.7957747E-01            NaN
         13   -1    0    0    0    0  0.00000000000E+00  0.00000000000E+00  0.74505805969E-08  0.10566000000E+00  0.10566000000E+00 0.  1.
     999900   -1    0    0    0    0 -0.00000000000E+00 -0.00000000000E+00 -0.74505805969E-08  0.93827000000E+00  0.93827000000E+00 0.  1.
     999902    2    1    2    0    0 -0.16205993059E-01  0.16630943985E-01 -0.10559212456E-01  0.10184207962E+01  0.10181012714E+01 0.  0.
     999903    2    3    3    0    0 -0.11341422169E+00 -0.40220042585E-01  0.43507518906E-01  0.12959871853E+00  0.20554467543E-01 0.  0.
         14    1    1    2    0    0  0.16205993059E-01 -0.16630943985E-01  0.10559212456E-01  0.25509203762E-01  0.00000000000E+00 0. -1.
     999901    1    3    3    0    0  0.97208228627E-01  0.56850986570E-01 -0.54066731362E-01  0.88882207771E+00  0.88000000000E+00 0.  1.
        -11    1    4    4    0    0 -0.15559469898E-01 -0.11327348885E-01  0.16806623769E-02  0.19325932922E-01  0.51100000000E-03 0. -1.
         11    1    4    4    0    0 -0.97854751789E-01 -0.28892693700E-01  0.41826856530E-01  0.11027278561E+00  0.51100000000E-03 0.  1.
</event>
<event>
 8    1  0.1109294E+005  0.1043930E+01  0.7957747E-01            NaN
         13   -1    0    0    0    0  0.00000000000E+00  0.00000000000E+00  0.74505805969E-08  0.10566000000E+00  0.10566000000E+00 0. -1.
     999900   -1    0    0    0    0 -0.00000000000E+00 -0.00000000000E+00 -0.74505805969E-08  0.93827000000E+00  0.93827000000E+00 0. -1.
     999902    2    1    2    0    0 -0.24763805322E-02  0.12786761768E-01  0.20302662523E-01  0.10198088093E+01  0.10195235042E+01 0.  0.
     999903    2    3    3    0    0 -0.40016120158E-01  0.17524678520E-01 -0.11883376460E+00  0.12807419333E+00  0.19316603172E-01 0.  0.
         14    1    1    2    0    0  0.24763805322E-02 -0.12786761768E-01 -0.20302662523E-01  0.24121190737E-01  0.00000000000E+00 0.  1.
     999901    1    3    3    0    0  0.37539739626E-01 -0.47379167515E-02  0.13913642712E+00  0.89173461594E+00  0.88000000000E+00 0.  1.
        -11    1    4    4    0    0 -0.39026475054E-01  0.14734230645E-01 -0.91333898527E-01  0.10041068394E+00  0.51100000000E-03 0.  1.
         11    1    4    4    0    0 -0.98964510417E-03  0.27904478752E-02 -0.27499866071E-01  0.27663509389E-01  0.51100000000E-03 0. -1.
</event>
<event>
 8    1  0.1109294E+005  0.1043930E+01  0.7957747E-01            NaN
         13   -1    0    0    0    0  0.00000000000E+00  0.00000000000E+00  0.74505805969E-08  0.10566000000E+00  0.10566000000E+00 0. -1.
     999900   -1    0    0    0    0 -0.00000000000E+00 -0.00000000000E+00 -0.74505805969E-08  0.93827000000E+00  0.93827000000E+00 0. -1.
     999902    2    1    2    0    0 -0.16359663059E-01 -0.16216755418E-01  0.28364261936E-02  0.10207207983E+01  0.10204568981E+01 0.  0.
     999903    2    3    3    0    0 -0.68849973808E-01  0.98478065957E-01 -0.45692260206E-01  0.13040334467E+00  0.21886098100E-01 0.  0.
         14    1    1    2    0    0  0.16359663059E-01  0.16216755418E-01 -0.28364261936E-02  0.23209201736E-01  0.00000000000E+00 0. -1.
     999901    1    3    3    0    0  0.52490310749E-01 -0.11469482138E+00  0.48528686399E-01  0.89031745360E+00  0.88000000000E+00 0.  1.
        -11    1    4    4    0    0 -0.16505776747E-01  0.25238639511E-01 -0.21947438490E-01  0.37301216705E-01  0.51100000000E-03 0. -1.
         11    1    4    4    0    0 -0.52344197061E-01  0.73239426446E-01 -0.23744821716E-01  0.93102127964E-01  0.51100000000E-03 0.  1.
</event>
<event>
 8    1  0.1109294E+005  0.1043930E+01  0.7957747E-01            NaN
         13   -1    0    0    0    0  0.00000000000E+00  0.00000000000E+00  0.74505805969E-08  0.10566000000E+00  0.10566000000E+00 0.  1.
     999900   -1    0    0    0    0 -0.00000000000E+00 -0.00000000000E+00 -0.74505805969E-08  0.93827000000E+00  0.93827000000E+00 0. -1.
     999902    2    1    2    0    0 -0.64574384481E-02 -0.18900198268E-01 -0.12598351458E-01  0.10203157148E+01  0.10200424126E+01 0.  0.
     999903    2    3    3    0    0 -0.99761253117E-01 -0.85283130095E-01 -0.37760165763E-02  0.13285296682E+00  0.20251730514E-01 0.  0.
         14    1    1    2    0    0  0.64574384481E-02  0.18900198268E-01  0.12598351458E-01  0.23614285196E-01  0.00000000000E+00 0. -1.
     999901    1    3    3    0    0  0.93303814669E-01  0.66382931827E-01 -0.88223348812E-02  0.88746274799E+00  0.88000000000E+00 0.  1.
        -11    1    4    4    0    0 -0.42860625124E-01 -0.27328870728E-01  0.53812365522E-02  0.51118677498E-01  0.51100000000E-03 0. -1.
         11    1    4    4    0    0 -0.56900627993E-01 -0.57954259367E-01 -0.91572531286E-02  0.81734289320E-01  0.51100000000E-03 0.  1.
</event>
<event>
 8    1  0.1109294E+005  0.1043930E+01  0.7957747E-01            NaN
         13   -1    0    0    0    0  0.00000000000E+00  0.00000000000E+00  0.74505805969E-08  0.10566000000E+00  0.10566000000E+00 0. -1.
     999900   -1    0    0    0    0 -0.00000000000E+00 -0.00000000000E+00 -0.74505805969E-08  0.93827000000E+00  0.93827000000E+00 0.  1.
     999902    2    1    2    0    0 -0.22341026748E-01 -0.25245226045E-02  0.11907152188E-01  0.10184884009E+01  0.10181705888E+01 0.  0.
     999903    2    3    3    0    0 -0.64921379430E-01 -0.84007918274E-01  0.74062652701E-01  0.13151831323E+00  0.23230892174E-01 0.  0.
         14    1    1    2    0    0  0.22341026748E-01  0.25245226045E-02 -0.11907152188E-01  0.25441599080E-01  0.00000000000E+00 0.  1.
     999901    1    3    3    0    0  0.42580352682E-01  0.81483395669E-01 -0.62155500513E-01  0.88697008769E+00  0.88000000000E+00 0.  1.
        -11    1    4    4    0    0 -0.64795000149E-02 -0.41384435647E-03  0.63077807727E-02  0.90666645946E-02  0.51100000000E-03 0.  1.
         11    1    4    4    0    0 -0.58441879415E-01 -0.83594073917E-01  0.67754871928E-01  0.12245164864E+00  0.51100000000E-03 0. -1.
</event>
<event>
 8    1  0.1109294E+005  0.1043930E+01  0.7957747E-01            NaN
         13   -1    0    0    0    0  0.00000000000E+00  0.00000000000E+00  0.74505805969E-08  0.10566000000E+00  0.10566000000E+00 0.  1.
     999900   -1    0    0    0    0 -0.00000000000E+00 -0.00000000000E+00 -0.74505805969E-08  0.93827000000E+00  0.93827000000E+00 0.  1.
     999902    2    1    2    0    0 -0.20172523054E-01  0.11030855366E-01  0.49070085890E-03  0.10209332341E+01  0.10206741974E+01 0.  0.
     999903    2    3    3    0    0 -0.54713608111E-01 -0.11514061174E+00 -0.21319462146E-01  0.13099615264E+00  0.21319783249E-01 0.  0.
         14    1    1    2    0    0  0.20172523054E-01 -0.11030855366E-01 -0.49070085890E-03  0.22996765942E-01  0.00000000000E+00 0.  1.
     999901    1    3    3    0    0  0.34541085057E-01  0.12617146710E+00  0.21810163005E-01  0.88993708142E+00  0.88000000000E+00 0. -1.
        -11    1    4    4    0    0 -0.15859234728E-01 -0.41158632249E-01 -0.17144876169E-01  0.47326062953E-01  0.51100000000E-03 0. -1.
         11    1    4    4    0    0 -0.38854373382E-01 -0.73981979486E-01 -0.41745859769E-02  0.83670089690E-01  0.51100000000E-03 0.  1.
</event>
<event>
 8    1  0.1109294E+005  0.1043930E+01  0.7957747E-01            NaN
         13   -1    0    0    0    0  0.00000000000E+00  0.00000000000E+00  0.74505805969E-08  0.10566000000E+00  0.10566000000E+00 0. -1.
     999900   -1    0    0    0    0 -0.00000000000E+00 -0.00000000000E+00 -0.74505805969E-08  0.93827000000E+00  0.93827000000E+00 0.  1.
     999902    2    1    2    0    0  0.17183233513E-01 -0.67470033688E-03 -0.22704395254E-01  0.10154482813E+01  0.10150487692E+01 0.  0.
     999903    2    3    3    0    0  0.29201301889E-01  0.10349289853E+00 -0.66426612507E-01  0.12814508912E+00  0.21099121749E-01 0.  0.
         14    1    1    2    0    0 -0.17183233513E-01  0.67470033688E-03  0.22704395254E-01  0.28481718670E-01  0.00000000000E+00 0. -1.
     999901    1    3    3    0    0 -0.12018068376E-01 -0.10416759887E+00  0.43722217253E-01  0.88730319221E+00  0.88000000000E+00 0. -1.
        -11    1    4    4    0    0  0.18205128853E-01  0.88696831109E-01 -0.59969538106E-01  0.10860553019E+00  0.51100000000E-03 0. -1.
         11    1    4    4    0    0  0.10996173036E-01  0.14796067422E-01 -0.64570744012E-02  0.19539558936E-01  0.51100000000E-03 0.  1.
</event>
<event>
 8    1  0.1109294E+005  0.1043930E+01  0.7957747E-01            NaN
         13   -1    0    0    0    0  0.00000000000E+00  0.00000000000E+00  0.74505805969E-08  0.10566000000E+00  0.10566000000E+00 0.  1.
     999900   -1    0    0    0    0 -0.00000000000E+00 -0.00000000000E+00 -0.74505805969E-08  0.93827000000E+00  0.93827000000E+00 0. -1.
     999902    2    1    2    0    0  0.49833822896E-02 -0.57583828125E-02  0.22798348741E-01  0.10198934075E+01  0.10196101240E+01 0.  0.
     999903    2    3    3    0    0  0.11818839747E+00  0.51462885562E-01 -0.19306612710E-02  0.13045472334E+00  0.19944460457E-01 0.  0.
         14    1    1    2    0    0 -0.49833822896E-02  0.57583828125E-02 -0.22798348741E-01  0.24036592458E-01  0.00000000000E+00 0. -1.
     999901    1    3    3    0    0 -0.11320501518E+00 -0.57221268375E-01  0.24729010012E-01  0.88943868420E+00  0.88000000000E+00 0.  1.
        -11    1    4    4    0    0  0.10166631658E+00  0.38198099457E-01  0.31795358279E-02  0.10865314215E+00  0.51100000000E-03 0. -1.
         11    1    4    4    0    0  0.16522080888E-01  0.13264786105E-01 -0.51101970990E-02  0.21801581197E-01  0.51100000000E-03 0.  1.
</event>
<event>
 8    1  0.1109294E+005  0.1043930E+01  0.7957747E-01            NaN
         13   -1    0    0    0    0  0.00000000000E+00  0.00000000000E+00  0.74505805969E-08  0.10566000000E+00  0.10566000000E+00 0.  1.
     999900   -1    0    0    0    0 -0.00000000000E+00 -0.00000000000E+00 -0.74505805969E-08  0.93827000000E+00  0.93827000000E+00 0. -1.
     999902    2    1    2    0    0  0.85052771833E-02  0.19780824484E-01  0.15879481297E-01  0.10171759595E+01  0.10168240526E+01 0.  0.
     999903    2    3    3    0    0 -0.76830532929E-01  0.88494836630E-01  0.51875436529E-01  0.12965157969E+00  0.19601130079E-01 0.  0.
         14    1    1    2    0    0 -0.85052771833E-02 -0.19780824484E-01 -0.15879481297E-01  0.26754040508E-01  0.00000000000E+00 0. -1.
     999901    1    3    3    0    0  0.85335810112E-01 -0.68714012146E-01 -0.35995955232E-01  0.88752437980E+00  0.88000000000E+00 0. -1.
        -11    1    4    4    0    0 -0.46794152058E-01  0.66693625663E-01  0.31866401356E-01  0.87484061561E-01  0.51100000000E-03 0.  1.
         11    1    4    4    0    0 -0.30036380871E-01  0.21801210967E-01  0.20009035173E-01  0.42167518128E-01  0.51100000000E-03 0. -1.
</event>
<event>
 8    1  0.1109294E+005  0.1043930E+01  0.7957747E-01            NaN
         13   -1    0    0    0    0  0.00000000000E+00  0.00000000000E+00  0.74505805969E-08  0.10566000000E+00  0.10566000000E+00 0.  1.
     999900   -1    0    0    0    0 -0.00000000000E+00 -0.00000000000E+00 -0.74505805969E-08  0.93827000000E+00  0.93827000000E+00 0. -1.
     999902    2    1    2    0    0  0.26232468930E-02  0.18593390711E-01  0.14445153133E-01  0.10202391146E+01  0.10199640155E+01 0.  0.
     999903    2    3    3    0    0  0.88921324769E-01 -0.87781288522E-01 -0.24929730627E-01  0.12877217067E+00  0.18660757157E-01 0.  0.
         14    1    1    2    0    0 -0.26232468930E-02 -0.18593390711E-01 -0.14445153133E-01  0.23690885408E-01  0.00000000000E+00 0.  1.
     999901    1    3    3    0    0 -0.86298077876E-01  0.10637467923E+00  0.39374883759E-01  0.89146694392E+00  0.88000000000E+00 0.  1.
        -11    1    4    4    0    0  0.22796854192E-01 -0.15709645794E-01  0.55368954349E-03  0.27695797969E-01  0.51100000000E-03 0.  1.
         11    1    4    4    0    0  0.66124470577E-01 -0.72071642728E-01 -0.25483420170E-01  0.10107637271E+00  0.51100000000E-03 0. -1.
</event>
<event>
 8    1  0.1109294E+005  0.1043930E+01  0.7957747E-01            NaN
         13   -1    0    0    0    0  0.00000000000E+00  0.00000000000E+00  0.74505805969E-08  0.10566000000E+00  0.10566000000E+00 0. -1.
     999900   -1    0    0    0    0 -0.00000000000E+00 -0.00000000000E+00 -0.74505805969E-08  0.93827000000E+00  0.93827000000E+00 0. -1.
     999902    2    1    2    0    0  0.14724658655E-01 -0.12452514663E-01 -0.14131831562E-01  0.10200220650E+01  0.10197418417E+01 0.  0.
     999903    2    3    3    0    0  0.60407791381E-01 -0.11428636050E+00  0.19947839316E-01  0.13231800126E+00  0.19991590935E-01 0.  0.
         14    1    1    2    0    0 -0.14724658655E-01  0.12452514663E-01  0.14131831562E-01  0.23907935026E-01  0.00000000000E+00 0.  1.
     999901    1    3    3    0    0 -0.45683132726E-01  0.10183384583E+00 -0.34079670878E-01  0.88770406372E+00  0.88000000000E+00 0. -1.
        -11    1    4    4    0    0  0.11941910206E-01 -0.15427532639E-01 -0.32893709257E-02  0.19791388652E-01  0.51100000000E-03 0. -1.
         11    1    4    4    0    0  0.48465881175E-01 -0.98858827857E-01  0.23237210242E-01  0.11252661260E+00  0.51100000000E-03 0.  1.
</event>
<event>
 8    1  0.1109294E+005  0.1043930E+01  0.7957747E-01            NaN
         13   -1    0    0    0    0  0.00000000000E+00  0.00000000000E+00  0.74505805969E-08  0.10566000000E+00  0.10566000000E+00 0. -1.
     999900   -1    0    0    0    0 -0.00000000000E+00 -0.00000000000E+00 -0.74505805969E-08  0.93827000000E+00  0.93827000000E+00 0. -1.
     999902    2    1    2    0    0  0.60379714570E-02  0.26778304652E-02 -0.26191904370E-01  0.10169180817E+01  0.10165592659E+01 0.  0.
     999903    2    3    3    0    0 -0.55915196749E-01  0.27745150431E-01 -0.11205199946E+00  0.13021716172E+00  0.22462324527E-01 0.  0.
         14    1    1    2    0    0 -0.60379714570E-02 -0.26778304652E-02  0.26191904370E-01  0.27011918292E-01  0.00000000000E+00 0. -1.
     999901    1    3    3    0    0  0.61953168206E-01 -0.25067319966E-01  0.85860095090E-01  0.88670091999E+00  0.88000000000E+00 0. -1.
        -11    1    4    4    0    0 -0.49762129172E-01  0.17056277325E-01 -0.99849214122E-01  0.11285970396E+00  0.51100000000E-03 0.  1.
         11    1    4    4    0    0 -0.61530675770E-02  0.10688873106E-01 -0.12202785338E-01  0.17357457760E-01  0.51100000000E-03 0. -1.
</event>
<event>
 8    1  0.1109294E+005  0.1043930E+01  0.7957747E-01            NaN
         13   -1    0    0    0    0  0.00000000000E+00  0.00000000000E+00  0.74505805969E-08  0.10566000000E+00  0.10566000000E+00 0.  1.
     999900   -1    0    0    0    0 -0.00000000000E+00 -0.00000000000E+00 -0.74505805969E-08  0.93827000000E+00  0.93827000000E+00 0.  1.
     999902    2    1    2    0    0  0.18626881454E-01  0.12910319996E-01 -0.50153497357E-02  0.10207181322E+01  0.10204541707E+01 0.  0.
     999903    2    3    3    0    0 -0.71828488947E-01 -0.99330673441E-01 -0.34010165899E-01  0.12851809070E+00  0.18283701523E-01 0.  0.
         14    1    1    2    0    0 -0.18626881454E-01 -0.12910319996E-01  0.50153497357E-02  0.23211867828E-01  0.00000000000E+00 0.  1.
     999901    1    3    3    0    0  0.90455370401E-01  0.11224099344E+00  0.28994816163E-01  0.89220004147E+00  0.88000000000E+00 0. -1.
        -11    1    4    4    0    0 -0.42106980920E-01 -0.69748894593E-01 -0.16810735958E-01  0.83191153999E-01  0.51100000000E-03 0.  1.
         11    1    4    4    0    0 -0.29721508027E-01 -0.29581778848E-01 -0.17199429941E-01  0.45326936699E-01  0.51100000000E-03 0. -1.
</event>
<event>
 8    1  0.1109294E+005  0.1043930E+01  0.7957747E-01            NaN
         13   -1    0    0    0    0  0.00000000000E+00  0.00000000000E+00  0.74505805969E-08  0.10566000000E+00  0.10566000000E+00 0.  1.
     999900   -1    0    0    0    0 -0.00000000000E+00 -0.00000000000E+00 -0.74505805969E-08  0.93827000000E+00  0.93827000000E+00 0.  1.
     999902    2    1    2    0    0  0.61076153005E-02 -0.11468786923E-01  0.19869455914E-01  0.10201890793E+01  0.10199128032E+01 0.  0.
     999903    2    3    3    0    0 -0.62116522110E-01 -0.38565045004E-01  0.10892235972E+00  0.13265363785E+00  0.19676945172E-01 0.  0.
         14    1    1    2    0    0 -0.61076153005E-02  0.11468786923E-01 -0.19869455914E-01  0.23740920717E-01  0.00000000000E+00 0. -1.
     999901    1    3    3    0    0  0.68224137411E-01  0.27096258081E-01 -0.89052903809E-01  0.88753544144E+00  0.88000000000E+00 0.  1.
        -11    1    4    4    0    0 -0.31954703314E-01 -0.30513890722E-01  0.57867738769E-01  0.72808906750E-01  0.51100000000E-03 0. -1.
         11    1    4    4    0    0 -0.30161818796E-01 -0.80511542818E-02  0.51054620955E-01  0.59844731098E-01  0.51100000000E-03 0.  1.
</event>
<event>
 8    1  0.1109294E+005  0.1043930E+01  0.7957747E-01            NaN
         13   -1    0    0    0    0  0.00000000000E+00  0.00000000000E+00  0.74505805969E-08  0.10566000000E+00  0.10566000000E+00 0.  1.
     999900   -1    0    0    0    0 -0.00000000000E+00 -0.00000000000E+00 -0.74505805969E-08  0.93827000000E+00  0.93827000000E+00 0.  1.
     999902    2    1    2    0    0 -0.12583271921E-02  0.23681624580E-01  0.13711617130E-01  0.10165363662E+01  0.10161671972E+01 0.  0.
     999903    2    3    3    0    0  0.91495284909E-02  0.42369746151E-01  0.12045524305E+00  0.12982797497E+00  0.21608522539E-01 0.  0.
         14    1    1    2    0    0  0.12583271921E-02 -0.23681624580E-01 -0.13711617130E-01  0.27393633830E-01  0.00000000000E+00 0. -1.
     999901    1    3    3    0    0 -0.10407855683E-01 -0.18688121571E-01 -0.10674362592E+00  0.88670839120E+00  0.88000000000E+00 0.  1.
        -11    1    4    4    0    0  0.13360829106E-01  0.12628786901E-01  0.45659891491E-01  0.49224839511E-01  0.51100000000E-03 0.  1.
         11    1    4    4    0    0 -0.42113006156E-02  0.29740959250E-01  0.74795351560E-01  0.80603135460E-01  0.51100000000E-03 0. -1.
</event>
<event>
 8    1  0.1109294E+005  0.1043930E+01  0.7957747E-01            NaN
         13   -1    0    0    0    0  0.00000000000E+00  0.00000000000E+00  0.74505805969E-08  0.10566000000E+00  0.10566000000E+00 0.  1.
     999900   -1    0    0    0    0 -0.00000000000E+00 -0.00000000000E+00 -0.74505805969E-08  0.93827000000E+00  0.93827000000E+00 0.  1.
     999902    2    1    2    0    0  0.18410926582E-01 -0.81575724490E-02  0.82488532283E-02  0.10221687550E+01  0.10219370880E+01 0.  0.
     999903    2    3    3    0    0 -0.10193316137E+00  0.75009339015E-02  0.79490638072E-01  0.13098792021E+00  0.19810106121E-01 0.  0.
         14    1    1    2    0    0 -0.18410926582E-01  0.81575724490E-02 -0.82488532283E-02  0.21761245034E-01  0.00000000000E+00 0. -1.
     999901    1    3    3    0    0  0.12034408795E+00 -0.15658506351E-01 -0.71241784844E-01  0.89118083475E+00  0.88000000000E+00 0.  1.
        -11    1    4    4    0    0 -0.85013663088E-01  0.12338540136E-01  0.70968996838E-01  0.11142900034E+00  0.51100000000E-03 0.  1.
         11    1    4    4    0    0 -0.16919498279E-01 -0.48376062340E-02  0.85216412345E-02  0.19558919868E-01  0.51100000000E-03 0. -1.
</event>
<event>
 7    1  0.1109294E+005  0.1043930E+01  0.7957747E-01            NaN
         13   -1    0    0    0    0  0.00000000000E+00  0.00000000000E+00  0.74505805969E-08  0.10566000000E+00  0.10566000000E+00 0. -1.
     999900   -1    0    0    0    0 -0.00000000000E+00 -0.00000000000E+00 -0.74505805969E-08  0.93827000000E+00  0.93827000000E+00 0. -1.
     999902    2    1    2    0    0 -0.79750765605E-02 -0.11857967616E-01 -0.19087986530E-01  0.10200854100E+01  0.10198066872E+01 0.  0.
         14    1    1    2    0    0  0.79750765605E-02  0.11857967616E-01  0.19087986530E-01  0.23844589992E-01  0.00000000000E+00 0.  1.
     999901    1    3    3    0    0 -0.33774054953E-01  0.10596379031E+00  0.23451205232E-01  0.88730996313E+00  0.88000000000E+00 0. -1.
        -11    1    3    3    0    0  0.23461007404E-01 -0.33555868787E-01 -0.19681227155E-01  0.45431564157E-01  0.51100000000E-03 0.  1.
         11    1    3    3    0    0  0.23379709884E-02 -0.84265889144E-01 -0.22857964606E-01  0.87343882719E-01  0.51100000000E-03 0. -1.
</event>
<event>
 8    1  0.1109294E+005  0.1043930E+01  0.7957747E-01            NaN
         13   -1    0    0    0    0  0.00000000000E+00  0.00000000000E+00  0.74505805969E-08  0.10566000000E+00  0.10566000000E+00 0.  1.
     999900   -1    0    0    0    0 -0.00000000000E+00 -0.00000000000E+00 -0.74505805969E-08  0.93827000000E+00  0.93827000000E+00 0.  1.
     999902    2    1    2    0    0 -0.10758654768E-01 -0.17756857821E-02 -0.14844400466E-01  0.10255110441E+01  0.10253456215E+01 0.  0.
     999903    2    3    3    0    0 -0.49542634746E-02  0.13190178031E+00 -0.21683512315E-01  0.13537053305E+00  0.20793800448E-01 0.  0.
         14    1    1    2    0    0  0.10758654768E-01  0.17756857821E-02  0.14844400466E-01  0.18418955932E-01  0.00000000000E+00 0. -1.
     999901    1    3    3    0    0 -0.58043912933E-02 -0.13367746609E+00  0.68391118490E-02  0.89014051102E+00  0.88000000000E+00 0.  1.
        -11    1    4    4    0    0 -0.10379426268E-02  0.12668008448E-01  0.40063091116E-02  0.13336693617E-01  0.51100000000E-03 0.  1.
         11    1    4    4    0    0 -0.39163208478E-02  0.11923377186E+00 -0.25689821427E-01  0.12203383944E+00  0.51100000000E-03 0. -1.
</event>
<event>
 8    1  0.1109294E+005  0.1043930E+01  0.7957747E-01            NaN
         13   -1    0    0    0    0  0.00000000000E+00  0.00000000000E+00  0.74505805969E-08  0.10566000000E+00  0.10566000000E+00 0.  1.
     999900   -1    0    0    0    0 -0.00000000000E+00 -0.00000000000E+00 -0.74505805969E-08  0.93827000000E+00  0.93827000000E+00 0.  1.
     999902    2    1    2    0    0  0.24472347383E-01  0.73263407343E-03 -0.28742292440E-02  0.10192785552E+01  0.10189804116E+01 0.  0.
     999903    2    3    3    0    0  0.34529723657E-01 -0.21384793195E-01 -0.12308149529E+00  0.13077412736E+00  0.17412831697E-01 0.  0.
         14    1    1    2    0    0 -0.24472347383E-01 -0.73263407343E-03  0.28742292440E-02  0.24651444843E-01  0.00000000000E+00 0.  1.
     999901    1    3    3    0    0 -0.10057376274E-01  0.22117427269E-01  0.12020726605E+00  0.88850442780E+00  0.88000000000E+00 0. -1.
        -11    1    4    4    0    0  0.61843136235E-02 -0.12567893520E-01 -0.30921660155E-01  0.33950079090E-01  0.51100000000E-03 0. -1.
         11    1    4    4    0    0  0.28345410034E-01 -0.88168996754E-02 -0.92159835136E-01  0.96824048269E-01  0.51100000000E-03 0.  1.
</event>
<event>
 8    1  0.1109294E+005  0.1043930E+01  0.7957747E-01            NaN
         13   -1    0    0    0    0  0.00000000000E+00  0.00000000000E+00  0.74505805969E-08  0.10566000000E+00  0.10566000000E+00 0.  1.
     999900   -1    0    0    0    0 -0.00000000000E+00 -0.00000000000E+00 -0.74505805969E-08  0.93827000000E+00  0.93827000000E+00 0.  1.
     999902    2    1    2    0    0 -0.89388299354E-02  0.96902403900E-02  0.20392371868E-01  0.10196472434E+01  0.10193580571E+01 0.  0.
     999903    2    3    3    0    0 -0.82868941653E-01  0.86088225249E-01 -0.49370133476E-01  0.13050770389E+00  0.17787823854E-01 0.  0.
         14    1    1    2    0    0  0.89388299354E-02 -0.96902403900E-02 -0.20392371868E-01  0.24282756636E-01  0.00000000000E+00 0. -1.
     999901    1    3    3    0    0  0.73930111718E-01 -0.76397984859E-01  0.69762505344E-01  0.88913953948E+00  0.88000000000E+00 0. -1.
        -11    1    4    4    0    0 -0.43267162005E-01  0.32525567879E-01 -0.20041224577E-01  0.57722367219E-01  0.51100000000E-03 0. -1.
         11    1    4    4    0    0 -0.39601779648E-01  0.53562657369E-01 -0.29328908899E-01  0.72785336668E-01  0.51100000000E-03 0.  1.
</event>
<event>
 8    1  0.1109294E+005  0.1043930E+01  0.7957747E-01            NaN
         13   -1    0    0    0    0  0.00000000000E+00  0.00000000000E+00  0.74505805969E-08  0.10566000000E+00  0.10566000000E+00 0.  1.
     999900   -1    0    0    0    0 -0.00000000000E+00 -0.00000000000E+00 -0.74505805969E-08  0.93827000000E+00  0.93827000000E+00 0. -1.
     999902    2    1    2    0    0  0.54437353120E-02 -0.92003543132E-02  0.21435627453E-01  0.10199765681E+01  0.10196952646E+01 0.  0.
     999903    2    3    3    0    0  0.59936173245E-01 -0.84825963038E-04 -0.11162157476E+00  0.12826095332E+00  0.19978591943E-01 0.  0.
         14    1    1    2    0    0 -0.54437353120E-02  0.92003543132E-02 -0.21435627453E-01  0.23953431862E-01  0.00000000000E+00 0. -1.
     999901    1    3    3    0    0 -0.54492437933E-01 -0.91155283501E-02  0.13305720221E+00  0.89171561482E+00  0.88000000000E+00 0.  1.
        -11    1    4    4    0    0  0.43655850481E-01  0.85528995213E-02 -0.73512912655E-01  0.85926682814E-01  0.51100000000E-03 0.  1.
         11    1    4    4    0    0  0.16280322765E-01 -0.86377254844E-02 -0.38108662105E-01  0.42334270506E-01  0.51100000000E-03 0. -1.
</event>
<event>
 8    1  0.1109294E+005  0.1043930E+01  0.7957747E-01            NaN
         13   -1    0    0    0    0  0.00000000000E+00  0.00000000000E+00  0.74505805969E-08  0.10566000000E+00  0.10566000000E+00 0.  1.
     999900   -1    0    0    0    0 -0.00000000000E+00 -0.00000000000E+00 -0.74505805969E-08  0.93827000000E+00  0.93827000000E+00 0.  1.
     999902    2    1    2    0    0 -0.12142844640E-01 -0.17999621911E-01  0.81832624452E-02  0.10207265337E+01  0.10204627655E+01 0.  0.
     999903    2    3    3    0    0 -0.13354756051E-01  0.41617924718E-02 -0.12759692184E+00  0.13003643300E+00  0.20804552815E-01 0.  0.
         14    1    1    2    0    0  0.12142844640E-01  0.17999621911E-01 -0.81832624452E-02  0.23203466317E-01  0.00000000000E+00 0.  1.
     999901    1    3    3    0    0  0.12119114119E-02 -0.22161414383E-01  0.13578018428E+00  0.89069010069E+00  0.88000000000E+00 0. -1.
        -11    1    4    4    0    0 -0.77687432867E-02 -0.62564433646E-02 -0.91640540325E-01  0.92183220859E-01  0.51100000000E-03 0. -1.
         11    1    4    4    0    0 -0.55860127647E-02  0.10418235836E-01 -0.35956381514E-01  0.37853212138E-01  0.51100000000E-03 0.  1.
</event>
<event>
 8    1  0.1109294E+005  0.1043930E+01  0.7957747E-01            NaN
         13   -1    0    0    0    0  0.00000000000E+00  0.00000000000E+00  0.74505805969E-08  0.10566000000E+00  0.10566000000E+00 0.  1.
     999900   -1    0    0    0    0 -0.00000000000E+00 -0.00000000000E+00 -0.74505805969E-08  0.93827000000E+00  0.93827000000E+00 0. -1.
     999902    2    1    2    0    0  0.22381249416E-01 -0.29003811717E-03  0.16256056848E-02  0.10214879181E+01  0.10212413621E+01 0.  0.
     999903    2    3    3    0    0 -0.45605515018E-01  0.78119720450E-01  0.92961584154E-01  0.13069470338E+00  0.16021723990E-01 0.  0.
         14    1    1    2    0    0 -0.22381249416E-01  0.29003811717E-03 -0.16256056848E-02  0.22442081930E-01  0.00000000000E+00 0. -1.
     999901    1    3    3    0    0  0.67986764434E-01 -0.78409758567E-01 -0.91335978469E-01  0.89079321469E+00  0.88000000000E+00 0. -1.
        -11    1    4    4    0    0 -0.27320713817E-01  0.59492292663E-01  0.61639312266E-01  0.89918964781E-01  0.51100000000E-03 0. -1.
         11    1    4    4    0    0 -0.18284801202E-01  0.18627427787E-01  0.31322271888E-01  0.40775738598E-01  0.51100000000E-03 0.  1.
</event>
<event>
 8    1  0.1109294E+005  0.1043930E+01  0.7957747E-01            NaN
         13   -1    0    0    0    0  0.00000000000E+00  0.00000000000E+00  0.74505805969E-08  0.10566000000E+00  0.10566000000E+00 0.  1.
     999900   -1    0    0    0    0 -0.00000000000E+00 -0.00000000000E+00 -0.74505805969E-08  0.93827000000E+00  0.93827000000E+00 0. -1.
     999902    2    1    2    0    0  0.20580307426E-01  0.13376266052E-01 -0.11388040400E-02  0.10193582597E+01  0.10190620644E+01 0.  0.
     999903    2    3    3    0    0  0.24863128751E-01  0.31438628267E-01  0.12262053250E+00  0.13050452320E+00  0.19724935175E-01 0.  0.
         14    1    1    2    0    0 -0.20580307426E-01 -0.13376266052E-01  0.11388040400E-02  0.24571740311E-01  0.00000000000E+00 0. -1.
     999901    1    3    3    0    0 -0.42828213248E-02 -0.18062362215E-01 -0.12375933654E+00  0.88885373649E+00  0.88000000000E+00 0. -1.
        -11    1    4    4    0    0  0.22982157564E-01  0.20081024172E-01  0.10580094263E+00  0.11011597378E+00  0.51100000000E-03 0.  1.
         11    1    4    4    0    0  0.18809711870E-02  0.11357604096E-01  0.16819589863E-01  0.20388549422E-01  0.51100000000E-03 0. -1.
</event>
<event>
 8    1  0.1109294E+005  0.1043930E+01  0.7957747E-01            NaN
         13   -1    0    0    0    0  0.00000000000E+00  0.00000000000E+00  0.74505805969E-08  0.10566000000E+00  0.10566000000E+00 0. -1.
     999900   -1    0    0    0    0 -0.00000000000E+00 -0.00000000000E+00 -0.74505805969E-08  0.93827000000E+00  0.93827000000E+00 0.  1.
     999902    2    1    2    0    0  0.21747220274E-01  0.76430524615E-02 -0.40907481441E-03  0.10208751701E+01  0.10206148087E+01 0.  0.
     999903    2    3    3    0    0 -0.12161543443E+00  0.17312709107E-01 -0.33267246913E-01  0.12861623205E+00  0.18584446182E-01 0.  0.
         14    1    1    2    0    0 -0.21747220274E-01 -0.76430524615E-02  0.40907481441E-03  0.23054829923E-01  0.00000000000E+00 0. -1.
     999901    1    3    3    0    0  0.14336265471E+00 -0.96696566454E-02  0.32858172098E-01  0.89225893803E+00  0.88000000000E+00 0.  1.
        -11    1    4    4    0    0 -0.62685625954E-02 -0.21469542492E-03 -0.62240071878E-02  0.88510088471E-02  0.51100000000E-03 0. -1.
         11    1    4    4    0    0 -0.11534687184E+00  0.17527404532E-01 -0.27043239725E-01  0.11976522320E+00  0.51100000000E-03 0.  1.
</event>
<event>
 8    1  0.1109294E+005  0.1043930E+01  0.7957747E-01            NaN
         13   -1    0    0    0    0  0.00000000000E+00  0.00000000000E+00  0.74505805969E-08  0.10566000000E+00  0.10566000000E+00 0.  1.
     999900   -1    0    0    0    0 -0.00000000000E+00 -0.00000000000E+00 -0.74505805969E-08  0.93827000000E+00  0.93827000000E+00 0. -1.
     999902    2    1    2    0    0  0.17206475179E-01 -0.14901866326E-01 -0.93412527611E-02  0.10193253783E+01  0.10190283800E+01 0.  0.
     999903    2    3    3    0    0  0.12392827828E+00  0.36595576178E-01  0.10250957175E-01  0.13116695515E+00  0.20055763459E-01 0.  0.
         14    1    1    2    0    0 -0.17206475179E-01  0.14901866326E-01  0.93412527611E-02  0.24604621746E-01  0.00000000000E+00 0.  1.
     999901    1    3    3    0    0 -0.10672180310E+00 -0.51497442504E-01 -0.19592209936E-01  0.88815842310E+00  0.88000000000E+00 0. -1.
        -11    1    4    4    0    0  0.46834848907E-01  0.10275187217E-01 -0.52603597275E-02  0.48239144374E-01  0.51100000000E-03 0. -1.
         11    1    4    4    0    0  0.77093429369E-01  0.26320388962E-01  0.15511316903E-01  0.82927810776E-01  0.51100000000E-03 0.  1.
</event>
<event>
 8    1  0.1109294E+005  0.1043930E+01  0.7957747E-01            NaN
         13   -1    0    0    0    0  0.00000000000E+00  0.00000000000E+00  0.74505805969E-08  0.10566000000E+00  0.10566000000E+00 0. -1.
     999900   -1    0    0    0    0 -0.00000000000E+00 -0.00000000000E+00 -0.74505805969E-08  0.93827000000E+00  0.93827000000E+00 0.  1.
     999902    2    1    2    0    0  0.22416935314E-01 -0.84294431805E-02  0.95573168524E-02  0.10181440192E+01  0.10178174330E+01 0.  0.
     999903    2    3    3    0    0 -0.48752041645E-01  0.11150175296E+00  0.30133689909E-01  0.12692468467E+00  0.19809942792E-01 0.  0.
         14    1    1    2    0    0 -0.22416935314E-01  0.84294431805E-02 -0.95573168524E-02  0.25785980815E-01  0.00000000000E+00 0.  1.
     999901    1    3    3    0    0  0.71168976959E-01 -0.11993119614E+00 -0.20576373056E-01  0.89121933452E+00  0.88000000000E+00 0.  1.
        -11    1    4    4    0    0 -0.90341822251E-02  0.18168861216E-01  0.12866135768E-01  0.24031698586E-01  0.51100000000E-03 0.  1.
         11    1    4    4    0    0 -0.39717859420E-01  0.93332891742E-01  0.17267554141E-01  0.10289298608E+00  0.51100000000E-03 0. -1.
</event>
<event>
 8    1  0.1109294E+005  0.1043930E+01  0.7957747E-01            NaN
         13   -1    0    0    0    0  0.00000000000E+00  0.00000000000E+00  0.74505805969E-08  0.10566000000E+00  0.10566000000E+00 0.  1.
     999900   -1    0    0    0    0 -0.00000000000E+00 -0.00000000000E+00 -0.74505805969E-08  0.93827000000E+00  0.93827000000E+00 0. -1.
     999902    2    1    2    0    0 -0.19730612770E-03 -0.17451096187E-01  0.16525567010E-01  0.10198951492E+01  0.10196119072E+01 0.  0.
     999903    2    3    3    0    0  0.96196059413E-01 -0.12536366985E-01 -0.82693044291E-01  0.12907520763E+00  0.20283670916E-01 0.  0.
         14    1    1    2    0    0  0.19730612770E-03  0.17451096187E-01 -0.16525567010E-01  0.24034850797E-01  0.00000000000E+00 0. -1.
     999901    1    3    3    0    0 -0.96393365540E-01 -0.49147292019E-02  0.99218611301E-01  0.89081994158E+00  0.88000000000E+00 0. -1.
        -11    1    4    4    0    0  0.51956820470E-01  0.33521209699E-02 -0.41835519076E-01  0.66792362480E-01  0.51100000000E-03 0.  1.
         11    1    4    4    0    0  0.44239238943E-01 -0.15888487955E-01 -0.40857525215E-01  0.62282845146E-01  0.51100000000E-03 0. -1.
</event>
<event>
 7    1  0.1109294E+005  0.1043930E+01  0.7957747E-01            NaN
         13   -1    0    0    0    0  0.00000000000E+00  0.00000000000E+00  0.74505805969E-08  0.10566000000E+00  0.10566000000E+00 0. -1.
     999900   -1    0    0    0    0 -0.00000000000E+00 -0.00000000000E+00 -0.74505805969E-08  0.93827000000E+00  0.93827000000E+00 0.  1.
     999903    2    1    2    0    0 -0.13976470371E-01 -0.67056843654E-01 -0.76736947120E-01  0.10492491442E+00  0.20705472915E-01 0.  0.
         14    1    1    2    0    0  0.56871997549E-02 -0.77732994759E-02  0.54672886973E-01  0.55514799790E-01  0.00000000000E+00 0. -1.
     999901    1    1    2    0    0  0.82892706156E-02  0.74830143130E-01  0.22064060148E-01  0.88349028579E+00  0.88000000000E+00 0.  1.
        -11    1    3    3    0    0 -0.16994515694E-01 -0.62276528692E-01 -0.63638155193E-01  0.90649078909E-01  0.51100000000E-03 0. -1.
         11    1    3    3    0    0  0.30180453232E-02 -0.47803149622E-02 -0.13098791927E-01  0.14275835515E-01  0.51100000000E-03 0.  1.
</event>
<event>
 8    1  0.1109294E+005  0.1043930E+01  0.7957747E-01            NaN
         13   -1    0    0    0    0  0.00000000000E+00  0.00000000000E+00  0.74505805969E-08  0.10566000000E+00  0.10566000000E+00 0. -1.
     999900   -1    0    0    0    0 -0.00000000000E+00 -0.00000000000E+00 -0.74505805969E-08  0.93827000000E+00  0.93827000000E+00 0.  1.
     999902    2    1    2    0    0  0.46505859725E-02 -0.90710948797E-02  0.20840220616E-01  0.10207302692E+01  0.10204665869E+01 0.  0.
     999903    2    3    3    0    0  0.67219303883E-01 -0.55346373785E-01 -0.94234093789E-01  0.12983277584E+00  0.19870313160E-01 0.  0.
         14    1    1    2    0    0 -0.46505859725E-02  0.90710948797E-02 -0.20840220616E-01  0.23199730764E-01  0.00000000000E+00 0.  1.
     999901    1    3    3    0    0 -0.62568717910E-01  0.46275278905E-01  0.11507431441E+00  0.89089749339E+00  0.88000000000E+00 0. -1.
        -11    1    4    4    0    0  0.57519053639E-01 -0.42714208906E-01 -0.66001678329E-01  0.97413694300E-01  0.51100000000E-03 0.  1.
         11    1    4    4    0    0  0.97002502438E-02 -0.12632164879E-01 -0.28232415461E-01  0.32419081543E-01  0.51100000000E-03 0. -1.
</event>
<event>
 8    1  0.1109294E+005  0.1043930E+01  0.7957747E-01            NaN
         13   -1    0    0    0    0  0.00000000000E+00  0.00000000000E+00  0.74505805969E-08  0.10566000000E+00  0.10566000000E+00 0. -1.
     999900   -1    0    0    0    0 -0.00000000000E+00 -0.00000000000E+00 -0.74505805969E-08  0.93827000000E+00  0.93827000000E+00 0. -1.
     999902    2    1    2    0    0 -0.11679158432E-01 -0.43997711675E-02  0.22438630783E-01  0.10182540798E+01  0.10179303110E+01 0.  0.
     999903    2    3    3    0    0 -0.11737625928E-01  0.11683664145E+00  0.50912234601E-01  0.12948582130E+00  0.19645600982E-01 0.  0.
         14    1    1    2    0    0  0.11679158432E-01  0.43997711675E-02 -0.22438630783E-01  0.25675920226E-01  0.00000000000E+00 0.  1.
     999901    1    3    3    0    0  0.58467495706E-04 -0.12123641261E+00 -0.28473603817E-01  0.88876825848E+00  0.88000000000E+00 0.  1.
        -11    1    4    4    0    0 -0.13043184183E-01  0.79229487702E-01  0.26198970826E-01  0.84463504358E-01  0.51100000000E-03 0. -1.
         11    1    4    4    0    0  0.13055582547E-02  0.37607153745E-01  0.24713263774E-01  0.45022316939E-01  0.51100000000E-03 0.  1.
</event>
<event>
 8    1  0.1109294E+005  0.1043930E+01  0.7957747E-01            NaN
         13   -1    0    0    0    0  0.00000000000E+00  0.00000000000E+00  0.74505805969E-08  0.10566000000E+00  0.10566000000E+00 0. -1.
     999900   -1    0    0    0    0 -0.00000000000E+00 -0.00000000000E+00 -0.74505805969E-08  0.93827000000E+00  0.93827000000E+00 0. -1.
     999902    2    1    2    0    0 -0.86345384036E-02 -0.23126485263E-01  0.36046869799E-02  0.10189823880E+01  0.10186769477E+01 0.  0.
     999903    2    3    3    0    0 -0.11969303100E+00  0.83986977256E-02  0.46964590481E-01  0.13038354314E+00  0.19930774435E-01 0.  0.
         14    1    1    2    0    0  0.86345384036E-02  0.23126485263E-01 -0.36046869799E-02  0.24947611955E-01  0.00000000000E+00 0. -1.
     999901    1    3    3    0    0  0.11105849259E+00 -0.31525182988E-01 -0.43359903501E-01  0.88859884491E+00  0.88000000000E+00 0. -1.
        -11    1    4    4    0    0 -0.63649875642E-02 -0.23070556023E-02 -0.98995211079E-03  0.68612461278E-02  0.51100000000E-03 0.  1.
         11    1    4    4    0    0 -0.11332804343E+00  0.10705753328E-01  0.47954542592E-01  0.12352229701E+00  0.51100000000E-03 0. -1.
</event>
<event>
 8    1  0.1109294E+005  0.1043930E+01  0.7957747E-01            NaN
         13   -1    0    0    0    0  0.00000000000E+00  0.00000000000E+00  0.74505805969E-08  0.10566000000E+00  0.10566000000E+00 0.  1.
     999900   -1    0    0    0    0 -0.00000000000E+00 -0.00000000000E+00 -0.74505805969E-08  0.93827000000E+00  0.93827000000E+00 0. -1.
     999902    2    1    2    0    0  0.12031940031E-01 -0.20074796781E-01  0.67930139600E-02  0.10195597295E+01  0.10192684298E+01 0.  0.
     999903    2    3    3    0    0  0.11915683525E+00  0.61151085643E-03 -0.53214250143E-01  0.13079399080E+00  0.87513586324E-02 0.  0.
         14    1    1    2    0    0 -0.12031940031E-01  0.20074796781E-01 -0.67930139600E-02  0.24370270523E-01  0.00000000000E+00 0. -1.
     999901    1    3    3    0    0 -0.10712489522E+00 -0.20686307637E-01  0.60007264103E-01  0.88876573868E+00  0.88000000000E+00 0.  1.
        -11    1    4    4    0    0  0.41195342968E-01  0.40353082964E-02 -0.16735150983E-01  0.44650491539E-01  0.51100000000E-03 0.  1.
         11    1    4    4    0    0  0.77961492287E-01 -0.34237974399E-02 -0.36479099160E-01  0.86143499262E-01  0.51100000000E-03 0. -1.
</event>
<event>
 8    1  0.1109294E+005  0.1043930E+01  0.7957747E-01            NaN
         13   -1    0    0    0    0  0.00000000000E+00  0.00000000000E+00  0.74505805969E-08  0.10566000000E+00  0.10566000000E+00 0.  1.
     999900   -1    0    0    0    0 -0.00000000000E+00 -0.00000000000E+00 -0.74505805969E-08  0.93827000000E+00  0.93827000000E+00 0. -1.
     999902    2    1    2    0    0 -0.20805926737E-01  0.11512590227E-01 -0.38511337528E-02  0.10198414643E+01  0.10195569404E+01 0.  0.
     999903    2    3    3    0    0  0.79602383851E-01 -0.48744291848E-01 -0.85883034483E-01  0.12830237182E+00  0.19314696500E-01 0.  0.
         14    1    1    2    0    0  0.20805926737E-01 -0.11512590227E-01  0.38511337528E-02  0.24088535703E-01  0.00000000000E+00 0.  1.
     999901    1    3    3    0    0 -0.10040831059E+00  0.60256882075E-01  0.82031900730E-01  0.89153909247E+00  0.88000000000E+00 0.  1.
        -11    1    4    4    0    0  0.32047004425E-01 -0.95219905866E-02 -0.34586108760E-01  0.48105496958E-01  0.51100000000E-03 0.  1.
         11    1    4    4    0    0  0.47555379425E-01 -0.39222301261E-01 -0.51296925723E-01  0.80196874865E-01  0.51100000000E-03 0. -1.
</event>
<event>
 8    1  0.1109294E+005  0.1043930E+01  0.7957747E-01            NaN
         13   -1    0    0    0    0  0.00000000000E+00  0.00000000000E+00  0.74505805969E-08  0.10566000000E+00  0.10566000000E+00 0.  1.
     999900   -1    0    0    0    0 -0.00000000000E+00 -0.00000000000E+00 -0.74505805969E-08  0.93827000000E+00  0.93827000000E+00 0. -1.
     999902    2    1    2    0    0  0.67551100227E-02  0.78166935678E-02  0.22550809097E-01  0.10191253391E+01  0.10188234320E+01 0.  0.
     999903    2    3    3    0    0 -0.75569996322E-01  0.41344955190E-01 -0.91665854489E-01  0.12730303974E+00  0.19575632378E-01 0.  0.
         14    1    1    2    0    0 -0.67551100227E-02 -0.78166935678E-02 -0.22550809097E-01  0.24804660866E-01  0.00000000000E+00 0. -1.
     999901    1    3    3    0    0  0.82325106345E-01 -0.33528261622E-01  0.11421666359E+00  0.89182229940E+00  0.88000000000E+00 0.  1.
        -11    1    4    4    0    0 -0.17815220491E-01  0.18872709065E-01 -0.32784750531E-01  0.41817008704E-01  0.51100000000E-03 0.  1.
         11    1    4    4    0    0 -0.57754775831E-01  0.22472246125E-01 -0.58881103959E-01  0.85486031032E-01  0.51100000000E-03 0. -1.
</event>
<event>
 8    1  0.1109294E+005  0.1043930E+01  0.7957747E-01            NaN
         13   -1    0    0    0    0  0.00000000000E+00  0.00000000000E+00  0.74505805969E-08  0.10566000000E+00  0.10566000000E+00 0.  1.
     999900   -1    0    0    0    0 -0.00000000000E+00 -0.00000000000E+00 -0.74505805969E-08  0.93827000000E+00  0.93827000000E+00 0.  1.
     999902    2    1    2    0    0 -0.20633761445E-01  0.12093418206E-01  0.21213160084E-02  0.10199195261E+01  0.10196368652E+01 0.  0.
     999903    2    3    3    0    0  0.20907566642E-02  0.10602736438E+00  0.73160856698E-01  0.13178293396E+00  0.27713849766E-01 0.  0.
         14    1    1    2    0    0  0.20633761445E-01 -0.12093418206E-01 -0.21213160084E-02  0.24010473899E-01  0.00000000000E+00 0. -1.
     999901    1    3    3    0    0 -0.22724518109E-01 -0.93933946171E-01 -0.71039540690E-01  0.88813659215E+00  0.88000000000E+00 0.  1.
        -11    1    4    4    0    0 -0.49480196024E-02  0.10045469149E+00  0.66163612133E-01  0.12038900544E+00  0.51100000000E-03 0. -1.
         11    1    4    4    0    0  0.70387762666E-02  0.55726728903E-02  0.69972445657E-02  0.11393928514E-01  0.51100000000E-03 0.  1.
</event>
<event>
 8    1  0.1109294E+005  0.1043930E+01  0.7957747E-01            NaN
         13   -1    0    0    0    0  0.00000000000E+00  0.00000000000E+00  0.74505805969E-08  0.10566000000E+00  0.10566000000E+00 0. -1.
     999900   -1    0    0    0    0 -0.00000000000E+00 -0.00000000000E+00 -0.74505805969E-08  0.93827000000E+00  0.93827000000E+00 0. -1.
     999902    2    1    2    0    0 -0.18579064950E-01  0.50116122922E-02 -0.34232731235E-02  0.10243847522E+01  0.10241982737E+01 0.  0.
     999903    2    3    3    0    0 -0.13025387323E+00 -0.34143596260E-01  0.90819413809E-02  0.13637530770E+00  0.19593014879E-01 0.  0.
         14    1    1    2    0    0  0.18579064950E-01 -0.50116122922E-02  0.34232731235E-02  0.19545247788E-01  0.00000000000E+00 0.  1.
     999901    1    3    3    0    0  0.11167480828E+00  0.39155208552E-01 -0.12505214504E-01  0.88800944452E+00  0.88000000000E+00 0.  1.
        -11    1    4    4    0    0 -0.64828407007E-01 -0.71730355923E-02  0.20474327807E-02  0.65258163449E-01  0.51100000000E-03 0.  1.
         11    1    4    4    0    0 -0.65425466226E-01 -0.26970560667E-01  0.70345086002E-02  0.71117144247E-01  0.51100000000E-03 0. -1.
</event>
<event>
 8    1  0.1109294E+005  0.1043930E+01  0.7957747E-01            NaN
         13   -1    0    0    0    0  0.00000000000E+00  0.00000000000E+00  0.74505805969E-08  0.10566000000E+00  0.10566000000E+00 0.  1.
     999900   -1    0    0    0    0 -0.00000000000E+00 -0.00000000000E+00 -0.74505805969E-08  0.93827000000E+00  0.93827000000E+00 0.  1.
     999902    2    1    2    0    0  0.15649928520E-01 -0.16032022485E-01  0.71465696135E-02  0.10204136341E+01  0.10201426200E+01 0.  0.
     999903    2    3    3    0    0 -0.17746817945E-01 -0.86640380260E-03  0.12871728853E+00  0.13129903049E+00  0.18857222413E-01 0.  0.
         14    1    1    2    0    0 -0.15649928520E-01  0.16032022485E-01 -0.71465696135E-02  0.23516365895E-01  0.00000000000E+00 0. -1.
     999901    1    3    3    0    0  0.33396746465E-01 -0.15165618683E-01 -0.12157071892E+00  0.88911460362E+00  0.88000000000E+00 0.  1.
        -11    1    4    4    0    0 -0.79069433355E-02  0.65268608735E-02  0.91988803668E-01  0.92559822747E-01  0.51100000000E-03 0. -1.
         11    1    4    4    0    0 -0.98398746094E-02 -0.73932646761E-02  0.36728484866E-01  0.38739207742E-01  0.51100000000E-03 0.  1.
</event>
<event>
 8    1  0.1109294E+005  0.1043930E+01  0.7957747E-01            NaN
         13   -1    0    0    0    0  0.00000000000E+00  0.00000000000E+00  0.74505805969E-08  0.10566000000E+00  0.10566000000E+00 0.  1.
     999900   -1    0    0    0    0 -0.00000000000E+00 -0.00000000000E+00 -0.74505805969E-08  0.93827000000E+00  0.93827000000E+00 0. -1.
     999902    2    1    2    0    0 -0.13397353150E-01  0.52641789091E-02  0.21989140531E-01  0.10176483914E+01  0.10173089627E+01 0.  0.
     999903    2    3    3    0    0 -0.26607002989E-01 -0.99994728775E-01  0.75433690111E-01  0.12966739361E+00  0.20408649427E-01 0.  0.
         14    1    1    2    0    0  0.13397353150E-01 -0.52641789091E-02 -0.21989140531E-01  0.26281608633E-01  0.00000000000E+00 0. -1.
     999901    1    3    3    0    0  0.13209649839E-01  0.10525890768E+00 -0.53444549580E-01  0.88798099776E+00  0.88000000000E+00 0. -1.
        -11    1    4    4    0    0 -0.29350911089E-02 -0.44294027482E-01  0.25449015617E-01  0.51171174964E-01  0.51100000000E-03 0. -1.
         11    1    4    4    0    0 -0.23671911880E-01 -0.55700701294E-01  0.49984674494E-01  0.78496218647E-01  0.51100000000E-03 0.  1.
</event>
<event>
 8    1  0.1109294E+005  0.1043930E+01  0.7957747E-01            NaN
         13   -1    0    0    0    0  0.00000000000E+00  0.00000000000E+00  0.74505805969E-08  0.10566000000E+00  0.10566000000E+00 0.  1.
     999900   -1    0    0    0    0 -0.00000000000E+00 -0.00000000000E+00 -0.74505805969E-08  0.93827000000E+00  0.93827000000E+00 0.  1.
     999902    2    1    2    0    0  0.21611387532E-01  0.11717749369E-01 -0.12097647625E-02  0.10193165636E+01  0.10190193499E+01 0.  0.
     999903    2    3    3    0    0 -0.25060361893E-01 -0.65796606899E-02  0.12463193985E+00  0.12895192928E+00  0.20595289763E-01 0.  0.
         14    1    1    2    0    0 -0.21611387532E-01 -0.11717749369E-01  0.12097647625E-02  0.24613436414E-01  0.00000000000E+00 0. -1.
     999901    1    3    3    0    0  0.46671749425E-01  0.18297410059E-01 -0.12584170461E+00  0.89036463431E+00  0.88000000000E+00 0.  1.
        -11    1    4    4    0    0 -0.15808740170E-04 -0.82841673944E-03  0.50164932872E-01  0.50174377278E-01  0.51100000000E-03 0.  1.
         11    1    4    4    0    0 -0.25044553153E-01 -0.57512439504E-02  0.74467006978E-01  0.78777551998E-01  0.51100000000E-03 0. -1.
</event>
<event>
 8    1  0.1109294E+005  0.1043930E+01  0.7957747E-01            NaN
         13   -1    0    0    0    0  0.00000000000E+00  0.00000000000E+00  0.74505805969E-08  0.10566000000E+00  0.10566000000E+00 0. -1.
     999900   -1    0    0    0    0 -0.00000000000E+00 -0.00000000000E+00 -0.74505805969E-08  0.93827000000E+00  0.93827000000E+00 0.  1.
     999902    2    1    2    0    0  0.31424560650E-02 -0.22960504429E-01 -0.27644794592E-02  0.10205911453E+01  0.10203242542E+01 0.  0.
     999903    2    3    3    0    0  0.51229467271E-01  0.36990772042E-01  0.11200086425E+00  0.12981754871E+00  0.17765889449E-01 0.  0.
         14    1    1    2    0    0 -0.31424560650E-02  0.22960504429E-01  0.27644794592E-02  0.23338854737E-01  0.00000000000E+00 0. -1.
     999901    1    3    3    0    0 -0.48087011206E-01 -0.59951276470E-01 -0.11476534371E+00  0.89077359655E+00  0.88000000000E+00 0.  1.
        -11    1    4    4    0    0  0.28096816175E-01  0.10196302496E-01  0.57919607694E-01  0.65179273855E-01  0.51100000000E-03 0. -1.
         11    1    4    4    0    0  0.23132651096E-01  0.26794469546E-01  0.54081256555E-01  0.64638274857E-01  0.51100000000E-03 0.  1.
</event>
<event>
 8    1  0.1109294E+005  0.1043930E+01  0.7957747E-01            NaN
         13   -1    0    0    0    0  0.00000000000E+00  0.00000000000E+00  0.74505805969E-08  0.10566000000E+00  0.10566000000E+00 0. -1.
     999900   -1    0    0    0    0 -0.00000000000E+00 -0.00000000000E+00 -0.74505805969E-08  0.93827000000E+00  0.93827000000E+00 0.  1.
     999902    2    1    2    0    0  0.50343839812E-04  0.42101894809E-02 -0.23374828204E-01  0.10201789827E+01  0.10199024688E+01 0.  0.
     999903    2    3    3    0    0 -0.11233185727E+00  0.62683263966E-01 -0.58830787124E-02  0.13093502242E+00  0.23700880603E-01 0.  0.
         14    1    1    2    0    0 -0.50343839812E-04 -0.42101894809E-02  0.23374828204E-01  0.23751017316E-01  0.00000000000E+00 0. -1.
     999901    1    3    3    0    0  0.11238220111E+00 -0.58473074485E-01 -0.17491749491E-01  0.88924396026E+00  0.88000000000E+00 0.  1.
        -11    1    4    4    0    0 -0.22407732364E-01  0.33095665143E-02 -0.48595923581E-02  0.23171889416E-01  0.51100000000E-03 0.  1.
         11    1    4    4    0    0 -0.89924124908E-01  0.59373697452E-01 -0.10234863544E-02  0.10776313300E+00  0.51100000000E-03 0. -1.
</event>
<event>
 8    1  0.1109294E+005  0.1043930E+01  0.7957747E-01            NaN
         13   -1    0    0    0    0  0.00000000000E+00  0.00000000000E+00  0.74505805969E-08  0.10566000000E+00  0.10566000000E+00 0. -1.
     999900   -1    0    0    0    0 -0.00000000000E+00 -0.00000000000E+00 -0.74505805969E-08  0.93827000000E+00  0.93827000000E+00 0.  1.
     999902    2    1    2    0    0 -0.11910102463E-01  0.15909133645E-01  0.13835058524E-01  0.10197151302E+01  0.10194275780E+01 0.  0.
     999903    2    3    3    0    0 -0.11189705490E-01 -0.53384706835E-01 -0.11386145613E+00  0.12780226724E+00  0.19845701977E-01 0.  0.
         14    1    1    2    0    0  0.11910102463E-01 -0.15909133645E-01 -0.13835058524E-01  0.24214869778E-01  0.00000000000E+00 0. -1.
     999901    1    3    3    0    0 -0.72039697267E-03  0.69293840480E-01  0.12769651465E+00  0.89191286298E+00  0.88000000000E+00 0. -1.
        -11    1    4    4    0    0  0.55525468985E-02 -0.13304413246E-01 -0.32888542247E-01  0.35913166402E-01  0.51100000000E-03 0. -1.
         11    1    4    4    0    0 -0.16742252388E-01 -0.40080293589E-01 -0.80972913881E-01  0.91889100837E-01  0.51100000000E-03 0.  1.
</event>
<event>
 8    1  0.1109294E+005  0.1043930E+01  0.7957747E-01            NaN
         13   -1    0    0    0    0  0.00000000000E+00  0.00000000000E+00  0.74505805969E-08  0.10566000000E+00  0.10566000000E+00 0.  1.
     999900   -1    0    0    0    0 -0.00000000000E+00 -0.00000000000E+00 -0.74505805969E-08  0.93827000000E+00  0.93827000000E+00 0. -1.
     999902    2    1    2    0    0 -0.75080713697E-02 -0.10856313367E-01  0.20661922738E-01  0.10194117267E+01  0.10191168347E+01 0.  0.
     999903    2    3    3    0    0  0.12343332388E+00 -0.34119174684E-02 -0.27577122497E-01  0.12838531096E+00  0.21791368957E-01 0.  0.
         14    1    1    2    0    0  0.75080713697E-02  0.10856313367E-01 -0.20661922738E-01  0.24518273325E-01  0.00000000000E+00 0. -1.
     999901    1    3    3    0    0 -0.13094139525E+00 -0.74443958985E-02  0.48239045235E-01  0.89102641572E+00  0.88000000000E+00 0.  1.
        -11    1    4    4    0    0  0.49981561101E-01 -0.37215993783E-02 -0.21943208165E-01  0.54715374965E-01  0.51100000000E-03 0. -1.
         11    1    4    4    0    0  0.73451762775E-01  0.30968190991E-03 -0.56339143318E-02  0.73669935994E-01  0.51100000000E-03 0.  1.
</event>
<event>
 8    1  0.1109294E+005  0.1043930E+01  0.7957747E-01            NaN
         13   -1    0    0    0    0  0.00000000000E+00  0.00000000000E+00  0.74505805969E-08  0.10566000000E+00  0.10566000000E+00 0. -1.
     999900   -1    0    0    0    0 -0.00000000000E+00 -0.00000000000E+00 -0.74505805969E-08  0.93827000000E+00  0.93827000000E+00 0. -1.
     999902    2    1    2    0    0  0.60725147469E-02 -0.21689356391E-01 -0.68972767771E-02  0.10203741930E+01  0.10201022585E+01 0.  0.
     999903    2    3    3    0    0  0.47685916480E-01  0.91869434021E-01 -0.75125681775E-01  0.12948565378E+00  0.20216996182E-01 0.  0.
         14    1    1    2    0    0 -0.60725147469E-02  0.21689356391E-01  0.68972767771E-02  0.23555806990E-01  0.00000000000E+00 0.  1.
     999901    1    3    3    0    0 -0.41613401733E-01 -0.11355879041E+00  0.68228404998E-01  0.89088853923E+00  0.88000000000E+00 0.  1.
        -11    1    4    4    0    0  0.22567847289E-01  0.31370791591E-01 -0.18285395492E-01  0.42755714303E-01  0.51100000000E-03 0.  1.
         11    1    4    4    0    0  0.25118069191E-01  0.60498642430E-01 -0.56840286283E-01  0.86729939476E-01  0.51100000000E-03 0. -1.
</event>
<event>
 7    1  0.1109294E+005  0.1043930E+01  0.7957747E-01            NaN
         13   -1    0    0    0    0  0.00000000000E+00  0.00000000000E+00  0.74505805969E-08  0.10566000000E+00  0.10566000000E+00 0.  1.
     999900   -1    0    0    0    0 -0.00000000000E+00 -0.00000000000E+00 -0.74505805969E-08  0.93827000000E+00  0.93827000000E+00 0.  1.
     999903    2    1    2    0    0  0.10105783782E-01  0.68531168723E-01  0.77887197657E-01  0.10609677108E+00  0.19785381509E-01 0.  0.
         14    1    1    2    0    0 -0.38268012353E-01  0.50068375897E-02 -0.36854858348E-01  0.53364686601E-01  0.00000000000E+00 0. -1.
     999901    1    1    2    0    0  0.28162228572E-01 -0.73538006312E-01 -0.41032339309E-01  0.88446854232E+00  0.88000000000E+00 0.  1.
        -11    1    3    3    0    0  0.15752450620E-01  0.41589169098E-01  0.49703144443E-01  0.66696794340E-01  0.51100000000E-03 0.  1.
         11    1    3    3    0    0 -0.56466668379E-02  0.26941999625E-01  0.28184053214E-01  0.39399976735E-01  0.51100000000E-03 0. -1.
</event>
<event>
 8    1  0.1109294E+005  0.1043930E+01  0.7957747E-01            NaN
         13   -1    0    0    0    0  0.00000000000E+00  0.00000000000E+00  0.74505805969E-08  0.10566000000E+00  0.10566000000E+00 0. -1.
     999900   -1    0    0    0    0 -0.00000000000E+00 -0.00000000000E+00 -0.74505805969E-08  0.93827000000E+00  0.93827000000E+00 0. -1.
     999902    2    1    2    0    0 -0.14649909701E-01  0.32103893331E-02  0.16920023528E-01  0.10213199657E+01  0.10210696640E+01 0.  0.
     999903    2    3    3    0    0 -0.18982516127E-01  0.12846499086E+00  0.17014840357E-01  0.13244005501E+00  0.19679267846E-01 0.  0.
         14    1    1    2    0    0  0.14649909701E-01 -0.32103893331E-02 -0.16920023528E-01  0.22610034279E-01  0.00000000000E+00 0.  1.
     999901    1    3    3    0    0  0.43326064265E-02 -0.12525460153E+00 -0.94816829393E-04  0.88887991071E+00  0.88000000000E+00 0. -1.
        -11    1    4    4    0    0 -0.69332919365E-02  0.10143205495E+00  0.14998539142E-01  0.10277037319E+00  0.51100000000E-03 0. -1.
         11    1    4    4    0    0 -0.12049224191E-01  0.27032935908E-01  0.20163012156E-02  0.29669681815E-01  0.51100000000E-03 0.  1.
</event>
<event>
 8    1  0.1109294E+005  0.1043930E+01  0.7957747E-01            NaN
         13   -1    0    0    0    0  0.00000000000E+00  0.00000000000E+00  0.74505805969E-08  0.10566000000E+00  0.10566000000E+00 0. -1.
     999900   -1    0    0    0    0 -0.00000000000E+00 -0.00000000000E+00 -0.74505805969E-08  0.93827000000E+00  0.93827000000E+00 0.  1.
     999902    2    1    2    0    0 -0.55970153082E-02  0.20569368369E-01 -0.10559034021E-01  0.10201409543E+01  0.10198635438E+01 0.  0.
     999903    2    3    3    0    0  0.89611237539E-01  0.75804844954E-01 -0.56987532304E-01  0.13206934980E+00  0.20449594283E-01 0.  0.
         14    1    1    2    0    0  0.55970153082E-02 -0.20569368369E-01  0.10559034021E-01  0.23789045692E-01  0.00000000000E+00 0.  1.
     999901    1    3    3    0    0 -0.95208252847E-01 -0.55235476585E-01  0.46428498283E-01  0.88807160451E+00  0.88000000000E+00 0. -1.
        -11    1    4    4    0    0  0.72754976792E-01  0.51745638595E-01 -0.37646472266E-01  0.96893837557E-01  0.51100000000E-03 0. -1.
         11    1    4    4    0    0  0.16856260747E-01  0.24059206360E-01 -0.19341060038E-01  0.35175512241E-01  0.51100000000E-03 0.  1.
</event>
<event>
 8    1  0.1109294E+005  0.1043930E+01  0.7957747E-01            NaN
         13   -1    0    0    0    0  0.00000000000E+00  0.00000000000E+00  0.74505805969E-08  0.10566000000E+00  0.10566000000E+00 0.  1.
     999900   -1    0    0    0    0 -0.00000000000E+00 -0.00000000000E+00 -0.74505805969E-08  0.93827000000E+00  0.93827000000E+00 0.  1.
     999902    2    1    2    0    0  0.23311298668E-01  0.45005686035E-02 -0.15923855309E-02  0.10201348859E+01  0.10198573322E+01 0.  0.
     999903    2    3    3    0    0  0.16038781661E-02  0.12642599394E+00  0.27610640177E-01  0.13098369619E+00  0.20205861701E-01 0.  0.
         14    1    1    2    0    0 -0.23311298668E-01 -0.45005686035E-02  0.15923855309E-02  0.23795114099E-01  0.00000000000E+00 0.  1.
     999901    1    3    3    0    0  0.21707420501E-01 -0.12192542534E+00 -0.29203025708E-01  0.88915118971E+00  0.88000000000E+00 0.  1.
        -11    1    4    4    0    0 -0.82775062672E-02  0.52585507515E-01  0.70657969931E-02  0.53702321354E-01  0.51100000000E-03 0.  1.
         11    1    4    4    0    0  0.98813844333E-02  0.73840486430E-01  0.20544843184E-01  0.77281374838E-01  0.51100000000E-03 0. -1.
</event>
<event>
 8    1  0.1109294E+005  0.1043930E+01  0.7957747E-01            NaN
         13   -1    0    0    0    0  0.00000000000E+00  0.00000000000E+00  0.74505805969E-08  0.10566000000E+00  0.10566000000E+00 0. -1.
     999900   -1    0    0    0    0 -0.00000000000E+00 -0.00000000000E+00 -0.74505805969E-08  0.93827000000E+00  0.93827000000E+00 0.  1.
     999902    2    1    2    0    0  0.79601543039E-02  0.21075165421E-01 -0.88848522208E-02  0.10197129140E+01  0.10194253086E+01 0.  0.
     999903    2    3    3    0    0 -0.50142042521E-01 -0.11442080960E+00  0.11889796422E-01  0.12720710982E+00  0.20831116918E-01 0.  0.
         14    1    1    2    0    0 -0.79601543039E-02 -0.21075165421E-01  0.88848522208E-02  0.24217085973E-01  0.00000000000E+00 0. -1.
     999901    1    3    3    0    0  0.58102196825E-01  0.13549597502E+00 -0.20774648643E-01  0.89250580421E+00  0.88000000000E+00 0. -1.
        -11    1    4    4    0    0 -0.15714917440E-01 -0.18537112378E-01 -0.19860314349E-02  0.24388288323E-01  0.51100000000E-03 0.  1.
         11    1    4    4    0    0 -0.34427125081E-01 -0.95883697219E-01  0.13875827857E-01  0.10281882149E+00  0.51100000000E-03 0. -1.
</event>
<event>
 8    1  0.1109294E+005  0.1043930E+01  0.7957747E-01            NaN
         13   -1    0    0    0    0  0.00000000000E+00  0.00000000000E+00  0.74505805969E-08  0.10566000000E+00  0.10566000000E+00 0.  1.
     999900   -1    0    0    0    0 -0.00000000000E+00 -0.00000000000E+00 -0.74505805969E-08  0.93827000000E+00  0.93827000000E+00 0. -1.
     999902    2    1    2    0    0  0.33259338560E-02 -0.18043133368E-01 -0.15941420368E-01  0.10196247458E+01  0.10193350170E+01 0.  0.
     999903    2    3    3    0    0 -0.10929209581E+00  0.27396905684E-01  0.57836942689E-01  0.12822648207E+00  0.20039114635E-01 0.  0.
         14    1    1    2    0    0 -0.33259338560E-02  0.18043133368E-01  0.15941420368E-01  0.24305254188E-01  0.00000000000E+00 0.  1.
     999901    1    3    3    0    0  0.11261802967E+00 -0.45440039052E-01 -0.73778363058E-01  0.89139826375E+00  0.88000000000E+00 0. -1.
        -11    1    4    4    0    0 -0.74101968932E-01  0.19757551229E-01  0.49439935799E-01  0.91247087641E-01  0.51100000000E-03 0. -1.
         11    1    4    4    0    0 -0.35190126880E-01  0.76393544548E-02  0.83970068904E-02  0.36979394425E-01  0.51100000000E-03 0.  1.
</event>
<event>
 8    1  0.1109294E+005  0.1043930E+01  0.7957747E-01            NaN
         13   -1    0    0    0    0  0.00000000000E+00  0.00000000000E+00  0.74505805969E-08  0.10566000000E+00  0.10566000000E+00 0. -1.
     999900   -1    0    0    0    0 -0.00000000000E+00 -0.00000000000E+00 -0.74505805969E-08  0.93827000000E+00  0.93827000000E+00 0.  1.
     999902    2    1    2    0    0 -0.69756128257E-03 -0.21104014698E-01 -0.87381875783E-02  0.10210778239E+01  0.10208220710E+01 0.  0.
     999903    2    3    3    0    0 -0.61473239989E-01 -0.10946424130E+00 -0.44279976671E-01  0.13385494804E+00  0.13966081160E-01 0.  0.
         14    1    1    2    0    0  0.69756128257E-03  0.21104014698E-01  0.87381875783E-02  0.22852176051E-01  0.00000000000E+00 0. -1.
     999901    1    3    3    0    0  0.60775678706E-01  0.88360226599E-01  0.35541789093E-01  0.88722287591E+00  0.88000000000E+00 0. -1.
        -11    1    4    4    0    0 -0.17450255783E-01 -0.21015712731E-01 -0.12719199562E-01  0.30136535418E-01  0.51100000000E-03 0. -1.
         11    1    4    4    0    0 -0.44022984206E-01 -0.88448528566E-01 -0.31560777109E-01  0.10371841262E+00  0.51100000000E-03 0.  1.
</event>
<event>
 8    1  0.1109294E+005  0.1043930E+01  0.7957747E-01            NaN
         13   -1    0    0    0    0  0.00000000000E+00  0.00000000000E+00  0.74505805969E-08  0.10566000000E+00  0.10566000000E+00 0.  1.
     999900   -1    0    0    0    0 -0.00000000000E+00 -0.00000000000E+00 -0.74505805969E-08  0.93827000000E+00  0.93827000000E+00 0. -1.
     999902    2    1    2    0    0 -0.10099537321E-01 -0.84071276349E-02 -0.19039811966E-01  0.10207957205E+01  0.10205335409E+01 0.  0.
     999903    2    3    3    0    0 -0.28986268727E-01 -0.90772268935E-01 -0.91768269912E-01  0.13376124893E+00  0.19769870268E-01 0.  0.
         14    1    1    2    0    0  0.10099537321E-01  0.84071276349E-02  0.19039811966E-01  0.23134279519E-01  0.00000000000E+00 0.  1.
     999901    1    3    3    0    0  0.18886731406E-01  0.82365141300E-01  0.72728457946E-01  0.88703447155E+00  0.88000000000E+00 0.  1.
        -11    1    4    4    0    0 -0.17679663616E-01 -0.35232962054E-01 -0.27487979123E-01  0.48060193902E-01  0.51100000000E-03 0.  1.
         11    1    4    4    0    0 -0.11306605111E-01 -0.55539306881E-01 -0.64280290789E-01  0.85701055028E-01  0.51100000000E-03 0. -1.
</event>
<event>
 8    1  0.1109294E+005  0.1043930E+01  0.7957747E-01            NaN
         13   -1    0    0    0    0  0.00000000000E+00  0.00000000000E+00  0.74505805969E-08  0.10566000000E+00  0.10566000000E+00 0. -1.
     999900   -1    0    0    0    0 -0.00000000000E+00 -0.00000000000E+00 -0.74505805969E-08  0.93827000000E+00  0.93827000000E+00 0.  1.
     999902    2    1    2    0    0 -0.21943475286E-01 -0.40533099295E-02 -0.77225003712E-02  0.10203168164E+01  0.10200435399E+01 0.  0.
     999903    2    3    3    0    0 -0.62085693582E-01 -0.91882106544E-01  0.68312440639E-01  0.13177497298E+00  0.20027458839E-01 0.  0.
         14    1    1    2    0    0  0.21943475286E-01  0.40533099295E-02  0.77225003712E-02  0.23613183627E-01  0.00000000000E+00 0.  1.
     999901    1    3    3    0    0  0.40142218296E-01  0.87828796615E-01 -0.76034941010E-01  0.88854184339E+00  0.88000000000E+00 0.  1.
        -11    1    4    4    0    0 -0.30006465091E-01 -0.60125542406E-01  0.35774678175E-01  0.76128559138E-01  0.51100000000E-03 0. -1.
         11    1    4    4    0    0 -0.32079228492E-01 -0.31756564138E-01  0.32537762464E-01  0.55646413843E-01  0.51100000000E-03 0.  1.
</event>
<event>
 8    1  0.1109294E+005  0.1043930E+01  0.7957747E-01            NaN
         13   -1    0    0    0    0  0.00000000000E+00  0.00000000000E+00  0.74505805969E-08  0.10566000000E+00  0.10566000000E+00 0.  1.
     999900   -1    0    0    0    0 -0.00000000000E+00 -0.00000000000E+00 -0.74505805969E-08  0.93827000000E+00  0.93827000000E+00 0.  1.
     999902    2    1    2    0    0  0.23136411868E-01 -0.36976263139E-02  0.19778552825E-02  0.10204166441E+01  0.10201457002E+01 0.  0.
     999903    2    3    3    0    0 -0.11802946060E+00  0.21077099221E-01  0.40122311725E-01  0.12800609388E+00  0.20014057301E-01 0.  0.
         14    1    1    2    0    0 -0.23136411868E-01  0.36976263139E-02 -0.19778552825E-02  0.23513355907E-01  0.00000000000E+00 0.  1.
     999901    1    3    3    0    0  0.14116587247E+00 -0.24774725535E-01 -0.38144456443E-01  0.89241055021E+00  0.88000000000E+00 0.  1.
        -11    1    4    4    0    0 -0.66656874098E-01  0.31347695137E-02  0.16893479864E-01  0.68837609105E-01  0.51100000000E-03 0. -1.
         11    1    4    4    0    0 -0.51372586507E-01  0.17942329708E-01  0.23228831861E-01  0.59168484773E-01  0.51100000000E-03 0.  1.
</event>
<event>
 8    1  0.1109294E+005  0.1043930E+01  0.7957747E-01            NaN
         13   -1    0    0    0    0  0.00000000000E+00  0.00000000000E+00  0.74505805969E-08  0.10566000000E+00  0.10566000000E+00 0. -1.
     999900   -1    0    0    0    0 -0.00000000000E+00 -0.00000000000E+00 -0.74505805969E-08  0.93827000000E+00  0.93827000000E+00 0.  1.
     999902    2    1    2    0    0 -0.11504405331E-01 -0.13856628529E-01 -0.16756633998E-01  0.10193303602E+01  0.10190334837E+01 0.  0.
     999903    2    3    3    0    0 -0.19447300714E-01  0.11253473162E+00 -0.57540874936E-01  0.12932967489E+00  0.19311892556E-01 0.  0.
         14    1    1    2    0    0  0.11504405331E-01  0.13856628529E-01  0.16756633998E-01  0.24599639817E-01  0.00000000000E+00 0. -1.
     999901    1    3    3    0    0  0.79428953831E-02 -0.12639136015E+00  0.40784240938E-01  0.89000068529E+00  0.88000000000E+00 0. -1.
        -11    1    4    4    0    0 -0.12944049115E-01  0.46378258890E-01 -0.15123794004E-01  0.50472582371E-01  0.51100000000E-03 0.  1.
         11    1    4    4    0    0 -0.65032515989E-02  0.66156472728E-01 -0.42417080932E-01  0.78857092522E-01  0.51100000000E-03 0. -1.
</event>
<event>
 8    1  0.1109294E+005  0.1043930E+01  0.7957747E-01            NaN
         13   -1    0    0    0    0  0.00000000000E+00  0.00000000000E+00  0.74505805969E-08  0.10566000000E+00  0.10566000000E+00 0.  1.
     999900   -1    0    0    0    0 -0.00000000000E+00 -0.00000000000E+00 -0.74505805969E-08  0.93827000000E+00  0.93827000000E+00 0. -1.
     999902    2    1    2    0    0 -0.23900608589E-01  0.38945659460E-02 -0.20034862057E-02  0.10196314261E+01  0.10193418585E+01 0.  0.
     999903    2    3    3    0    0  0.76731854221E-01  0.92976725273E-01 -0.39965410437E-01  0.12861872624E+00  0.20324709449E-01 0.  0.
         14    1    1    2    0    0  0.23900608589E-01 -0.38945659460E-02  0.20034862057E-02  0.24298573864E-01  0.00000000000E+00 0. -1.
     999901    1    3    3    0    0 -0.10063246281E+00 -0.89082159327E-01  0.37961924232E-01  0.89101269989E+00  0.88000000000E+00 0.  1.
        -11    1    4    4    0    0  0.52383106456E-01  0.70027256146E-01 -0.37215777516E-01  0.95042525547E-01  0.51100000000E-03 0.  1.
         11    1    4    4    0    0  0.24348747764E-01  0.22949469127E-01 -0.27496329216E-02  0.33576200695E-01  0.51100000000E-03 0. -1.
</event>
<event>
 8    1  0.1109294E+005  0.1043930E+01  0.7957747E-01            NaN
         13   -1    0    0    0    0  0.00000000000E+00  0.00000000000E+00  0.74505805969E-08  0.10566000000E+00  0.10566000000E+00 0. -1.
     999900   -1    0    0    0    0 -0.00000000000E+00 -0.00000000000E+00 -0.74505805969E-08  0.93827000000E+00  0.93827000000E+00 0. -1.
     999902    2    1    2    0    0  0.21313805836E-01  0.10516962192E-01  0.43647865930E-02  0.10197652286E+01  0.10194788793E+01 0.  0.
     999903    2    3    3    0    0 -0.10550899321E+00  0.29879701989E-01 -0.62352029396E-01  0.12796364107E+00  0.21493571781E-01 0.  0.
         14    1    1    2    0    0 -0.21313805836E-01 -0.10516962192E-01 -0.43647865930E-02  0.24164771362E-01  0.00000000000E+00 0. -1.
     999901    1    3    3    0    0  0.12682279904E+00 -0.19362739796E-01  0.66716815989E-01  0.89180158757E+00  0.88000000000E+00 0. -1.
        -11    1    4    4    0    0 -0.52586745194E-01  0.25675590390E-01 -0.29594482571E-01  0.65579693745E-01  0.51100000000E-03 0. -1.
         11    1    4    4    0    0 -0.52922248013E-01  0.42041115989E-02 -0.32757546825E-01  0.62383947327E-01  0.51100000000E-03 0.  1.
</event>
<event>
 8    1  0.1109294E+005  0.1043930E+01  0.7957747E-01            NaN
         13   -1    0    0    0    0  0.00000000000E+00  0.00000000000E+00  0.74505805969E-08  0.10566000000E+00  0.10566000000E+00 0.  1.
     999900   -1    0    0    0    0 -0.00000000000E+00 -0.00000000000E+00 -0.74505805969E-08  0.93827000000E+00  0.93827000000E+00 0. -1.
     999902    2    1    2    0    0  0.14109648831E-01 -0.62168408147E-02 -0.16766359225E-01  0.10211518943E+01  0.10208978152E+01 0.  0.
     999903    2    3    3    0    0 -0.15590006882E-01  0.93275602628E-01 -0.89892617796E-01  0.13203532960E+00  0.20230154895E-01 0.  0.
         14    1    1    2    0    0 -0.14109648831E-01  0.62168408147E-02  0.16766359225E-01  0.22778105749E-01  0.00000000000E+00 0.  1.
     999901    1    3    3    0    0  0.29699655713E-01 -0.99492443442E-01  0.73126258570E-01  0.88911656466E+00  0.88000000000E+00 0.  1.
        -11    1    4    4    0    0 -0.10184962143E-01  0.55163986339E-01 -0.39449458781E-01  0.68580753581E-01  0.51100000000E-03 0.  1.
         11    1    4    4    0    0 -0.54050447385E-02  0.38111616289E-01 -0.50443159014E-01  0.63454576014E-01  0.51100000000E-03 0. -1.
</event>
<event>
 8    1  0.1109294E+005  0.1043930E+01  0.7957747E-01            NaN
         13   -1    0    0    0    0  0.00000000000E+00  0.00000000000E+00  0.74505805969E-08  0.10566000000E+00  0.10566000000E+00 0.  1.
     999900   -1    0    0    0    0 -0.00000000000E+00 -0.00000000000E+00 -0.74505805969E-08  0.93827000000E+00  0.93827000000E+00 0. -1.
     999902    2    1    2    0    0  0.79243980226E-02 -0.11799239572E-01 -0.18026186865E-01  0.10209743569E+01  0.10207162563E+01 0.  0.
     999903    2    3    3    0    0 -0.23274796756E-01 -0.27719484439E-01 -0.12721434340E+00  0.13353483923E+00  0.18384181794E-01 0.  0.
         14    1    1    2    0    0 -0.79243980226E-02  0.11799239572E-01  0.18026186865E-01  0.22955643128E-01  0.00000000000E+00 0.  1.
     999901    1    3    3    0    0  0.31199194779E-01  0.15920244867E-01  0.10918815653E+00  0.88743951765E+00  0.88000000000E+00 0.  1.
        -11    1    4    4    0    0  0.62438863166E-03 -0.58755796413E-02 -0.41242644496E-01  0.41666883052E-01  0.51100000000E-03 0.  1.
         11    1    4    4    0    0 -0.23899185388E-01 -0.21843904798E-01 -0.85971698900E-01  0.91867956175E-01  0.51100000000E-03 0. -1.
</event>
<event>
 8    1  0.1109294E+005  0.1043930E+01  0.7957747E-01            NaN
         13   -1    0    0    0    0  0.00000000000E+00  0.00000000000E+00  0.74505805969E-08  0.10566000000E+00  0.10566000000E+00 0. -1.
     999900   -1    0    0    0    0 -0.00000000000E+00 -0.00000000000E+00 -0.74505805969E-08  0.93827000000E+00  0.93827000000E+00 0. -1.
     999902    2    1    2    0    0  0.21474559440E-01  0.46082716765E-02 -0.64492914808E-02  0.10210392545E+01  0.10207826276E+01 0.  0.
     999903    2    3    3    0    0  0.24497349779E-01 -0.30034093633E-02 -0.12871106718E+00  0.13254895246E+00  0.19837977925E-01 0.  0.
         14    1    1    2    0    0 -0.21474559440E-01 -0.46082716765E-02  0.64492914808E-02  0.22890745545E-01  0.00000000000E+00 0.  1.
     999901    1    3    3    0    0 -0.30227903389E-02  0.76116810398E-02  0.12226177570E+00  0.88849030200E+00  0.88000000000E+00 0.  1.
        -11    1    4    4    0    0  0.14859118085E-02  0.16016681161E-02 -0.58004093684E-01  0.58047474362E-01  0.51100000000E-03 0. -1.
         11    1    4    4    0    0  0.23011437970E-01 -0.46050774794E-02 -0.70706973497E-01  0.74501478094E-01  0.51100000000E-03 0.  1.
</event>
<event>
 8    1  0.1109294E+005  0.1043930E+01  0.7957747E-01            NaN
         13   -1    0    0    0    0  0.00000000000E+00  0.00000000000E+00  0.74505805969E-08  0.10566000000E+00  0.10566000000E+00 0.  1.
     999900   -1    0    0    0    0 -0.00000000000E+00 -0.00000000000E+00 -0.74505805969E-08  0.93827000000E+00  0.93827000000E+00 0.  1.
     999902    2    1    2    0    0  0.10972545379E-01 -0.12532921108E-01  0.22172620141E-01  0.10161974208E+01  0.10158189318E+01 0.  0.
     999903    2    3    3    0    0  0.36683753242E-01  0.22770927844E-01  0.11971862454E+00  0.12973103628E+00  0.25167038072E-01 0.  0.
         14    1    1    2    0    0 -0.10972545379E-01  0.12532921108E-01 -0.22172620141E-01  0.27732579172E-01  0.00000000000E+00 0.  1.
     999901    1    3    3    0    0 -0.25711207863E-01 -0.35303848951E-01 -0.97546004400E-01  0.88646638455E+00  0.88000000000E+00 0.  1.
        -11    1    4    4    0    0  0.19973124840E-01  0.40415790894E-03  0.32511268696E-01  0.38161928315E-01  0.51100000000E-03 0.  1.
         11    1    4    4    0    0  0.16710628402E-01  0.22366769935E-01  0.87207355845E-01  0.91569107964E-01  0.51100000000E-03 0. -1.
</event>
<event>
 8    1  0.1109294E+005  0.1043930E+01  0.7957747E-01            NaN
         13   -1    0    0    0    0  0.00000000000E+00  0.00000000000E+00  0.74505805969E-08  0.10566000000E+00  0.10566000000E+00 0.  1.
     999900   -1    0    0    0    0 -0.00000000000E+00 -0.00000000000E+00 -0.74505805969E-08  0.93827000000E+00  0.93827000000E+00 0. -1.
     999902    2    1    2    0    0 -0.19158738228E-01  0.74166683984E-02 -0.77422436725E-02  0.10219753523E+01  0.10217395040E+01 0.  0.
     999903    2    3    3    0    0  0.19802654392E-01  0.12954915229E+00 -0.61342366574E-02  0.13268523119E+00  0.19814482975E-01 0.  0.
         14    1    1    2    0    0  0.19158738228E-01 -0.74166683984E-02  0.77422436725E-02  0.21954647747E-01  0.00000000000E+00 0.  1.
     999901    1    3    3    0    0 -0.38961392620E-01 -0.12213248389E+00 -0.16080070151E-02  0.88929012106E+00  0.88000000000E+00 0.  1.
        -11    1    4    4    0    0  0.11874146769E-01  0.31992021678E-01 -0.68179367536E-02  0.34802732581E-01  0.51100000000E-03 0.  1.
         11    1    4    4    0    0  0.79285076236E-02  0.97557130614E-01  0.68370009623E-03  0.97882498607E-01  0.51100000000E-03 0. -1.
</event>
<event>
 8    1  0.1109294E+005  0.1043930E+01  0.7957747E-01            NaN
         13   -1    0    0    0    0  0.00000000000E+00  0.00000000000E+00  0.74505805969E-08  0.10566000000E+00  0.10566000000E+00 0.  1.
     999900   -1    0    0    0    0 -0.00000000000E+00 -0.00000000000E+00 -0.74505805969E-08  0.93827000000E+00  0.93827000000E+00 0.  1.
     999902    2    1    2    0    0  0.17478744394E-02 -0.23865065485E-01  0.15249627313E-02  0.10199524704E+01  0.10196705938E+01 0.  0.
     999903    2    3    3    0    0  0.12784551904E+00  0.14029679185E-02  0.16295359232E-01  0.13048226059E+00  0.20338056353E-01 0.  0.
         14    1    1    2    0    0 -0.17478744394E-02  0.23865065485E-01 -0.15249627313E-02  0.23977529627E-01  0.00000000000E+00 0.  1.
     999901    1    3    3    0    0 -0.12609764461E+00 -0.25268033404E-01 -0.14770396501E-01  0.88947020979E+00  0.88000000000E+00 0. -1.
        -11    1    4    4    0    0  0.20607807109E-01  0.69539957952E-02 -0.68093115813E-03  0.21766133318E-01  0.51100000000E-03 0.  1.
         11    1    4    4    0    0  0.10723771194E+00 -0.55510278767E-02  0.16976290390E-01  0.10871612727E+00  0.51100000000E-03 0. -1.
</event>
<event>
 8    1  0.1109294E+005  0.1043930E+01  0.7957747E-01            NaN
         13   -1    0    0    0    0  0.00000000000E+00  0.00000000000E+00  0.74505805969E-08  0.10566000000E+00  0.10566000000E+00 0. -1.
     999900   -1    0    0    0    0 -0.00000000000E+00 -0.00000000000E+00 -0.74505805969E-08  0.93827000000E+00  0.93827000000E+00 0.  1.
     999902    2    1    2    0    0  0.63317509553E-02  0.22950011834E-01 -0.17256447890E-02  0.10200601034E+01  0.10197807816E+01 0.  0.
     999903    2    3    3    0    0  0.44044665703E-01  0.42646280662E-01  0.11455701211E+00  0.13139151319E+00  0.19539265204E-01 0.  0.
         14    1    1    2    0    0 -0.63317509553E-02 -0.22950011834E-01  0.17256447890E-02  0.23869896591E-01  0.00000000000E+00 0. -1.
     999901    1    3    3    0    0 -0.37712914748E-01 -0.19696268828E-01 -0.11628265690E+00  0.88866859022E+00  0.88000000000E+00 0.  1.
        -11    1    4    4    0    0  0.33707926206E-01  0.21426551471E-01  0.61699753702E-01  0.73501306961E-01  0.51100000000E-03 0. -1.
         11    1    4    4    0    0  0.10336739497E-01  0.21219729191E-01  0.52857258405E-01  0.57890206231E-01  0.51100000000E-03 0.  1.
</event>
<event>
 8    1  0.1109294E+005  0.1043930E+01  0.7957747E-01            NaN
         13   -1    0    0    0    0  0.00000000000E+00  0.00000000000E+00  0.74505805969E-08  0.10566000000E+00  0.10566000000E+00 0.  1.
     999900   -1    0    0    0    0 -0.00000000000E+00 -0.00000000000E+00 -0.74505805969E-08  0.93827000000E+00  0.93827000000E+00 0.  1.
     999902    2    1    2    0    0 -0.18866032940E-01 -0.68892514337E-03  0.12613342673E-01  0.10212254139E+01  0.10209729907E+01 0.  0.
     999903    2    3    3    0    0 -0.10481356337E+00  0.45866753028E-01 -0.63962973762E-01  0.13250816899E+00  0.19429635508E-01 0.  0.
         14    1    1    2    0    0  0.18866032940E-01  0.68892514337E-03 -0.12613342673E-01  0.22704586103E-01  0.00000000000E+00 0. -1.
     999901    1    3    3    0    0  0.85947530434E-01 -0.46555678172E-01  0.76576316434E-01  0.88871724491E+00  0.88000000000E+00 0. -1.
        -11    1    4    4    0    0 -0.24468319517E-01  0.21284583131E-02 -0.13830356886E-01  0.28191645702E-01  0.51100000000E-03 0. -1.
         11    1    4    4    0    0 -0.80345243856E-01  0.43738294715E-01 -0.50132616876E-01  0.10431652329E+00  0.51100000000E-03 0.  1.
</event>
<event>
 8    1  0.1109294E+005  0.1043930E+01  0.7957747E-01            NaN
         13   -1    0    0    0    0  0.00000000000E+00  0.00000000000E+00  0.74505805969E-08  0.10566000000E+00  0.10566000000E+00 0.  1.
     999900   -1    0    0    0    0 -0.00000000000E+00 -0.00000000000E+00 -0.74505805969E-08  0.93827000000E+00  0.93827000000E+00 0. -1.
     999902    2    1    2    0    0  0.19473758339E-01  0.61862277654E-02 -0.10313170371E-01  0.10210420521E+01  0.10207854887E+01 0.  0.
     999903    2    3    3    0    0  0.12505964192E+00 -0.42420587956E-01 -0.36575894129E-05  0.13333867401E+00  0.18433167235E-01 0.  0.
         14    1    1    2    0    0 -0.19473758339E-01 -0.61862277654E-02  0.10313170371E-01  0.22887947940E-01  0.00000000000E+00 0.  1.
     999901    1    3    3    0    0 -0.10558588358E+00  0.48606815721E-01 -0.10309512781E-01  0.88770337805E+00  0.88000000000E+00 0.  1.
        -11    1    4    4    0    0  0.64906140491E-01 -0.21128907881E-01  0.91569021218E-02  0.68871966715E-01  0.51100000000E-03 0.  1.
         11    1    4    4    0    0  0.60153501427E-01 -0.21291680075E-01 -0.91605597112E-02  0.64466707296E-01  0.51100000000E-03 0. -1.
</event>
<event>
 8    1  0.1109294E+005  0.1043930E+01  0.7957747E-01            NaN
         13   -1    0    0    0    0  0.00000000000E+00  0.00000000000E+00  0.74505805969E-08  0.10566000000E+00  0.10566000000E+00 0.  1.
     999900   -1    0    0    0    0 -0.00000000000E+00 -0.00000000000E+00 -0.74505805969E-08  0.93827000000E+00  0.93827000000E+00 0.  1.
     999902    2    1    2    0    0 -0.17875988469E-01  0.15303714974E-01 -0.84970178936E-02  0.10189109279E+01  0.10186037134E+01 0.  0.
     999903    2    3    3    0    0  0.99830705524E-01 -0.59838769768E-02 -0.77561496523E-01  0.12813714652E+00  0.20034121552E-01 0.  0.
         14    1    1    2    0    0  0.17875988469E-01 -0.15303714974E-01  0.84970178936E-02  0.25019072102E-01  0.00000000000E+00 0.  1.
     999901    1    3    3    0    0 -0.11770669399E+00  0.21287591951E-01  0.69064478630E-01  0.89077378138E+00  0.88000000000E+00 0. -1.
        -11    1    4    4    0    0  0.50536914398E-01 -0.13012943299E-01 -0.38635920948E-01  0.64933134212E-01  0.51100000000E-03 0. -1.
         11    1    4    4    0    0  0.49293791126E-01  0.70290663220E-02 -0.38925575576E-01  0.63204012308E-01  0.51100000000E-03 0.  1.
</event>
<event>
 8    1  0.1109294E+005  0.1043930E+01  0.7957747E-01            NaN
         13   -1    0    0    0    0  0.00000000000E+00  0.00000000000E+00  0.74505805969E-08  0.10566000000E+00  0.10566000000E+00 0. -1.
     999900   -1    0    0    0    0 -0.00000000000E+00 -0.00000000000E+00 -0.74505805969E-08  0.93827000000E+00  0.93827000000E+00 0. -1.
     999902    2    1    2    0    0 -0.33499671156E-03  0.29303419043E-02 -0.25524648940E-01  0.10182355097E+01  0.10179112665E+01 0.  0.
     999903    2    3    3    0    0 -0.85788980254E-01 -0.19021934017E-01  0.88195978692E-01  0.12654236360E+00  0.22646324655E-01 0.  0.
         14    1    1    2    0    0  0.33499671156E-03 -0.29303419043E-02  0.25524648940E-01  0.25694490265E-01  0.00000000000E+00 0. -1.
     999901    1    3    3    0    0  0.85453983542E-01  0.21952275921E-01 -0.11372062763E+00  0.89169314614E+00  0.88000000000E+00 0. -1.
        -11    1    4    4    0    0 -0.40244495220E-01 -0.31855655297E-02  0.54008954785E-01  0.67431413608E-01  0.51100000000E-03 0. -1.
         11    1    4    4    0    0 -0.45544485034E-01 -0.15836368487E-01  0.34187023907E-01  0.59110949988E-01  0.51100000000E-03 0.  1.
</event>
<event>
 8    1  0.1109294E+005  0.1043930E+01  0.7957747E-01            NaN
         13   -1    0    0    0    0  0.00000000000E+00  0.00000000000E+00  0.74505805969E-08  0.10566000000E+00  0.10566000000E+00 0. -1.
     999900   -1    0    0    0    0 -0.00000000000E+00 -0.00000000000E+00 -0.74505805969E-08  0.93827000000E+00  0.93827000000E+00 0. -1.
     999902    2    1    2    0    0  0.95729618658E-02 -0.16460904080E-01  0.15301055422E-01  0.10195020394E+01  0.10192093421E+01 0.  0.
     999903    2    3    3    0    0  0.79545868504E-01 -0.43947228858E-01  0.94676041087E-01  0.13273707953E+00  0.19916711694E-01 0.  0.
         14    1    1    2    0    0 -0.95729618658E-02  0.16460904080E-01 -0.15301055422E-01  0.24427960599E-01  0.00000000000E+00 0.  1.
     999901    1    3    3    0    0 -0.69972906638E-01  0.27486324778E-01 -0.79374985665E-01  0.88676495988E+00  0.88000000000E+00 0. -1.
        -11    1    4    4    0    0  0.31178095709E-02 -0.72496333942E-02  0.11577815187E-01  0.14020871812E-01  0.51100000000E-03 0.  1.
         11    1    4    4    0    0  0.76428058933E-01 -0.36697595463E-01  0.83098225900E-01  0.11871620771E+00  0.51100000000E-03 0. -1.
</event>
<event>
 8    1  0.1109294E+005  0.1043930E+01  0.7957747E-01            NaN
         13   -1    0    0    0    0  0.00000000000E+00  0.00000000000E+00  0.74505805969E-08  0.10566000000E+00  0.10566000000E+00 0.  1.
     999900   -1    0    0    0    0 -0.00000000000E+00 -0.00000000000E+00 -0.74505805969E-08  0.93827000000E+00  0.93827000000E+00 0.  1.
     999902    2    1    2    0    0 -0.30314761568E-02 -0.36351161383E-02  0.23816583502E-01  0.10196476285E+01  0.10193584515E+01 0.  0.
     999903    2    3    3    0    0 -0.39162012233E-01 -0.56799354339E-01 -0.10555652515E+00  0.12786892661E+00  0.21176697947E-01 0.  0.
         14    1    1    2    0    0  0.30314761568E-02  0.36351161383E-02 -0.23816583502E-01  0.24282371522E-01  0.00000000000E+00 0. -1.
     999901    1    3    3    0    0  0.36130536076E-01  0.53164238200E-01  0.12937310865E+00  0.89177870187E+00  0.88000000000E+00 0. -1.
        -11    1    4    4    0    0 -0.22098721809E-02 -0.29260692219E-02 -0.19367087578E-01  0.19717774175E-01  0.51100000000E-03 0. -1.
         11    1    4    4    0    0 -0.36952140052E-01 -0.53873285117E-01 -0.86189437570E-01  0.10815115244E+00  0.51100000000E-03 0.  1.
</event>
<event>
 8    1  0.1109294E+005  0.1043930E+01  0.7957747E-01            NaN
         13   -1    0    0    0    0  0.00000000000E+00  0.00000000000E+00  0.74505805969E-08  0.10566000000E+00  0.10566000000E+00 0.  1.
     999900   -1    0    0    0    0 -0.00000000000E+00 -0.00000000000E+00 -0.74505805969E-08  0.93827000000E+00  0.93827000000E+00 0. -1.
     999902    2    1    2    0    0 -0.67659155549E-02 -0.84710810227E-03  0.22137510995E-01  0.10207661359E+01  0.10205032776E+01 0.  0.
     999903    2    3    3    0    0 -0.98664708856E-01 -0.22764362218E-01  0.84461598031E-01  0.13351755404E+00  0.20981771502E-01 0.  0.
         14    1    1    2    0    0  0.67659155549E-02  0.84710810227E-03 -0.22137510995E-01  0.23163864067E-01  0.00000000000E+00 0. -1.
     999901    1    3    3    0    0  0.91898793301E-01  0.21917254116E-01 -0.62324087035E-01  0.88724858189E+00  0.88000000000E+00 0.  1.
        -11    1    4    4    0    0 -0.80017430392E-01 -0.18912001401E-01  0.56810620399E-01  0.99940785841E-01  0.51100000000E-03 0. -1.
         11    1    4    4    0    0 -0.18647278465E-01 -0.38523608174E-02  0.27650977632E-01  0.33576768204E-01  0.51100000000E-03 0.  1.
</event>
<event>
 8    1  0.1109294E+005  0.1043930E+01  0.7957747E-01            NaN
         13   -1    0    0    0    0  0.00000000000E+00  0.00000000000E+00  0.74505805969E-08  0.10566000000E+00  0.10566000000E+00 0.  1.
     999900   -1    0    0    0    0 -0.00000000000E+00 -0.00000000000E+00 -0.74505805969E-08  0.93827000000E+00  0.93827000000E+00 0.  1.
     999902    2    1    2    0    0 -0.10929260062E-01 -0.21335913384E-01  0.96704471004E-03  0.10199382285E+01  0.10196560130E+01 0.  0.
     999903    2    3    3    0    0 -0.43851970846E-01  0.11347002715E+00  0.37364922147E-01  0.12832096083E+00  0.16482996476E-01 0.  0.
         14    1    1    2    0    0  0.10929260062E-01  0.21335913384E-01 -0.96704471004E-03  0.23991771525E-01  0.00000000000E+00 0. -1.
     999901    1    3    3    0    0  0.32922710783E-01 -0.13480594053E+00 -0.36397877437E-01  0.89161726765E+00  0.88000000000E+00 0.  1.
        -11    1    4    4    0    0 -0.27513758142E-01  0.48486826157E-01  0.17263199587E-01  0.58363159432E-01  0.51100000000E-03 0.  1.
         11    1    4    4    0    0 -0.16338212704E-01  0.64983200988E-01  0.20101722559E-01  0.69957801394E-01  0.51100000000E-03 0. -1.
</event>
<event>
 8    1  0.1109294E+005  0.1043930E+01  0.7957747E-01            NaN
         13   -1    0    0    0    0  0.00000000000E+00  0.00000000000E+00  0.74505805969E-08  0.10566000000E+00  0.10566000000E+00 0. -1.
     999900   -1    0    0    0    0 -0.00000000000E+00 -0.00000000000E+00 -0.74505805969E-08  0.93827000000E+00  0.93827000000E+00 0. -1.
     999902    2    1    2    0    0 -0.18266181001E-01 -0.86298347407E-02 -0.13156338602E-01  0.10198215645E+01  0.10195365647E+01 0.  0.
     999903    2    3    3    0    0 -0.12564086554E+00 -0.32202576975E-01  0.18399522080E-01  0.13242043234E+00  0.19338961474E-01 0.  0.
         14    1    1    2    0    0  0.18266181001E-01  0.86298347407E-02  0.13156338602E-01  0.24108435482E-01  0.00000000000E+00 0. -1.
     999901    1    3    3    0    0  0.10737468453E+00  0.23572742234E-01 -0.31555860682E-01  0.88740113218E+00  0.88000000000E+00 0. -1.
        -11    1    4    4    0    0 -0.77231669789E-01 -0.26878003265E-01  0.17906237135E-01  0.83714110682E-01  0.51100000000E-03 0. -1.
         11    1    4    4    0    0 -0.48409195746E-01 -0.53245737098E-02  0.49328494462E-03  0.48706321653E-01  0.51100000000E-03 0.  1.
</event>
<event>
 8    1  0.1109294E+005  0.1043930E+01  0.7957747E-01            NaN
         13   -1    0    0    0    0  0.00000000000E+00  0.00000000000E+00  0.74505805969E-08  0.10566000000E+00  0.10566000000E+00 0.  1.
     999900   -1    0    0    0    0 -0.00000000000E+00 -0.00000000000E+00 -0.74505805969E-08  0.93827000000E+00  0.93827000000E+00 0. -1.
     999902    2    1    2    0    0  0.34620251596E-02  0.16351964150E-01  0.14932628430E-01  0.10215167061E+01  0.10212707894E+01 0.  0.
     999903    2    3    3    0    0 -0.97255916880E-01 -0.68322319979E-01  0.51199692683E-01  0.13099487138E+00  0.20287804732E-01 0.  0.
         14    1    1    2    0    0 -0.34620251596E-02 -0.16351964150E-01 -0.14932628430E-01  0.22413293859E-01  0.00000000000E+00 0. -1.
     999901    1    3    3    0    0  0.10071794204E+00  0.84674284129E-01 -0.36267064253E-01  0.89052183476E+00  0.88000000000E+00 0.  1.
        -11    1    4    4    0    0 -0.21677869112E-01 -0.59917484581E-02  0.73918115730E-02  0.23679760517E-01  0.51100000000E-03 0.  1.
         11    1    4    4    0    0 -0.75578047768E-01 -0.62330571521E-01  0.43807881110E-01  0.10731511086E+00  0.51100000000E-03 0. -1.
</event>
<event>
 8    1  0.1109294E+005  0.1043930E+01  0.7957747E-01            NaN
         13   -1    0    0    0    0  0.00000000000E+00  0.00000000000E+00  0.74505805969E-08  0.10566000000E+00  0.10566000000E+00 0. -1.
     999900   -1    0    0    0    0 -0.00000000000E+00 -0.00000000000E+00 -0.74505805969E-08  0.93827000000E+00  0.93827000000E+00 0. -1.
     999902    2    1    2    0    0  0.10869529965E-01  0.50472809270E-02 -0.20940800265E-01  0.10198024464E+01  0.10195169890E+01 0.  0.
     999903    2    3    3    0    0 -0.49382060424E-01  0.10820569004E-01 -0.12033663300E+00  0.13214084616E+00  0.20606440143E-01 0.  0.
         14    1    1    2    0    0 -0.10869529965E-01 -0.50472809270E-02  0.20940800265E-01  0.24127553588E-01  0.00000000000E+00 0. -1.
     999901    1    3    3    0    0  0.60251590390E-01 -0.57732880771E-02  0.99395832738E-01  0.88766160025E+00  0.88000000000E+00 0.  1.
        -11    1    4    4    0    0 -0.26257820395E-01  0.15715183916E-01 -0.60445107356E-01  0.67751843235E-01  0.51100000000E-03 0.  1.
         11    1    4    4    0    0 -0.23124240030E-01 -0.48946149119E-02 -0.59891525647E-01  0.64389002923E-01  0.51100000000E-03 0. -1.
</event>
<event>
 8    1  0.1109294E+005  0.1043930E+01  0.7957747E-01            NaN
         13   -1    0    0    0    0  0.00000000000E+00  0.00000000000E+00  0.74505805969E-08  0.10566000000E+00  0.10566000000E+00 0.  1.
     999900   -1    0    0    0    0 -0.00000000000E+00 -0.00000000000E+00 -0.74505805969E-08  0.93827000000E+00  0.93827000000E+00 0.  1.
     999902    2    1    2    0    0 -0.12483361535E-01  0.12285583532E-01  0.16863867050E-01  0.10196162202E+01  0.10193262856E+01 0.  0.
     999903    2    3    3    0    0 -0.51488766440E-01  0.68902100914E-01 -0.95343916127E-01  0.12983116845E+00  0.19159263521E-01 0.  0.
         14    1    1    2    0    0  0.12483361535E-01 -0.12285583532E-01 -0.16863867050E-01  0.24313779834E-01  0.00000000000E+00 0.  1.
     999901    1    3    3    0    0  0.39005404905E-01 -0.56616517382E-01  0.11220778318E+00  0.88978505172E+00  0.88000000000E+00 0. -1.
        -11    1    4    4    0    0 -0.13623458344E-01  0.68621653675E-02 -0.19782604978E-01  0.24986006313E-01  0.51100000000E-03 0. -1.
         11    1    4    4    0    0 -0.37865308097E-01  0.62039935547E-01 -0.75561311149E-01  0.10484516214E+00  0.51100000000E-03 0.  1.
</event>
<event>
 8    1  0.1109294E+005  0.1043930E+01  0.7957747E-01            NaN
         13   -1    0    0    0    0  0.00000000000E+00  0.00000000000E+00  0.74505805969E-08  0.10566000000E+00  0.10566000000E+00 0. -1.
     999900   -1    0    0    0    0 -0.00000000000E+00 -0.00000000000E+00 -0.74505805969E-08  0.93827000000E+00  0.93827000000E+00 0.  1.
     999902    2    1    2    0    0 -0.90418013110E-03 -0.19836678282E-01  0.12992420759E-01  0.10201999696E+01  0.10199239499E+01 0.  0.
     999903    2    3    3    0    0 -0.93022899164E-01 -0.68088475941E-01 -0.59129641708E-01  0.13114671680E+00  0.20343216884E-01 0.  0.
         14    1    1    2    0    0  0.90418013110E-03  0.19836678282E-01 -0.12992420759E-01  0.23730030429E-01  0.00000000000E+00 0.  1.
     999901    1    3    3    0    0  0.92118719033E-01  0.48251797659E-01  0.72122062468E-01  0.88905325277E+00  0.88000000000E+00 0. -1.
        -11    1    4    4    0    0 -0.89013811860E-01 -0.65735723231E-01 -0.51170142458E-01  0.12191508771E+00  0.51100000000E-03 0.  1.
         11    1    4    4    0    0 -0.40090873040E-02 -0.23527527093E-02 -0.79594992501E-02  0.92316290889E-02  0.51100000000E-03 0. -1.
</event>
<event>
 8    1  0.1109294E+005  0.1043930E+01  0.7957747E-01            NaN
         13   -1    0    0    0    0  0.00000000000E+00  0.00000000000E+00  0.74505805969E-08  0.10566000000E+00  0.10566000000E+00 0. -1.
     999900   -1    0    0    0    0 -0.00000000000E+00 -0.00000000000E+00 -0.74505805969E-08  0.93827000000E+00  0.93827000000E+00 0.  1.
     999902    2    1    2    0    0 -0.89813916241E-02  0.10360736871E-01  0.19125038105E-01  0.10203975257E+01  0.10201261359E+01 0.  0.
     999903    2    3    3    0    0  0.25137690712E-01 -0.11602074518E+00  0.49477521392E-01  0.13019661353E+00  0.20258732569E-01 0.  0.
         14    1    1    2    0    0  0.89813916241E-02 -0.10360736871E-01 -0.19125038105E-01  0.23532474297E-01  0.00000000000E+00 0.  1.
     999901    1    3    3    0    0 -0.34119082337E-01  0.12638148205E+00 -0.30352483288E-01  0.89020091217E+00  0.88000000000E+00 0.  1.
        -11    1    4    4    0    0  0.15722312504E-01 -0.48044384655E-01  0.11824196726E-01  0.51918462579E-01  0.51100000000E-03 0. -1.
         11    1    4    4    0    0  0.94153782084E-02 -0.67976360528E-01  0.37653324666E-01  0.78278150955E-01  0.51100000000E-03 0.  1.
</event>
<event>
 8    1  0.1109294E+005  0.1043930E+01  0.7957747E-01            NaN
         13   -1    0    0    0    0  0.00000000000E+00  0.00000000000E+00  0.74505805969E-08  0.10566000000E+00  0.10566000000E+00 0.  1.
     999900   -1    0    0    0    0 -0.00000000000E+00 -0.00000000000E+00 -0.74505805969E-08  0.93827000000E+00  0.93827000000E+00 0.  1.
     999902    2    1    2    0    0  0.19413835872E-03 -0.18840208461E-01 -0.10810677056E-01  0.10222076179E+01  0.10219767866E+01 0.  0.
     999903    2    3    3    0    0  0.10476727941E+00  0.15285819740E-01  0.75026444395E-01  0.13121483510E+00  0.19455756776E-01 0.  0.
         14    1    1    2    0    0 -0.19413835872E-03  0.18840208461E-01  0.10810677056E-01  0.21722382074E-01  0.00000000000E+00 0.  1.
     999901    1    3    3    0    0 -0.10457314105E+00 -0.34126028201E-01 -0.85837121452E-01  0.89099278283E+00  0.88000000000E+00 0.  1.
        -11    1    4    4    0    0  0.88407505902E-01  0.83865585268E-02  0.68989424110E-01  0.11245453848E+00  0.51100000000E-03 0.  1.
         11    1    4    4    0    0  0.16359773507E-01  0.68992612136E-02  0.60370202852E-02  0.18760296624E-01  0.51100000000E-03 0. -1.
</event>
<event>
 8    1  0.1109294E+005  0.1043930E+01  0.7957747E-01            NaN
         13   -1    0    0    0    0  0.00000000000E+00  0.00000000000E+00  0.74505805969E-08  0.10566000000E+00  0.10566000000E+00 0.  1.
     999900   -1    0    0    0    0 -0.00000000000E+00 -0.00000000000E+00 -0.74505805969E-08  0.93827000000E+00  0.93827000000E+00 0.  1.
     999902    2    1    2    0    0 -0.47121024653E-02 -0.21614329230E-01 -0.54648763099E-02  0.10211429859E+01  0.10208887058E+01 0.  0.
     999903    2    3    3    0    0 -0.19282261395E-01  0.11099751747E+00 -0.60451862085E-01  0.12939091274E+00  0.19882811168E-01 0.  0.
         14    1    1    2    0    0  0.47121024653E-02  0.21614329230E-01  0.54648763099E-02  0.22787014083E-01  0.00000000000E+00 0.  1.
     999901    1    3    3    0    0  0.14570158929E-01 -0.13261184670E+00  0.54986985775E-01  0.89175207318E+00  0.88000000000E+00 0.  1.
        -11    1    4    4    0    0 -0.14477357333E-01  0.62010070027E-01 -0.23649949779E-01  0.67929551049E-01  0.51100000000E-03 0.  1.
         11    1    4    4    0    0 -0.48049040614E-02  0.48987447444E-01 -0.36801912306E-01  0.61461361688E-01  0.51100000000E-03 0. -1.
</event>
<event>
 8    1  0.1109294E+005  0.1043930E+01  0.7957747E-01            NaN
         13   -1    0    0    0    0  0.00000000000E+00  0.00000000000E+00  0.74505805969E-08  0.10566000000E+00  0.10566000000E+00 0.  1.
     999900   -1    0    0    0    0 -0.00000000000E+00 -0.00000000000E+00 -0.74505805969E-08  0.93827000000E+00  0.93827000000E+00 0. -1.
     999902    2    1    2    0    0 -0.12275482292E-01 -0.18114780634E-01  0.12022897017E-01  0.10189623650E+01  0.10186564281E+01 0.  0.
     999903    2    3    3    0    0  0.12055830197E+00 -0.37635023578E-01  0.14848927866E-01  0.12877483391E+00  0.20292067831E-01 0.  0.
         14    1    1    2    0    0  0.12275482292E-01  0.18114780634E-01 -0.12022897017E-01  0.24967634962E-01  0.00000000000E+00 0.  1.
     999901    1    3    3    0    0 -0.13283378426E+00  0.19520242945E-01 -0.28260308494E-02  0.89018753113E+00  0.88000000000E+00 0.  1.
        -11    1    4    4    0    0  0.10222607847E+00 -0.23850476127E-01  0.12370677519E-01  0.10569915380E+00  0.51100000000E-03 0. -1.
         11    1    4    4    0    0  0.18332223502E-01 -0.13784547451E-01  0.24782503476E-02  0.23075680114E-01  0.51100000000E-03 0.  1.
</event>
<event>
 8    1  0.1109294E+005  0.1043930E+01  0.7957747E-01            NaN
         13   -1    0    0    0    0  0.00000000000E+00  0.00000000000E+00  0.74505805969E-08  0.10566000000E+00  0.10566000000E+00 0.  1.
     999900   -1    0    0    0    0 -0.00000000000E+00 -0.00000000000E+00 -0.74505805969E-08  0.93827000000E+00  0.93827000000E+00 0.  1.
     999902    2    1    2    0    0  0.14818643867E-01 -0.11061579813E-01  0.14298567827E-01  0.10205548038E+01  0.10202870713E+01 0.  0.
     999903    2    3    3    0    0  0.38325327045E-01  0.15922224264E-01 -0.12101070083E+00  0.12949403822E+00  0.20069088175E-01 0.  0.
         14    1    1    2    0    0 -0.14818643867E-01  0.11061579813E-01 -0.14298567827E-01  0.23375196168E-01  0.00000000000E+00 0. -1.
     999901    1    3    3    0    0 -0.23506683179E-01 -0.26983804077E-01  0.13530926865E+00  0.89106076562E+00  0.88000000000E+00 0. -1.
        -11    1    4    4    0    0  0.18765585270E-01  0.26986090128E-02 -0.30187484141E-01  0.35650736330E-01  0.51100000000E-03 0.  1.
         11    1    4    4    0    0  0.19559741776E-01  0.13223615251E-01 -0.90823216686E-01  0.93843301886E-01  0.51100000000E-03 0. -1.
</event>
<event>
 8    1  0.1109294E+005  0.1043930E+01  0.7957747E-01            NaN
         13   -1    0    0    0    0  0.00000000000E+00  0.00000000000E+00  0.74505805969E-08  0.10566000000E+00  0.10566000000E+00 0. -1.
     999900   -1    0    0    0    0 -0.00000000000E+00 -0.00000000000E+00 -0.74505805969E-08  0.93827000000E+00  0.93827000000E+00 0. -1.
     999902    2    1    2    0    0 -0.67092048876E-02  0.22190774820E-01 -0.92096253888E-02  0.10189848378E+01  0.10186794582E+01 0.  0.
     999903    2    3    3    0    0  0.23961589078E-01  0.12556207378E+00 -0.27540696934E-01  0.13221409447E+00  0.19546986078E-01 0.  0.
         14    1    1    2    0    0  0.67092048876E-02 -0.22190774820E-01  0.92096253888E-02  0.24945162199E-01  0.00000000000E+00 0. -1.
     999901    1    3    3    0    0 -0.30670793965E-01 -0.10337129896E+00  0.18331071545E-01  0.88677074334E+00  0.88000000000E+00 0.  1.
        -11    1    4    4    0    0  0.13583409479E-01  0.93197761538E-01 -0.12376444258E-01  0.94993522212E-01  0.51100000000E-03 0. -1.
         11    1    4    4    0    0  0.10378179598E-01  0.32364312242E-01 -0.15164252676E-01  0.37220572254E-01  0.51100000000E-03 0.  1.
</event>
<event>
 8    1  0.1109294E+005  0.1043930E+01  0.7957747E-01            NaN
         13   -1    0    0    0    0  0.00000000000E+00  0.00000000000E+00  0.74505805969E-08  0.10566000000E+00  0.10566000000E+00 0.  1.
     999900   -1    0    0    0    0 -0.00000000000E+00 -0.00000000000E+00 -0.74505805969E-08  0.93827000000E+00  0.93827000000E+00 0.  1.
     999902    2    1    2    0    0 -0.54240310950E-03  0.13148623075E-01 -0.19638564201E-01  0.10202899134E+01  0.10200160066E+01 0.  0.
     999903    2    3    3    0    0 -0.27969807622E-01  0.22580514479E-01  0.12171550415E+00  0.12853759593E+00  0.20373017581E-01 0.  0.
         14    1    1    2    0    0  0.54240310950E-03 -0.13148623075E-01  0.19638564201E-01  0.23640086586E-01  0.00000000000E+00 0.  1.
     999901    1    3    3    0    0  0.27427404512E-01 -0.94318914040E-02 -0.14135406835E+00  0.89175231748E+00  0.88000000000E+00 0.  1.
        -11    1    4    4    0    0 -0.21509183883E-02  0.12457943401E-01  0.51757982199E-01  0.53282048065E-01  0.51100000000E-03 0.  1.
         11    1    4    4    0    0 -0.25818889233E-01  0.10122571078E-01  0.69957521950E-01  0.75255547868E-01  0.51100000000E-03 0. -1.
</event>
<event>
 8    1  0.1109294E+005  0.1043930E+01  0.7957747E-01            NaN
         13   -1    0    0    0    0  0.00000000000E+00  0.00000000000E+00  0.74505805969E-08  0.10566000000E+00  0.10566000000E+00 0. -1.
     999900   -1    0    0    0    0 -0.00000000000E+00 -0.00000000000E+00 -0.74505805969E-08  0.93827000000E+00  0.93827000000E+00 0. -1.
     999902    2    1    2    0    0  0.78877181242E-02 -0.48449628617E-02 -0.21198510163E-01  0.10207984934E+01  0.10205363774E+01 0.  0.
     999903    2    3    3    0    0  0.44160273833E-02  0.12778643001E+00  0.14180904454E-01  0.13014994211E+00  0.19724005351E-01 0.  0.
         14    1    1    2    0    0 -0.78877181242E-02  0.48449628617E-02  0.21198510163E-01  0.23131506555E-01  0.00000000000E+00 0. -1.
     999901    1    3    3    0    0  0.34716907409E-02 -0.13263139288E+00 -0.35379414617E-01  0.89064855133E+00  0.88000000000E+00 0.  1.
        -11    1    4    4    0    0 -0.24988387199E-02  0.34489461905E-01 -0.41016014246E-02  0.34826016607E-01  0.51100000000E-03 0. -1.
         11    1    4    4    0    0  0.69148661032E-02  0.93296968109E-01  0.18282505878E-01  0.95323925506E-01  0.51100000000E-03 0.  1.
</event>
<event>
 8    1  0.1109294E+005  0.1043930E+01  0.7957747E-01            NaN
         13   -1    0    0    0    0  0.00000000000E+00  0.00000000000E+00  0.74505805969E-08  0.10566000000E+00  0.10566000000E+00 0. -1.
     999900   -1    0    0    0    0 -0.00000000000E+00 -0.00000000000E+00 -0.74505805969E-08  0.93827000000E+00  0.93827000000E+00 0. -1.
     999902    2    1    2    0    0 -0.22403856117E-01  0.20084687974E-02 -0.94504651428E-02  0.10195316802E+01  0.10192397014E+01 0.  0.
     999903    2    3    3    0    0 -0.67173453732E-01 -0.79217831767E-01 -0.78146260504E-01  0.13199512264E+00  0.22981223060E-01 0.  0.
         14    1    1    2    0    0  0.22403856117E-01 -0.20084687974E-02  0.94504651428E-02  0.24398319763E-01  0.00000000000E+00 0. -1.
     999901    1    3    3    0    0  0.44769597615E-01  0.81226300564E-01  0.68695795362E-01  0.88753655760E+00  0.88000000000E+00 0.  1.
        -11    1    4    4    0    0 -0.75445423756E-02 -0.72242291886E-03 -0.78303414457E-02  0.10909508820E-01  0.51100000000E-03 0. -1.
         11    1    4    4    0    0 -0.59628911357E-01 -0.78495408848E-01 -0.70315919059E-01  0.12108561382E+00  0.51100000000E-03 0.  1.
</event>
<event>
 8    1  0.1109294E+005  0.1043930E+01  0.7957747E-01            NaN
         13   -1    0    0    0    0  0.00000000000E+00  0.00000000000E+00  0.74505805969E-08  0.10566000000E+00  0.10566000000E+00 0. -1.
     999900   -1    0    0    0    0 -0.00000000000E+00 -0.00000000000E+00 -0.74505805969E-08  0.93827000000E+00  0.93827000000E+00 0. -1.
     999902    2    1    2    0    0 -0.16765205886E-02 -0.17758934943E-01  0.38437447395E-02  0.10256826751E+01  0.10255203485E+01 0.  0.
     999903    2    3    3    0    0  0.54856217960E-01  0.28549057263E-01 -0.11765310648E+00  0.13433433383E+00  0.19473224195E-01 0.  0.
         14    1    1    2    0    0  0.16765205886E-02  0.17758934943E-01 -0.38437447395E-02  0.18247324878E-01  0.00000000000E+00 0.  1.
     999901    1    3    3    0    0 -0.56532738549E-01 -0.46307992205E-01  0.12149685122E+00  0.89134834129E+00  0.88000000000E+00 0.  1.
        -11    1    4    4    0    0  0.18700727079E-01  0.18913857305E-01 -0.38695365453E-01  0.46957891988E-01  0.51100000000E-03 0.  1.
         11    1    4    4    0    0  0.36155490881E-01  0.96351999576E-02 -0.78957741030E-01  0.87376441840E-01  0.51100000000E-03 0. -1.
</event>
<event>
 8    1  0.1109294E+005  0.1043930E+01  0.7957747E-01            NaN
         13   -1    0    0    0    0  0.00000000000E+00  0.00000000000E+00  0.74505805969E-08  0.10566000000E+00  0.10566000000E+00 0.  1.
     999900   -1    0    0    0    0 -0.00000000000E+00 -0.00000000000E+00 -0.74505805969E-08  0.93827000000E+00  0.93827000000E+00 0. -1.
     999902    2    1    2    0    0 -0.10403743210E-01 -0.14484674707E-01 -0.16876663778E-01  0.10193766814E+01  0.10190809355E+01 0.  0.
     999903    2    3    3    0    0  0.10745213768E+00  0.55059372596E-01 -0.39095620870E-01  0.12852312147E+00  0.20303417948E-01 0.  0.
         14    1    1    2    0    0  0.10403743210E-01  0.14484674707E-01  0.16876663778E-01  0.24553318603E-01  0.00000000000E+00 0.  1.
     999901    1    3    3    0    0 -0.11785588089E+00 -0.69544047303E-01  0.22218957093E-01  0.89085355992E+00  0.88000000000E+00 0.  1.
        -11    1    4    4    0    0  0.89919533121E-02 -0.29582954196E-03 -0.55085716336E-04  0.90114868319E-02  0.51100000000E-03 0. -1.
         11    1    4    4    0    0  0.98460184364E-01  0.55355202138E-01 -0.39040535154E-01  0.11951163464E+00  0.51100000000E-03 0.  1.
</event>
<event>
 8    1  0.1109294E+005  0.1043930E+01  0.7957747E-01            NaN
         13   -1    0    0    0    0  0.00000000000E+00  0.00000000000E+00  0.74505805969E-08  0.10566000000E+00  0.10566000000E+00 0.  1.
     999900   -1    0    0    0    0 -0.00000000000E+00 -0.00000000000E+00 -0.74505805969E-08  0.93827000000E+00  0.93827000000E+00 0. -1.
     999902    2    1    2    0    0  0.50611686000E-02 -0.23443389922E-01  0.55300246833E-02  0.10193172161E+01  0.10190200184E+01 0.  0.
     999903    2    3    3    0    0  0.50092636217E-01  0.95637665861E-01  0.65864093625E-01  0.12811110593E+00  0.20458281905E-01 0.  0.
         14    1    1    2    0    0 -0.50611686000E-02  0.23443389922E-01 -0.55300246833E-02  0.24612783906E-01  0.00000000000E+00 0.  1.
     999901    1    3    3    0    0 -0.45031467617E-01 -0.11908105578E+00 -0.60334068941E-01  0.89120611017E+00  0.88000000000E+00 0. -1.
        -11    1    4    4    0    0  0.31663212256E-01  0.65117054557E-01  0.32829887579E-01  0.79503788865E-01  0.51100000000E-03 0.  1.
         11    1    4    4    0    0  0.18429423961E-01  0.30520611304E-01  0.33034206046E-01  0.48607317062E-01  0.51100000000E-03 0. -1.
</event>
<event>
 8    1  0.1109294E+005  0.1043930E+01  0.7957747E-01            NaN
         13   -1    0    0    0    0  0.00000000000E+00  0.00000000000E+00  0.74505805969E-08  0.10566000000E+00  0.10566000000E+00 0.  1.
     999900   -1    0    0    0    0 -0.00000000000E+00 -0.00000000000E+00 -0.74505805969E-08  0.93827000000E+00  0.93827000000E+00 0. -1.
     999902    2    1    2    0    0  0.12646630514E-01 -0.18618384597E-02  0.19588439009E-01  0.10205396035E+01  0.10202715186E+01 0.  0.
     999903    2    3    3    0    0 -0.43127672995E-01 -0.20532452526E-01 -0.11707292336E+00  0.12805112025E+00  0.20234678834E-01 0.  0.
         14    1    1    2    0    0 -0.12646630514E-01  0.18618384597E-02 -0.19588439009E-01  0.23390396504E-01  0.00000000000E+00 0. -1.
     999901    1    3    3    0    0  0.55774303509E-01  0.18670614066E-01  0.13666136237E+00  0.89248848325E+00  0.88000000000E+00 0.  1.
        -11    1    4    4    0    0 -0.13329148775E-01 -0.14723691398E-01 -0.62727334145E-01  0.65798426010E-01  0.51100000000E-03 0. -1.
         11    1    4    4    0    0 -0.29798524220E-01 -0.58087611274E-02 -0.54345589219E-01  0.62252694240E-01  0.51100000000E-03 0.  1.
</event>
<event>
 8    1  0.1109294E+005  0.1043930E+01  0.7957747E-01            NaN
         13   -1    0    0    0    0  0.00000000000E+00  0.00000000000E+00  0.74505805969E-08  0.10566000000E+00  0.10566000000E+00 0. -1.
     999900   -1    0    0    0    0 -0.00000000000E+00 -0.00000000000E+00 -0.74505805969E-08  0.93827000000E+00  0.93827000000E+00 0. -1.
     999902    2    1    2    0    0  0.19277286598E-01 -0.10676738892E-01 -0.72718568132E-02  0.10207246895E+01  0.10204608789E+01 0.  0.
     999903    2    3    3    0    0  0.28143170973E-01  0.68956912160E-01 -0.10673554907E+00  0.13150416101E+00  0.18808857474E-01 0.  0.
         14    1    1    2    0    0 -0.19277286598E-01  0.10676738892E-01  0.72718568132E-02  0.23205310458E-01  0.00000000000E+00 0. -1.
     999901    1    3    3    0    0 -0.88658843755E-02 -0.79633651052E-01  0.99463692261E-01  0.88922052853E+00  0.88000000000E+00 0.  1.
        -11    1    4    4    0    0  0.12328714398E-01  0.12664802504E-01 -0.32568199812E-01  0.37058645161E-01  0.51100000000E-03 0.  1.
         11    1    4    4    0    0  0.15814456576E-01  0.56292109655E-01 -0.74167349263E-01  0.94445515848E-01  0.51100000000E-03 0. -1.
</event>
<event>
 8    1  0.1109294E+005  0.1043930E+01  0.7957747E-01            NaN
         13   -1    0    0    0    0  0.00000000000E+00  0.00000000000E+00  0.74505805969E-08  0.10566000000E+00  0.10566000000E+00 0. -1.
     999900   -1    0    0    0    0 -0.00000000000E+00 -0.00000000000E+00 -0.74505805969E-08  0.93827000000E+00  0.93827000000E+00 0.  1.
     999902    2    1    2    0    0  0.94766145196E-02 -0.10695526265E-01  0.19705491015E-01  0.10195885358E+01  0.10192979326E+01 0.  0.
     999903    2    3    3    0    0  0.41157931568E-01  0.98747713007E-01  0.71630369068E-01  0.13072537339E+00  0.22652313789E-01 0.  0.
         14    1    1    2    0    0 -0.94766145196E-02  0.10695526265E-01 -0.19705491015E-01  0.24341464232E-01  0.00000000000E+00 0.  1.
     999901    1    3    3    0    0 -0.31681317049E-01 -0.10944323927E+00 -0.51924878053E-01  0.88886316238E+00  0.88000000000E+00 0. -1.
        -11    1    4    4    0    0  0.35459209332E-01  0.83967195903E-01  0.50161119608E-01  0.10403962974E+00  0.51100000000E-03 0. -1.
         11    1    4    4    0    0  0.56987222363E-02  0.14780517104E-01  0.21469249460E-01  0.26685743654E-01  0.51100000000E-03 0.  1.
</event>
<event>
 8    1  0.1109294E+005  0.1043930E+01  0.7957747E-01            NaN
         13   -1    0    0    0    0  0.00000000000E+00  0.00000000000E+00  0.74505805969E-08  0.10566000000E+00  0.10566000000E+00 0.  1.
     999900   -1    0    0    0    0 -0.00000000000E+00 -0.00000000000E+00 -0.74505805969E-08  0.93827000000E+00  0.93827000000E+00 0. -1.
     999902    2    1    2    0    0 -0.15431474824E-01 -0.14101781674E-01  0.88813451324E-02  0.10212172513E+01  0.10209646446E+01 0.  0.
     999903    2    3    3    0    0  0.10558331058E-01 -0.10928945147E+00 -0.70791500583E-01  0.13212562227E+00  0.19750467054E-01 0.  0.
         14    1    1    2    0    0  0.15431474824E-01  0.14101781674E-01 -0.88813451324E-02  0.22712748688E-01  0.00000000000E+00 0. -1.
     999901    1    3    3    0    0 -0.25989805882E-01  0.95187669791E-01  0.79672845715E-01  0.88909162904E+00  0.88000000000E+00 0.  1.
        -11    1    4    4    0    0  0.12945318531E-01 -0.10599376081E+00 -0.70617034797E-01  0.12802064415E+00  0.51100000000E-03 0. -1.
         11    1    4    4    0    0 -0.23869874733E-02 -0.32956906513E-02 -0.17446578567E-03  0.41049781214E-02  0.51100000000E-03 0.  1.
</event>
<event>
 8    1  0.1109294E+005  0.1043930E+01  0.7957747E-01            NaN
         13   -1    0    0    0    0  0.00000000000E+00  0.00000000000E+00  0.74505805969E-08  0.10566000000E+00  0.10566000000E+00 0. -1.
     999900   -1    0    0    0    0 -0.00000000000E+00 -0.00000000000E+00 -0.74505805969E-08  0.93827000000E+00  0.93827000000E+00 0.  1.
     999902    2    1    2    0    0 -0.11321436272E-01 -0.43356667777E-02 -0.20466136463E-01  0.10201426995E+01  0.10198653301E+01 0.  0.
     999903    2    3    3    0    0 -0.11547635283E+00  0.59214922027E-01  0.63616495039E-02  0.13131951451E+00  0.19056475386E-01 0.  0.
         14    1    1    2    0    0  0.11321436272E-01  0.43356667777E-02  0.20466136463E-01  0.23787300549E-01  0.00000000000E+00 0. -1.
     999901    1    3    3    0    0  0.10415491656E+00 -0.63550588805E-01 -0.26827785967E-01  0.88882318494E+00  0.88000000000E+00 0. -1.
        -11    1    4    4    0    0 -0.65273100832E-01  0.41291957109E-01 -0.24971075820E-02  0.77279363878E-01  0.51100000000E-03 0. -1.
         11    1    4    4    0    0 -0.50203251999E-01  0.17922964918E-01  0.88587570859E-02  0.54040150636E-01  0.51100000000E-03 0.  1.
</event>
<event>
 8    1  0.1109294E+005  0.1043930E+01  0.7957747E-01            NaN
         13   -1    0    0    0    0  0.00000000000E+00  0.00000000000E+00  0.74505805969E-08  0.10566000000E+00  0.10566000000E+00 0. -1.
     999900   -1    0    0    0    0 -0.00000000000E+00 -0.00000000000E+00 -0.74505805969E-08  0.93827000000E+00  0.93827000000E+00 0. -1.
     999902    2    1    2    0    0 -0.11583821070E-01 -0.18243247232E-01  0.76727637678E-02  0.10209980946E+01  0.10207405336E+01 0.  0.
     999903    2    3    3    0    0 -0.12128050787E+00 -0.47271384224E-01  0.22455641998E-01  0.13358920955E+00  0.19956845819E-01 0.  0.
         14    1    1    2    0    0  0.11583821070E-01  0.18243247232E-01 -0.76727637678E-02  0.22931905372E-01  0.00000000000E+00 0. -1.
     999901    1    3    3    0    0  0.10969668680E+00  0.29028136991E-01 -0.14782878230E-01  0.88740888508E+00  0.88000000000E+00 0.  1.
        -11    1    4    4    0    0 -0.47868513949E-01 -0.83600292181E-02  0.88049251794E-02  0.49386967356E-01  0.51100000000E-03 0. -1.
         11    1    4    4    0    0 -0.73411993917E-01 -0.38911355005E-01  0.13650716819E-01  0.84202242191E-01  0.51100000000E-03 0.  1.
</event>
<event>
 8    1  0.1109294E+005  0.1043930E+01  0.7957747E-01            NaN
         13   -1    0    0    0    0  0.00000000000E+00  0.00000000000E+00  0.74505805969E-08  0.10566000000E+00  0.10566000000E+00 0. -1.
     999900   -1    0    0    0    0 -0.00000000000E+00 -0.00000000000E+00 -0.74505805969E-08  0.93827000000E+00  0.93827000000E+00 0.  1.
     999902    2    1    2    0    0  0.21608940984E-01  0.97443734967E-02 -0.16968778478E-02  0.10201649303E+01  0.10198880852E+01 0.  0.
     999903    2    3    3    0    0  0.12030275473E+00 -0.48836456087E-01 -0.17142276052E-01  0.13257789634E+00  0.20622529693E-01 0.  0.
         14    1    1    2    0    0 -0.21608940984E-01 -0.97443734967E-02  0.16968778478E-02  0.23765069740E-01  0.00000000000E+00 0.  1.
     999901    1    3    3    0    0 -0.98693813741E-01  0.58580829584E-01  0.15445398204E-01  0.88758703392E+00  0.88000000000E+00 0.  1.
        -11    1    4    4    0    0  0.25058616251E-01 -0.18900216759E-01 -0.73847229138E-03  0.31399982552E-01  0.51100000000E-03 0.  1.
         11    1    4    4    0    0  0.95244138474E-01 -0.29936239328E-01 -0.16403803761E-01  0.10117791378E+00  0.51100000000E-03 0. -1.
</event>
<event>
 8    1  0.1109294E+005  0.1043930E+01  0.7957747E-01            NaN
         13   -1    0    0    0    0  0.00000000000E+00  0.00000000000E+00  0.74505805969E-08  0.10566000000E+00  0.10566000000E+00 0.  1.
     999900   -1    0    0    0    0 -0.00000000000E+00 -0.00000000000E+00 -0.74505805969E-08  0.93827000000E+00  0.93827000000E+00 0. -1.
     999902    2    1    2    0    0 -0.22241255171E-01 -0.79650409847E-02 -0.19915061975E-02  0.10202217439E+01  0.10199462365E+01 0.  0.
     999903    2    3    3    0    0  0.20597712077E-01 -0.12045200662E+00  0.42177674241E-01  0.13093022195E+00  0.20756087635E-01 0.  0.
         14    1    1    2    0    0  0.22241255171E-01  0.79650409847E-02  0.19915061975E-02  0.23708256081E-01  0.00000000000E+00 0.  1.
     999901    1    3    3    0    0 -0.42838967248E-01  0.11248696563E+00 -0.44169180438E-01  0.88929152197E+00  0.88000000000E+00 0.  1.
        -11    1    4    4    0    0  0.22816468519E-01 -0.11477444195E+00  0.43175458357E-01  0.12473229368E+00  0.51100000000E-03 0.  1.
         11    1    4    4    0    0 -0.22187564421E-02 -0.56775646680E-02 -0.99778411649E-03  0.61979282709E-02  0.51100000000E-03 0. -1.
</event>
<event>
 8    1  0.1109294E+005  0.1043930E+01  0.7957747E-01            NaN
         13   -1    0    0    0    0  0.00000000000E+00  0.00000000000E+00  0.74505805969E-08  0.10566000000E+00  0.10566000000E+00 0.  1.
     999900   -1    0    0    0    0 -0.00000000000E+00 -0.00000000000E+00 -0.74505805969E-08  0.93827000000E+00  0.93827000000E+00 0.  1.
     999902    2    1    2    0    0  0.42724061702E-02  0.16228755809E-01  0.16608005670E-01  0.10203195823E+01  0.10200463707E+01 0.  0.
     999903    2    3    3    0    0  0.41477191719E-01  0.32393559096E-01 -0.11656458332E+00  0.12937601769E+00  0.19523108536E-01 0.  0.
         14    1    1    2    0    0 -0.42724061702E-02 -0.16228755809E-01 -0.16608005670E-01  0.23610417657E-01  0.00000000000E+00 0. -1.
     999901    1    3    3    0    0 -0.37204785548E-01 -0.16164803288E-01  0.13317258899E+00  0.89094356465E+00  0.88000000000E+00 0. -1.
        -11    1    4    4    0    0  0.10799708315E-01  0.11952789995E-01 -0.18100074583E-01  0.24235855860E-01  0.51100000000E-03 0. -1.
         11    1    4    4    0    0  0.30677483404E-01  0.20440769102E-01 -0.98464508733E-01  0.10514016183E+00  0.51100000000E-03 0.  1.
</event>
<event>
 8    1  0.1109294E+005  0.1043930E+01  0.7957747E-01            NaN
         13   -1    0    0    0    0  0.00000000000E+00  0.00000000000E+00  0.74505805969E-08  0.10566000000E+00  0.10566000000E+00 0.  1.
     999900   -1    0    0    0    0 -0.00000000000E+00 -0.00000000000E+00 -0.74505805969E-08  0.93827000000E+00  0.93827000000E+00 0.  1.
     999902    2    1    2    0    0 -0.22811541055E-01  0.60393137589E-02  0.57055363865E-02  0.10196525854E+01  0.10193635279E+01 0.  0.
     999903    2    3    3    0    0  0.24391731172E-01  0.95734374182E-01 -0.81556863231E-01  0.12954692919E+00  0.19257673061E-01 0.  0.
         14    1    1    2    0    0  0.22811541055E-01 -0.60393137589E-02 -0.57055363865E-02  0.24277414637E-01  0.00000000000E+00 0.  1.
     999901    1    3    3    0    0 -0.47203272227E-01 -0.89695060423E-01  0.87262399617E-01  0.89010565618E+00  0.88000000000E+00 0. -1.
        -11    1    4    4    0    0  0.16547072434E-01  0.29452879762E-01 -0.24458740710E-01  0.41710536445E-01  0.51100000000E-03 0.  1.
         11    1    4    4    0    0  0.78446587384E-02  0.66281494419E-01 -0.57098122521E-01  0.87836392740E-01  0.51100000000E-03 0. -1.
</event>
<event>
 8    1  0.1109294E+005  0.1043930E+01  0.7957747E-01            NaN
         13   -1    0    0    0    0  0.00000000000E+00  0.00000000000E+00  0.74505805969E-08  0.10566000000E+00  0.10566000000E+00 0. -1.
     999900   -1    0    0    0    0 -0.00000000000E+00 -0.00000000000E+00 -0.74505805969E-08  0.93827000000E+00  0.93827000000E+00 0. -1.
     999902    2    1    2    0    0  0.64080727011E-02  0.21338685005E-01 -0.47308279118E-02  0.10211531783E+01  0.10208991282E+01 0.  0.
     999903    2    3    3    0    0  0.58114196319E-01  0.10404849072E+00 -0.58569723855E-01  0.13412834106E+00  0.18885208211E-01 0.  0.
         14    1    1    2    0    0 -0.64080727011E-02 -0.21338685005E-01  0.47308279118E-02  0.22776821688E-01  0.00000000000E+00 0.  1.
     999901    1    3    3    0    0 -0.51706123618E-01 -0.82709805713E-01  0.53838895943E-01  0.88702483725E+00  0.88000000000E+00 0.  1.
        -11    1    4    4    0    0  0.32782680948E-01  0.40304288802E-01 -0.28138228019E-01  0.59086046264E-01  0.51100000000E-03 0. -1.
         11    1    4    4    0    0  0.25331515371E-01  0.63744201916E-01 -0.30431495836E-01  0.75042294799E-01  0.51100000000E-03 0.  1.
</event>
<event>
 8    1  0.1109294E+005  0.1043930E+01  0.7957747E-01            NaN
         13   -1    0    0    0    0  0.00000000000E+00  0.00000000000E+00  0.74505805969E-08  0.10566000000E+00  0.10566000000E+00 0.  1.
     999900   -1    0    0    0    0 -0.00000000000E+00 -0.00000000000E+00 -0.74505805969E-08  0.93827000000E+00  0.93827000000E+00 0.  1.
     999902    2    1    2    0    0 -0.10695669745E-01 -0.99728806609E-02  0.17905654249E-01  0.10208114327E+01  0.10205496132E+01 0.  0.
     999903    2    3    3    0    0  0.72147537816E-01 -0.15905585096E-02  0.10890954315E+00  0.13220861470E+00  0.20249249887E-01 0.  0.
         14    1    1    2    0    0  0.10695669745E-01  0.99728806609E-02 -0.17905654249E-01  0.23118567302E-01  0.00000000000E+00 0. -1.
     999901    1    3    3    0    0 -0.82843207561E-01 -0.83823221513E-02 -0.91003888905E-01  0.88860281800E+00  0.88000000000E+00 0.  1.
        -11    1    4    4    0    0  0.29777307660E-01  0.76116370139E-02  0.35591005999E-01  0.47027714154E-01  0.51100000000E-03 0. -1.
         11    1    4    4    0    0  0.42370230155E-01 -0.92021955235E-02  0.73318537155E-01  0.85180900544E-01  0.51100000000E-03 0.  1.
</event>
<event>
 8    1  0.1109294E+005  0.1043930E+01  0.7957747E-01            NaN
         13   -1    0    0    0    0  0.00000000000E+00  0.00000000000E+00  0.74505805969E-08  0.10566000000E+00  0.10566000000E+00 0.  1.
     999900   -1    0    0    0    0 -0.00000000000E+00 -0.00000000000E+00 -0.74505805969E-08  0.93827000000E+00  0.93827000000E+00 0. -1.
     999902    2    1    2    0    0  0.15332354258E-01  0.17959443212E-01 -0.53568064481E-02  0.10197159945E+01  0.10194284631E+01 0.  0.
     999903    2    3    3    0    0 -0.11702700594E+00 -0.23450873780E-01 -0.42062388528E-01  0.12809886010E+00  0.19869822063E-01 0.  0.
         14    1    1    2    0    0 -0.15332354258E-01 -0.17959443212E-01  0.53568064481E-02  0.24214005511E-01  0.00000000000E+00 0. -1.
     999901    1    3    3    0    0  0.13235936020E+00  0.41410316992E-01  0.36705582080E-01  0.89161713439E+00  0.88000000000E+00 0. -1.
        -11    1    4    4    0    0 -0.81594512156E-01 -0.14825793309E-01 -0.19434705992E-01  0.85178855822E-01  0.51100000000E-03 0.  1.
         11    1    4    4    0    0 -0.35432493785E-01 -0.86250804705E-02 -0.22627682536E-01  0.42920004275E-01  0.51100000000E-03 0. -1.
</event>
<event>
 8    1  0.1109294E+005  0.1043930E+01  0.7957747E-01            NaN
         13   -1    0    0    0    0  0.00000000000E+00  0.00000000000E+00  0.74505805969E-08  0.10566000000E+00  0.10566000000E+00 0. -1.
     999900   -1    0    0    0    0 -0.00000000000E+00 -0.00000000000E+00 -0.74505805969E-08  0.93827000000E+00  0.93827000000E+00 0. -1.
     999902    2    1    2    0    0 -0.83072432653E-03 -0.27941478228E-01  0.51957037558E-02  0.10154974193E+01  0.10150993040E+01 0.  0.
     999903    2    3    3    0    0  0.74871234756E-01 -0.74237614579E-01  0.70993455468E-01  0.12859073706E+00  0.19457176721E-01 0.  0.
         14    1    1    2    0    0  0.83072432653E-03  0.27941478228E-01 -0.51957037558E-02  0.28432580713E-01  0.00000000000E+00 0.  1.
     999901    1    3    3    0    0 -0.75701959082E-01  0.46296136350E-01 -0.65797751712E-01  0.88690668223E+00  0.88000000000E+00 0. -1.
        -11    1    4    4    0    0  0.39767397980E-01 -0.27203122226E-01  0.26932497454E-01  0.55200329175E-01  0.51100000000E-03 0. -1.
         11    1    4    4    0    0  0.35103836775E-01 -0.47034492353E-01  0.44060958014E-01  0.73390407884E-01  0.51100000000E-03 0.  1.
</event>
<event>
 8    1  0.1109294E+005  0.1043930E+01  0.7957747E-01            NaN
         13   -1    0    0    0    0  0.00000000000E+00  0.00000000000E+00  0.74505805969E-08  0.10566000000E+00  0.10566000000E+00 0.  1.
     999900   -1    0    0    0    0 -0.00000000000E+00 -0.00000000000E+00 -0.74505805969E-08  0.93827000000E+00  0.93827000000E+00 0.  1.
     999902    2    1    2    0    0 -0.10428534328E-01  0.19951745494E-01 -0.89074147118E-02  0.10197190828E+01  0.10194316256E+01 0.  0.
     999903    2    3    3    0    0 -0.98753872204E-01  0.27447564465E-01  0.79283448057E-01  0.13087985046E+00  0.18384070545E-01 0.  0.
         14    1    1    2    0    0  0.10428534328E-01 -0.19951745494E-01  0.89074147118E-02  0.24210917235E-01  0.00000000000E+00 0. -1.
     999901    1    3    3    0    0  0.88325337875E-01 -0.74958189704E-02 -0.88190862769E-01  0.88883923231E+00  0.88000000000E+00 0.  1.
        -11    1    4    4    0    0 -0.50200443742E-01  0.47576756245E-02  0.35445002586E-01  0.61638700170E-01  0.51100000000E-03 0. -1.
         11    1    4    4    0    0 -0.48553428461E-01  0.22689888840E-01  0.43838445471E-01  0.69241150288E-01  0.51100000000E-03 0.  1.
</event>
<event>
 8    1  0.1109294E+005  0.1043930E+01  0.7957747E-01            NaN
         13   -1    0    0    0    0  0.00000000000E+00  0.00000000000E+00  0.74505805969E-08  0.10566000000E+00  0.10566000000E+00 0. -1.
     999900   -1    0    0    0    0 -0.00000000000E+00 -0.00000000000E+00 -0.74505805969E-08  0.93827000000E+00  0.93827000000E+00 0.  1.
     999902    2    1    2    0    0  0.18208915344E-01 -0.12663756392E-01  0.82830146892E-02  0.10202541968E+01  0.10199794520E+01 0.  0.
     999903    2    3    3    0    0  0.11949731873E+00 -0.54957690365E-01 -0.81359651119E-02  0.13328311476E+00  0.19955897345E-01 0.  0.
         14    1    1    2    0    0 -0.18208915344E-01  0.12663756392E-01 -0.82830146892E-02  0.23675803182E-01  0.00000000000E+00 0.  1.
     999901    1    3    3    0    0 -0.10128840338E+00  0.42293933972E-01  0.16418979801E-01  0.88697108206E+00  0.88000000000E+00 0. -1.
        -11    1    4    4    0    0  0.53091304176E-01 -0.19402630108E-01 -0.12263612101E-01  0.57842941981E-01  0.51100000000E-03 0.  1.
         11    1    4    4    0    0  0.66406014549E-01 -0.35555060256E-01  0.41276469894E-02  0.75440172778E-01  0.51100000000E-03 0. -1.
</event>
<event>
 8    1  0.1109294E+005  0.1043930E+01  0.7957747E-01            NaN
         13   -1    0    0    0    0  0.00000000000E+00  0.00000000000E+00  0.74505805969E-08  0.10566000000E+00  0.10566000000E+00 0.  1.
     999900   -1    0    0    0    0 -0.00000000000E+00 -0.00000000000E+00 -0.74505805969E-08  0.93827000000E+00  0.93827000000E+00 0.  1.
     999902    2    1    2    0    0  0.10872490870E-01 -0.15923910633E-01  0.69929302389E-02  0.10234194403E+01  0.10232138914E+01 0.  0.
     999903    2    3    3    0    0  0.96473694502E-01 -0.91842852305E-01  0.15507343590E-01  0.13597155615E+00  0.22483396702E-01 0.  0.
         14    1    1    2    0    0 -0.10872490870E-01  0.15923910633E-01 -0.69929302389E-02  0.20510559741E-01  0.00000000000E+00 0.  1.
     999901    1    3    3    0    0 -0.85601203632E-01  0.75918941672E-01 -0.85144133516E-02  0.88744788411E+00  0.88000000000E+00 0. -1.
        -11    1    4    4    0    0  0.49984739141E-01 -0.61449537262E-01  0.13755853063E-01  0.80399032277E-01  0.51100000000E-03 0.  1.
         11    1    4    4    0    0  0.46488955362E-01 -0.30393315043E-01  0.17514905272E-02  0.55572523876E-01  0.51100000000E-03 0. -1.
</event>
<event>
 8    1  0.1109294E+005  0.1043930E+01  0.7957747E-01            NaN
         13   -1    0    0    0    0  0.00000000000E+00  0.00000000000E+00  0.74505805969E-08  0.10566000000E+00  0.10566000000E+00 0.  1.
     999900   -1    0    0    0    0 -0.00000000000E+00 -0.00000000000E+00 -0.74505805969E-08  0.93827000000E+00  0.93827000000E+00 0. -1.
     999902    2    1    2    0    0 -0.10227810455E-01 -0.20819994419E-01 -0.36195877531E-02  0.10204527410E+01  0.10201826380E+01 0.  0.
     999903    2    3    3    0    0  0.84219777703E-01  0.73391346939E-01 -0.60356622253E-01  0.12859220548E+00  0.20341403542E-01 0.  0.
         14    1    1    2    0    0  0.10227810455E-01  0.20819994419E-01  0.36195877531E-02  0.23477258993E-01  0.00000000000E+00 0.  1.
     999901    1    3    3    0    0 -0.94447588158E-01 -0.94211341359E-01  0.56737034500E-01  0.89186053553E+00  0.88000000000E+00 0.  1.
        -11    1    4    4    0    0  0.54778523708E-01  0.51407263685E-01 -0.29868514308E-01  0.80844187714E-01  0.51100000000E-03 0.  1.
         11    1    4    4    0    0  0.29441253995E-01  0.21984083255E-01 -0.30488107945E-01  0.47748017765E-01  0.51100000000E-03 0. -1.
</event>
<event>
 8    1  0.1109294E+005  0.1043930E+01  0.7957747E-01            NaN
         13   -1    0    0    0    0  0.00000000000E+00  0.00000000000E+00  0.74505805969E-08  0.10566000000E+00  0.10566000000E+00 0. -1.
     999900   -1    0    0    0    0 -0.00000000000E+00 -0.00000000000E+00 -0.74505805969E-08  0.93827000000E+00  0.93827000000E+00 0.  1.
     999902    2    1    2    0    0  0.88211212726E-02  0.11307622842E-01  0.19746847263E-01  0.10195248265E+01  0.10192326817E+01 0.  0.
     999903    2    3    3    0    0  0.48451673667E-01  0.81321802951E-01  0.91041557357E-01  0.13298351234E+00  0.20862623786E-01 0.  0.
         14    1    1    2    0    0 -0.88211212726E-02 -0.11307622842E-01 -0.19746847263E-01  0.24405173461E-01  0.00000000000E+00 0.  1.
     999901    1    3    3    0    0 -0.39630552394E-01 -0.70014180109E-01 -0.71294710094E-01  0.88654131420E+00  0.88000000000E+00 0.  1.
        -11    1    4    4    0    0 -0.18304375964E-02  0.51321212495E-02  0.34468477745E-02  0.64676928572E-02  0.51100000000E-03 0.  1.
         11    1    4    4    0    0  0.50282111263E-01  0.76189681701E-01  0.87594709583E-01  0.12651581948E+00  0.51100000000E-03 0. -1.
</event>
<event>
 8    1  0.1109294E+005  0.1043930E+01  0.7957747E-01            NaN
         13   -1    0    0    0    0  0.00000000000E+00  0.00000000000E+00  0.74505805969E-08  0.10566000000E+00  0.10566000000E+00 0. -1.
     999900   -1    0    0    0    0 -0.00000000000E+00 -0.00000000000E+00 -0.74505805969E-08  0.93827000000E+00  0.93827000000E+00 0. -1.
     999902    2    1    2    0    0  0.14797598016E-02  0.19320098158E-01 -0.78574148918E-02  0.10230207951E+01  0.10228070944E+01 0.  0.
     999903    2    3    3    0    0 -0.15661306924E-01  0.11650237732E+00 -0.64874624355E-01  0.13567127334E+00  0.19490948369E-01 0.  0.
         14    1    1    2    0    0 -0.14797598016E-02 -0.19320098158E-01  0.78574148918E-02  0.20909204927E-01  0.00000000000E+00 0. -1.
     999901    1    3    3    0    0  0.17141066726E-01 -0.97182279160E-01  0.57017209463E-01  0.88734952174E+00  0.88000000000E+00 0.  1.
        -11    1    4    4    0    0 -0.17939650506E-01  0.76959346982E-01 -0.49088788109E-01  0.93029793008E-01  0.51100000000E-03 0. -1.
         11    1    4    4    0    0  0.22783435812E-02  0.39543030336E-01 -0.15785836246E-01  0.42641480329E-01  0.51100000000E-03 0.  1.
</event>
<event>
 8    1  0.1109294E+005  0.1043930E+01  0.7957747E-01            NaN
         13   -1    0    0    0    0  0.00000000000E+00  0.00000000000E+00  0.74505805969E-08  0.10566000000E+00  0.10566000000E+00 0. -1.
     999900   -1    0    0    0    0 -0.00000000000E+00 -0.00000000000E+00 -0.74505805969E-08  0.93827000000E+00  0.93827000000E+00 0.  1.
     999902    2    1    2    0    0  0.20006781140E-01  0.12636322459E-01  0.15852697812E-02  0.10202137394E+01  0.10199380437E+01 0.  0.
     999903    2    3    3    0    0 -0.48090782530E-01 -0.86297175850E-01 -0.79577298740E-01  0.12835473832E+00  0.19556749490E-01 0.  0.
         14    1    1    2    0    0 -0.20006781140E-01 -0.12636322459E-01 -0.15852697812E-02  0.23716260606E-01  0.00000000000E+00 0. -1.
     999901    1    3    3    0    0  0.68097563670E-01  0.98933498309E-01  0.81162568521E-01  0.89185900107E+00  0.88000000000E+00 0. -1.
        -11    1    4    4    0    0 -0.10954405036E-01 -0.81513623286E-02 -0.66435332383E-02  0.15193464134E-01  0.51100000000E-03 0. -1.
         11    1    4    4    0    0 -0.37136377494E-01 -0.78145813521E-01 -0.72933765502E-01  0.11316127419E+00  0.51100000000E-03 0.  1.
</event>
<event>
 8    1  0.1109294E+005  0.1043930E+01  0.7957747E-01            NaN
         13   -1    0    0    0    0  0.00000000000E+00  0.00000000000E+00  0.74505805969E-08  0.10566000000E+00  0.10566000000E+00 0.  1.
     999900   -1    0    0    0    0 -0.00000000000E+00 -0.00000000000E+00 -0.74505805969E-08  0.93827000000E+00  0.93827000000E+00 0.  1.
     999902    2    1    2    0    0 -0.63657850327E-02  0.18830456610E-01 -0.53196042269E-02  0.10233531318E+01  0.10231462383E+01 0.  0.
     999903    2    3    3    0    0  0.44697752105E-01 -0.55580032413E-01  0.10855754846E+00  0.13143810693E+00  0.20104864588E-01 0.  0.
         14    1    1    2    0    0  0.63657850327E-02 -0.18830456610E-01  0.53196042269E-02  0.20576868186E-01  0.00000000000E+00 0. -1.
     999901    1    3    3    0    0 -0.51063537137E-01  0.74410489024E-01 -0.11387715269E+00  0.89191502488E+00  0.88000000000E+00 0.  1.
        -11    1    4    4    0    0  0.10547847372E-01 -0.18086141786E-01  0.48510446328E-01  0.52838339611E-01  0.51100000000E-03 0.  1.
         11    1    4    4    0    0  0.34149904733E-01 -0.37493890627E-01  0.60047102134E-01  0.78599767323E-01  0.51100000000E-03 0. -1.
</event>
<event>
 8    1  0.1109294E+005  0.1043930E+01  0.7957747E-01            NaN
         13   -1    0    0    0    0  0.00000000000E+00  0.00000000000E+00  0.74505805969E-08  0.10566000000E+00  0.10566000000E+00 0. -1.
     999900   -1    0    0    0    0 -0.00000000000E+00 -0.00000000000E+00 -0.74505805969E-08  0.93827000000E+00  0.93827000000E+00 0. -1.
     999902    2    1    2    0    0  0.15722953448E-01  0.51946796206E-03  0.82526085651E-02  0.10261652411E+01  0.10260114596E+01 0.  0.
     999903    2    3    3    0    0  0.61628226308E-01  0.54602241669E-02  0.12118792085E+00  0.13774749590E+00  0.21447800411E-01 0.  0.
         14    1    1    2    0    0 -0.15722953448E-01 -0.51946796206E-03 -0.82526085651E-02  0.17764758941E-01  0.00000000000E+00 0. -1.
     999901    1    3    3    0    0 -0.45905272859E-01 -0.49407562048E-02 -0.11293531228E+00  0.88841774516E+00  0.88000000000E+00 0.  1.
        -11    1    4    4    0    0  0.16254908750E-01  0.11173463246E-01  0.37929338047E-01  0.42754697345E-01  0.51100000000E-03 0. -1.
         11    1    4    4    0    0  0.45373317558E-01 -0.57132390791E-02  0.83258582800E-01  0.94992798558E-01  0.51100000000E-03 0.  1.
</event>
<event>
 8    1  0.1109294E+005  0.1043930E+01  0.7957747E-01            NaN
         13   -1    0    0    0    0  0.00000000000E+00  0.00000000000E+00  0.74505805969E-08  0.10566000000E+00  0.10566000000E+00 0. -1.
     999900   -1    0    0    0    0 -0.00000000000E+00 -0.00000000000E+00 -0.74505805969E-08  0.93827000000E+00  0.93827000000E+00 0. -1.
     999902    2    1    2    0    0 -0.63243355861E-02 -0.18435244350E-01 -0.13206455054E-01  0.10203871474E+01  0.10201155153E+01 0.  0.
     999903    2    3    3    0    0  0.56127868241E-02  0.43789880228E-01 -0.12217965549E+00  0.13140479691E+00  0.19755896558E-01 0.  0.
         14    1    1    2    0    0  0.63243355861E-02  0.18435244350E-01  0.13206455054E-01  0.23542852630E-01  0.00000000000E+00 0. -1.
     999901    1    3    3    0    0 -0.11937122410E-01 -0.62225124577E-01  0.10897320043E+00  0.88898235046E+00  0.88000000000E+00 0.  1.
        -11    1    4    4    0    0  0.27551015648E-02  0.22682054466E-01 -0.89658883605E-01  0.92525902912E-01  0.51100000000E-03 0.  1.
         11    1    4    4    0    0  0.28576852593E-02  0.21107825761E-01 -0.32520771884E-01  0.38878893996E-01  0.51100000000E-03 0. -1.
</event>
<event>
 8    1  0.1109294E+005  0.1043930E+01  0.7957747E-01            NaN
         13   -1    0    0    0    0  0.00000000000E+00  0.00000000000E+00  0.74505805969E-08  0.10566000000E+00  0.10566000000E+00 0. -1.
     999900   -1    0    0    0    0 -0.00000000000E+00 -0.00000000000E+00 -0.74505805969E-08  0.93827000000E+00  0.93827000000E+00 0. -1.
     999902    2    1    2    0    0  0.50114780897E-02  0.18869881567E-01  0.15366286006E-01  0.10190842742E+01  0.10187813543E+01 0.  0.
     999903    2    3    3    0    0 -0.11974653355E+00  0.34500324787E-01 -0.14887842896E-01  0.12963265412E+00  0.32457240166E-01 0.  0.
         14    1    1    2    0    0 -0.50114780897E-02 -0.18869881567E-01 -0.15366286006E-01  0.24845725762E-01  0.00000000000E+00 0. -1.
     999901    1    3    3    0    0  0.12475801164E+00 -0.15630443220E-01  0.30254128902E-01  0.88945162012E+00  0.88000000000E+00 0. -1.
        -11    1    4    4    0    0 -0.11055176646E-01 -0.16852750407E-02 -0.99358774769E-02  0.14967961280E-01  0.51100000000E-03 0.  1.
         11    1    4    4    0    0 -0.10869135690E+00  0.36185599828E-01 -0.49519654191E-02  0.11466469284E+00  0.51100000000E-03 0. -1.
</event>
<event>
 8    1  0.1109294E+005  0.1043930E+01  0.7957747E-01            NaN
         13   -1    0    0    0    0  0.00000000000E+00  0.00000000000E+00  0.74505805969E-08  0.10566000000E+00  0.10566000000E+00 0. -1.
     999900   -1    0    0    0    0 -0.00000000000E+00 -0.00000000000E+00 -0.74505805969E-08  0.93827000000E+00  0.93827000000E+00 0. -1.
     999902    2    1    2    0    0 -0.16430155078E-01 -0.36749133679E-02 -0.16603550362E-01  0.10202840095E+01  0.10200099642E+01 0.  0.
     999903    2    3    3    0    0  0.11456275270E-01  0.29631724721E-01  0.12268221753E+00  0.12827083115E+00  0.19829126882E-01 0.  0.
         14    1    1    2    0    0  0.16430155078E-01  0.36749133679E-02  0.16603550362E-01  0.23645990543E-01  0.00000000000E+00 0. -1.
     999901    1    3    3    0    0 -0.27886430348E-01 -0.33306638089E-01 -0.13928576789E+00  0.89201317831E+00  0.88000000000E+00 0. -1.
        -11    1    4    4    0    0  0.86957547225E-02  0.29670980502E-02  0.49123587624E-01  0.49978073223E-01  0.51100000000E-03 0. -1.
         11    1    4    4    0    0  0.27605205475E-02  0.26664626671E-01  0.73558629904E-01  0.78292757926E-01  0.51100000000E-03 0.  1.
</event>
<event>
 8    1  0.1109294E+005  0.1043930E+01  0.7957747E-01            NaN
         13   -1    0    0    0    0  0.00000000000E+00  0.00000000000E+00  0.74505805969E-08  0.10566000000E+00  0.10566000000E+00 0. -1.
     999900   -1    0    0    0    0 -0.00000000000E+00 -0.00000000000E+00 -0.74505805969E-08  0.93827000000E+00  0.93827000000E+00 0.  1.
     999902    2    1    2    0    0  0.36721287161E-02  0.19116775715E-01 -0.11832480741E-01  0.10211496742E+01  0.10208955450E+01 0.  0.
     999903    2    3    3    0    0 -0.11506512935E+00  0.61175587968E-01  0.86389615339E-02  0.13194409612E+00  0.18766360533E-01 0.  0.
         14    1    1    2    0    0 -0.36721287161E-02 -0.19116775715E-01  0.11832480741E-01  0.22780325799E-01  0.00000000000E+00 0.  1.
     999901    1    3    3    0    0  0.11873725807E+00 -0.42058812254E-01 -0.20471442275E-01  0.88920557808E+00  0.88000000000E+00 0.  1.
        -11    1    4    4    0    0 -0.75214091163E-01  0.49701043714E-01  0.45143743383E-02  0.90266239272E-01  0.51100000000E-03 0.  1.
         11    1    4    4    0    0 -0.39851038192E-01  0.11474544255E-01  0.41245871956E-02  0.41677856847E-01  0.51100000000E-03 0. -1.
</event>
<event>
 8    1  0.1109294E+005  0.1043930E+01  0.7957747E-01            NaN
         13   -1    0    0    0    0  0.00000000000E+00  0.00000000000E+00  0.74505805969E-08  0.10566000000E+00  0.10566000000E+00 0.  1.
     999900   -1    0    0    0    0 -0.00000000000E+00 -0.00000000000E+00 -0.74505805969E-08  0.93827000000E+00  0.93827000000E+00 0. -1.
     999902    2    1    2    0    0 -0.13408542838E-02 -0.49103076355E-02  0.22210039223E-01  0.10211441523E+01  0.10208898986E+01 0.  0.
     999903    2    3    3    0    0  0.61895640310E-01  0.11350260108E+00  0.60554992313E-02  0.13081756037E+00  0.19043484162E-01 0.  0.
         14    1    1    2    0    0  0.13408542838E-02  0.49103076355E-02 -0.22210039223E-01  0.22785847660E-01  0.00000000000E+00 0. -1.
     999901    1    3    3    0    0 -0.63236494594E-01 -0.11841290872E+00  0.16154539992E-01  0.89032659197E+00  0.88000000000E+00 0. -1.
        -11    1    4    4    0    0  0.12334129269E-01  0.40002597217E-01  0.49953436225E-02  0.42161037794E-01  0.51100000000E-03 0. -1.
         11    1    4    4    0    0  0.49561511041E-01  0.73500003867E-01  0.10601556087E-02  0.88656522580E-01  0.51100000000E-03 0.  1.
</event>
<event>
 8    1  0.1109294E+005  0.1043930E+01  0.7957747E-01            NaN
         13   -1    0    0    0    0  0.00000000000E+00  0.00000000000E+00  0.74505805969E-08  0.10566000000E+00  0.10566000000E+00 0. -1.
     999900   -1    0    0    0    0 -0.00000000000E+00 -0.00000000000E+00 -0.74505805969E-08  0.93827000000E+00  0.93827000000E+00 0. -1.
     999902    2    1    2    0    0  0.16879715403E-01  0.11359216328E-01  0.13510253103E-01  0.10195069878E+01  0.10192144105E+01 0.  0.
     999903    2    3    3    0    0 -0.10246138932E+00 -0.73143928112E-01  0.75099843142E-02  0.12742006155E+00  0.18196200194E-01 0.  0.
         14    1    1    2    0    0 -0.16879715403E-01 -0.11359216328E-01 -0.13510253103E-01  0.24423012233E-01  0.00000000000E+00 0.  1.
     999901    1    3    3    0    0  0.11934110472E+00  0.84503144440E-01  0.60002687884E-02  0.89208692621E+00  0.88000000000E+00 0. -1.
        -11    1    4    4    0    0 -0.27400207833E-01 -0.26019682927E-01  0.87197169238E-02  0.38782597555E-01  0.51100000000E-03 0. -1.
         11    1    4    4    0    0 -0.75061181484E-01 -0.47124245185E-01 -0.12097326096E-02  0.88637463998E-01  0.51100000000E-03 0.  1.
</event>
<event>
 8    1  0.1109294E+005  0.1043930E+01  0.7957747E-01            NaN
         13   -1    0    0    0    0  0.00000000000E+00  0.00000000000E+00  0.74505805969E-08  0.10566000000E+00  0.10566000000E+00 0. -1.
     999900   -1    0    0    0    0 -0.00000000000E+00 -0.00000000000E+00 -0.74505805969E-08  0.93827000000E+00  0.93827000000E+00 0. -1.
     999902    2    1    2    0    0  0.24915281532E-02  0.11718665858E-01  0.20195139089E-01  0.10204485502E+01  0.10201783497E+01 0.  0.
     999903    2    3    3    0    0  0.11908490151E+00  0.30399880867E-01  0.44599843716E-01  0.13222639774E+00  0.19730881286E-01 0.  0.
         14    1    1    2    0    0 -0.24915281532E-02 -0.11718665858E-01 -0.20195139089E-01  0.23481449804E-01  0.00000000000E+00 0.  1.
     999901    1    3    3    0    0 -0.11659337335E+00 -0.18681215008E-01 -0.24404704627E-01  0.88822215246E+00  0.88000000000E+00 0.  1.
        -11    1    4    4    0    0  0.31609311474E-01  0.20780397111E-02  0.18319048436E-01  0.36596659377E-01  0.51100000000E-03 0.  1.
         11    1    4    4    0    0  0.87475590033E-01  0.28321841156E-01  0.26280795280E-01  0.95629738365E-01  0.51100000000E-03 0. -1.
</event>
<event>
 8    1  0.1109294E+005  0.1043930E+01  0.7957747E-01            NaN
         13   -1    0    0    0    0  0.00000000000E+00  0.00000000000E+00  0.74505805969E-08  0.10566000000E+00  0.10566000000E+00 0. -1.
     999900   -1    0    0    0    0 -0.00000000000E+00 -0.00000000000E+00 -0.74505805969E-08  0.93827000000E+00  0.93827000000E+00 0. -1.
     999902    2    1    2    0    0  0.38750780283E-02  0.12178783384E-01 -0.19710161879E-01  0.10204389490E+01  0.10201685249E+01 0.  0.
     999903    2    3    3    0    0  0.34575071673E-01 -0.92871312293E-01 -0.83733979594E-01  0.13135117977E+00  0.20524055638E-01 0.  0.
         14    1    1    2    0    0 -0.38750780283E-02 -0.12178783384E-01  0.19710161879E-01  0.23491050972E-01  0.00000000000E+00 0. -1.
     999901    1    3    3    0    0 -0.30699993644E-01  0.10505009568E+00  0.64023817715E-01  0.88908776926E+00  0.88000000000E+00 0.  1.
        -11    1    4    4    0    0  0.28451788107E-01 -0.47917942610E-01 -0.49046453831E-01  0.74239135399E-01  0.51100000000E-03 0.  1.
         11    1    4    4    0    0  0.61232835655E-02 -0.44953369684E-01 -0.34687525763E-01  0.57112044370E-01  0.51100000000E-03 0. -1.
</event>
<event>
 8    1  0.1109294E+005  0.1043930E+01  0.7957747E-01            NaN
         13   -1    0    0    0    0  0.00000000000E+00  0.00000000000E+00  0.74505805969E-08  0.10566000000E+00  0.10566000000E+00 0.  1.
     999900   -1    0    0    0    0 -0.00000000000E+00 -0.00000000000E+00 -0.74505805969E-08  0.93827000000E+00  0.93827000000E+00 0. -1.
     999902    2    1    2    0    0  0.16389904408E-01  0.17429322963E-01 -0.61293145481E-03  0.10199970530E+01  0.10197162361E+01 0.  0.
     999903    2    3    3    0    0  0.36046709238E-01  0.10055771753E+00  0.75734854641E-01  0.13257060290E+00  0.20687598774E-01 0.  0.
         14    1    1    2    0    0 -0.16389904408E-01 -0.17429322963E-01  0.61293145481E-03  0.23932946965E-01  0.00000000000E+00 0. -1.
     999901    1    3    3    0    0 -0.19656804830E-01 -0.83128394571E-01 -0.76347786096E-01  0.88742645014E+00  0.88000000000E+00 0. -1.
        -11    1    4    4    0    0  0.32804536056E-01  0.69119140690E-01  0.46615284204E-01  0.89592628257E-01  0.51100000000E-03 0. -1.
         11    1    4    4    0    0  0.32421731822E-02  0.31438576844E-01  0.29119570436E-01  0.42977974642E-01  0.51100000000E-03 0.  1.
</event>
<event>
 8    1  0.1109294E+005  0.1043930E+01  0.7957747E-01            NaN
         13   -1    0    0    0    0  0.00000000000E+00  0.00000000000E+00  0.74505805969E-08  0.10566000000E+00  0.10566000000E+00 0. -1.
     999900   -1    0    0    0    0 -0.00000000000E+00 -0.00000000000E+00 -0.74505805969E-08  0.93827000000E+00  0.93827000000E+00 0.  1.
     999902    2    1    2    0    0  0.21144880585E-01  0.11482488641E-01 -0.38178854999E-02  0.10195675336E+01  0.10192764226E+01 0.  0.
     999903    2    3    3    0    0  0.11660242478E+00 -0.41946090924E-01 -0.40866443767E-01  0.13202071705E+00  0.20094862446E-01 0.  0.
         14    1    1    2    0    0 -0.21144880585E-01 -0.11482488641E-01  0.38178854999E-02  0.24362466420E-01  0.00000000000E+00 0. -1.
     999901    1    3    3    0    0 -0.95457544194E-01  0.53428579565E-01  0.37048558267E-01  0.88754681653E+00  0.88000000000E+00 0.  1.
        -11    1    4    4    0    0  0.69355691313E-01 -0.31448693843E-01 -0.16884806082E-01  0.78003782340E-01  0.51100000000E-03 0.  1.
         11    1    4    4    0    0  0.47246733467E-01 -0.10497397081E-01 -0.23981637684E-01  0.54016934713E-01  0.51100000000E-03 0. -1.
</event>
<event>
 8    1  0.1109294E+005  0.1043930E+01  0.7957747E-01            NaN
         13   -1    0    0    0    0  0.00000000000E+00  0.00000000000E+00  0.74505805969E-08  0.10566000000E+00  0.10566000000E+00 0.  1.
     999900   -1    0    0    0    0 -0.00000000000E+00 -0.00000000000E+00 -0.74505805969E-08  0.93827000000E+00  0.93827000000E+00 0. -1.
     999902    2    1    2    0    0 -0.20632715883E-01 -0.41633962513E-02  0.95769870637E-02  0.10208050889E+01  0.10205431240E+01 0.  0.
     999903    2    3    3    0    0 -0.13020492267E+00 -0.16885157225E-01  0.15708306492E-01  0.13389725557E+00  0.21054541887E-01 0.  0.
         14    1    1    2    0    0  0.20632715883E-01  0.41633962513E-02 -0.95769870637E-02  0.23124911119E-01  0.00000000000E+00 0. -1.
     999901    1    3    3    0    0  0.10957220679E+00  0.12721760974E-01 -0.61313194288E-02  0.88690783331E+00  0.88000000000E+00 0. -1.
        -11    1    4    4    0    0 -0.12652698766E+00 -0.19988525525E-01  0.15718200016E-01  0.12905790441E+00  0.51100000000E-03 0. -1.
         11    1    4    4    0    0 -0.36779350193E-02  0.31033682997E-02 -0.98935238501E-05  0.48393511643E-02  0.51100000000E-03 0.  1.
</event>
<event>
 8    1  0.1109294E+005  0.1043930E+01  0.7957747E-01            NaN
         13   -1    0    0    0    0  0.00000000000E+00  0.00000000000E+00  0.74505805969E-08  0.10566000000E+00  0.10566000000E+00 0. -1.
     999900   -1    0    0    0    0 -0.00000000000E+00 -0.00000000000E+00 -0.74505805969E-08  0.93827000000E+00  0.93827000000E+00 0. -1.
     999902    2    1    2    0    0  0.10777820987E-01  0.15268910858E-01  0.15070493751E-01  0.10199212340E+01  0.10196386138E+01 0.  0.
     999903    2    3    3    0    0  0.50430103156E-01 -0.82167014459E-01  0.86065052640E-01  0.13081702725E+00  0.20280230866E-01 0.  0.
         14    1    1    2    0    0 -0.10777820987E-01 -0.15268910858E-01 -0.15070493751E-01  0.24008766022E-01  0.00000000000E+00 0. -1.
     999901    1    3    3    0    0 -0.39652282169E-01  0.97435925316E-01 -0.70994558889E-01  0.88910420672E+00  0.88000000000E+00 0. -1.
        -11    1    4    4    0    0  0.22230526304E-01 -0.18925924876E-01  0.23252395348E-01  0.37327227899E-01  0.51100000000E-03 0. -1.
         11    1    4    4    0    0  0.28199576852E-01 -0.63241089583E-01  0.62812657292E-01  0.93489799355E-01  0.51100000000E-03 0.  1.
</event>
<event>
 8    1  0.1109294E+005  0.1043930E+01  0.7957747E-01            NaN
         13   -1    0    0    0    0  0.00000000000E+00  0.00000000000E+00  0.74505805969E-08  0.10566000000E+00  0.10566000000E+00 0.  1.
     999900   -1    0    0    0    0 -0.00000000000E+00 -0.00000000000E+00 -0.74505805969E-08  0.93827000000E+00  0.93827000000E+00 0.  1.
     999902    2    1    2    0    0 -0.12985216725E-02  0.22892981838E-01 -0.30367237893E-02  0.10208000094E+01  0.10205379281E+01 0.  0.
     999903    2    3    3    0    0 -0.95821606378E-01 -0.75580255752E-01 -0.38704828954E-01  0.12956277618E+00  0.19856834566E-01 0.  0.
         14    1    1    2    0    0  0.12985216725E-02 -0.22892981838E-01  0.30367237893E-02  0.23129990647E-01  0.00000000000E+00 0. -1.
     999901    1    3    3    0    0  0.94523084706E-01  0.98473237591E-01  0.35668105165E-01  0.89123723317E+00  0.88000000000E+00 0.  1.
        -11    1    4    4    0    0 -0.73843896426E-01 -0.67159161484E-01 -0.27787438562E-01  0.10361311149E+00  0.51100000000E-03 0.  1.
         11    1    4    4    0    0 -0.21977709952E-01 -0.84210942682E-02 -0.10917390392E-01  0.25949664688E-01  0.51100000000E-03 0. -1.
</event>
<event>
 8    1  0.1109294E+005  0.1043930E+01  0.7957747E-01            NaN
         13   -1    0    0    0    0  0.00000000000E+00  0.00000000000E+00  0.74505805969E-08  0.10566000000E+00  0.10566000000E+00 0. -1.
     999900   -1    0    0    0    0 -0.00000000000E+00 -0.00000000000E+00 -0.74505805969E-08  0.93827000000E+00  0.93827000000E+00 0. -1.
     999902    2    1    2    0    0  0.32322769679E-01 -0.16434362193E-01 -0.32229689880E-03  0.10076677114E+01  0.10070150262E+01 0.  0.
     999903    2    3    3    0    0 -0.47496491600E-01  0.83128378911E-01 -0.62829938019E-01  0.11626933855E+00  0.20117501870E-01 0.  0.
         14    1    1    2    0    0 -0.32322769679E-01  0.16434362193E-01  0.32229689880E-03  0.36262288616E-01  0.00000000000E+00 0.  1.
     999901    1    3    3    0    0  0.79819261279E-01 -0.99562741104E-01  0.62507641120E-01  0.89139837283E+00  0.88000000000E+00 0.  1.
        -11    1    4    4    0    0 -0.31466924858E-01  0.57858178275E-01 -0.53692658036E-01  0.84975871877E-01  0.51100000000E-03 0.  1.
         11    1    4    4    0    0 -0.16029566741E-01  0.25270200636E-01 -0.91372799825E-02  0.31293466675E-01  0.51100000000E-03 0. -1.
</event>
<event>
 8    1  0.1109294E+005  0.1043930E+01  0.7957747E-01            NaN
         13   -1    0    0    0    0  0.00000000000E+00  0.00000000000E+00  0.74505805969E-08  0.10566000000E+00  0.10566000000E+00 0.  1.
     999900   -1    0    0    0    0 -0.00000000000E+00 -0.00000000000E+00 -0.74505805969E-08  0.93827000000E+00  0.93827000000E+00 0. -1.
     999902    2    1    2    0    0 -0.10197070633E-01  0.19260258874E-01 -0.82817151214E-02  0.10206163854E+01  0.10203500779E+01 0.  0.
     999903    2    3    3    0    0  0.91425662865E-01  0.91189389166E-01  0.16426715397E-01  0.13150925669E+00  0.18726747961E-01 0.  0.
         14    1    1    2    0    0  0.10197070633E-01 -0.19260258874E-01  0.82817151214E-02  0.23313614622E-01  0.00000000000E+00 0.  1.
     999901    1    3    3    0    0 -0.10162273350E+00 -0.71929130292E-01 -0.24708430518E-01  0.88910712869E+00  0.88000000000E+00 0.  1.
        -11    1    4    4    0    0  0.21386538849E-01  0.32425832513E-01  0.15331870973E-02  0.38877119772E-01  0.51100000000E-03 0. -1.
         11    1    4    4    0    0  0.70039124016E-01  0.58763556653E-01  0.14893528299E-01  0.92632136916E-01  0.51100000000E-03 0.  1.
</event>
<event>
 8    1  0.1109294E+005  0.1043930E+01  0.7957747E-01            NaN
         13   -1    0    0    0    0  0.00000000000E+00  0.00000000000E+00  0.74505805969E-08  0.10566000000E+00  0.10566000000E+00 0. -1.
     999900   -1    0    0    0    0 -0.00000000000E+00 -0.00000000000E+00 -0.74505805969E-08  0.93827000000E+00  0.93827000000E+00 0. -1.
     999902    2    1    2    0    0  0.91003885467E-02  0.15496619661E-01  0.16486239503E-01  0.10195423313E+01  0.10192506104E+01 0.  0.
     999903    2    3    3    0    0  0.91661774713E-01  0.14466184971E-01 -0.88117912521E-01  0.12950892017E+00  0.19915884220E-01 0.  0.
         14    1    1    2    0    0 -0.91003885467E-02 -0.15496619661E-01 -0.16486239503E-01  0.24387668719E-01  0.00000000000E+00 0.  1.
     999901    1    3    3    0    0 -0.82561386167E-01  0.10304346898E-02  0.10460415202E+00  0.89003341112E+00  0.88000000000E+00 0.  1.
        -11    1    4    4    0    0  0.21414440361E-01 -0.44850999051E-02 -0.16434348788E-01  0.27368655762E-01  0.51100000000E-03 0.  1.
         11    1    4    4    0    0  0.70247334353E-01  0.18951284876E-01 -0.71683563732E-01  0.10214026440E+00  0.51100000000E-03 0. -1.
</event>
<event>
 8    1  0.1109294E+005  0.1043930E+01  0.7957747E-01            NaN
         13   -1    0    0    0    0  0.00000000000E+00  0.00000000000E+00  0.74505805969E-08  0.10566000000E+00  0.10566000000E+00 0. -1.
     999900   -1    0    0    0    0 -0.00000000000E+00 -0.00000000000E+00 -0.74505805969E-08  0.93827000000E+00  0.93827000000E+00 0. -1.
     999902    2    1    2    0    0  0.30796475495E-02 -0.14842281957E-01  0.18896263939E-01  0.10197050882E+01  0.10194172946E+01 0.  0.
     999903    2    3    3    0    0  0.82789630983E-01 -0.47956643226E-01  0.89723076852E-01  0.13265002797E+00  0.19794867349E-01 0.  0.
         14    1    1    2    0    0 -0.30796475495E-02  0.14842281957E-01 -0.18896263939E-01  0.24224911838E-01  0.00000000000E+00 0.  1.
     999901    1    3    3    0    0 -0.79709983434E-01  0.33114361270E-01 -0.70826812913E-01  0.88705506019E+00  0.88000000000E+00 0. -1.
        -11    1    4    4    0    0  0.13118818587E-01 -0.15100840592E-01  0.12600011625E-01  0.23646568497E-01  0.51100000000E-03 0. -1.
         11    1    4    4    0    0  0.69670812396E-01 -0.32855802634E-01  0.77123065227E-01  0.10900345948E+00  0.51100000000E-03 0.  1.
</event>
<event>
 8    1  0.1109294E+005  0.1043930E+01  0.7957747E-01            NaN
         13   -1    0    0    0    0  0.00000000000E+00  0.00000000000E+00  0.74505805969E-08  0.10566000000E+00  0.10566000000E+00 0. -1.
     999900   -1    0    0    0    0 -0.00000000000E+00 -0.00000000000E+00 -0.74505805969E-08  0.93827000000E+00  0.93827000000E+00 0.  1.
     999902    2    1    2    0    0  0.14068989382E-02  0.13224462069E-01  0.21065914793E-01  0.10190173822E+01  0.10187128087E+01 0.  0.
     999903    2    3    3    0    0 -0.25556542866E-01 -0.96037558165E-01  0.81050264753E-01  0.12982486167E+00  0.20223744179E-01 0.  0.
         14    1    1    2    0    0 -0.14068989382E-02 -0.13224462069E-01 -0.21065914793E-01  0.24912617841E-01  0.00000000000E+00 0.  1.
     999901    1    3    3    0    0  0.26963441804E-01  0.10926202023E+00 -0.59984349960E-01  0.88919252049E+00  0.88000000000E+00 0. -1.
        -11    1    4    4    0    0 -0.93748028522E-02 -0.53148938928E-01  0.55178281654E-01  0.77185494265E-01  0.51100000000E-03 0. -1.
         11    1    4    4    0    0 -0.16181740013E-01 -0.42888619237E-01  0.25871983099E-01  0.52639367402E-01  0.51100000000E-03 0.  1.
</event>
<event>
 8    1  0.1109294E+005  0.1043930E+01  0.7957747E-01            NaN
         13   -1    0    0    0    0  0.00000000000E+00  0.00000000000E+00  0.74505805969E-08  0.10566000000E+00  0.10566000000E+00 0.  1.
     999900   -1    0    0    0    0 -0.00000000000E+00 -0.00000000000E+00 -0.74505805969E-08  0.93827000000E+00  0.93827000000E+00 0. -1.
     999902    2    1    2    0    0 -0.57796740063E-02 -0.19851926166E-01  0.13764613059E-01  0.10190911559E+01  0.10187884058E+01 0.  0.
     999903    2    3    3    0    0  0.34913169804E-01 -0.49876903152E-01  0.11511444521E+00  0.13183178273E+00  0.20534082587E-01 0.  0.
         14    1    1    2    0    0  0.57796740063E-02  0.19851926166E-01 -0.13764613059E-01  0.24838844111E-01  0.00000000000E+00 0.  1.
     999901    1    3    3    0    0 -0.40692843810E-01  0.30024976987E-01 -0.10134983215E+00  0.88725937316E+00  0.88000000000E+00 0. -1.
        -11    1    4    4    0    0  0.23355290728E-01 -0.29373561113E-01  0.49481866037E-01  0.62104684887E-01  0.51100000000E-03 0.  1.
         11    1    4    4    0    0  0.11557879076E-01 -0.20503342039E-01  0.65632579174E-01  0.69727097843E-01  0.51100000000E-03 0. -1.
</event>
<event>
 8    1  0.1109294E+005  0.1043930E+01  0.7957747E-01            NaN
         13   -1    0    0    0    0  0.00000000000E+00  0.00000000000E+00  0.74505805969E-08  0.10566000000E+00  0.10566000000E+00 0. -1.
     999900   -1    0    0    0    0 -0.00000000000E+00 -0.00000000000E+00 -0.74505805969E-08  0.93827000000E+00  0.93827000000E+00 0.  1.
     999902    2    1    2    0    0 -0.16372203125E-02  0.18317639182E-01 -0.15318346711E-01  0.10199953360E+01  0.10197144783E+01 0.  0.
     999903    2    3    3    0    0 -0.11940822840E+00 -0.30078437636E-01 -0.38392368992E-01  0.13053223889E+00  0.20041306662E-01 0.  0.
         14    1    1    2    0    0  0.16372203125E-02 -0.18317639182E-01  0.15318346711E-01  0.23934664015E-01  0.00000000000E+00 0. -1.
     999901    1    3    3    0    0  0.11777100808E+00  0.48396076818E-01  0.23074022281E-01  0.88946309710E+00  0.88000000000E+00 0. -1.
        -11    1    4    4    0    0 -0.97261838720E-01 -0.20855993954E-01 -0.23238817618E-01  0.10215254045E+00  0.51100000000E-03 0. -1.
         11    1    4    4    0    0 -0.22146389676E-01 -0.92224436821E-02 -0.15153551374E-01  0.28379698437E-01  0.51100000000E-03 0.  1.
</event>
<event>
 8    1  0.1109294E+005  0.1043930E+01  0.7957747E-01            NaN
         13   -1    0    0    0    0  0.00000000000E+00  0.00000000000E+00  0.74505805969E-08  0.10566000000E+00  0.10566000000E+00 0. -1.
     999900   -1    0    0    0    0 -0.00000000000E+00 -0.00000000000E+00 -0.74505805969E-08  0.93827000000E+00  0.93827000000E+00 0.  1.
     999902    2    1    2    0    0  0.26550448561E-01 -0.17504372560E-02 -0.18399696292E-01  0.10115797423E+01  0.10110623304E+01 0.  0.
     999903    2    3    3    0    0 -0.61624978658E-01  0.81521556755E-01  0.59278177718E-01  0.11987183998E+00  0.20296636589E-01 0.  0.
         14    1    1    2    0    0 -0.26550448561E-01  0.17504372560E-02  0.18399696292E-01  0.32350257696E-01  0.00000000000E+00 0. -1.
     999901    1    3    3    0    0  0.88175427219E-01 -0.83271994011E-01 -0.77677874010E-01  0.89170790232E+00  0.88000000000E+00 0.  1.
        -11    1    4    4    0    0 -0.13017128625E-01  0.10399754613E-01  0.17361764312E-01  0.24068496311E-01  0.51100000000E-03 0.  1.
         11    1    4    4    0    0 -0.48607850033E-01  0.71121802142E-01  0.41916413406E-01  0.95803343671E-01  0.51100000000E-03 0. -1.
</event>
<event>
 8    1  0.1109294E+005  0.1043930E+01  0.7957747E-01            NaN
         13   -1    0    0    0    0  0.00000000000E+00  0.00000000000E+00  0.74505805969E-08  0.10566000000E+00  0.10566000000E+00 0.  1.
     999900   -1    0    0    0    0 -0.00000000000E+00 -0.00000000000E+00 -0.74505805969E-08  0.93827000000E+00  0.93827000000E+00 0. -1.
     999902    2    1    2    0    0 -0.24335572342E-01  0.52691175679E-03  0.61799663798E-02  0.10188164638E+01  0.10185068960E+01 0.  0.
     999903    2    3    3    0    0 -0.68736261243E-01  0.79990956775E-01  0.75744464258E-01  0.13139031192E+00  0.20073948944E-01 0.  0.
         14    1    1    2    0    0  0.24335572342E-01 -0.52691175679E-03 -0.61799663798E-02  0.25113536224E-01  0.00000000000E+00 0.  1.
     999901    1    3    3    0    0  0.44400688901E-01 -0.79464045019E-01 -0.69564497878E-01  0.88742615185E+00  0.88000000000E+00 0.  1.
        -11    1    4    4    0    0 -0.12235967095E-01  0.23243275026E-01  0.26839509886E-01  0.37557810594E-01  0.51100000000E-03 0.  1.
         11    1    4    4    0    0 -0.56500294148E-01  0.56747681749E-01  0.48904954372E-01  0.93832501330E-01  0.51100000000E-03 0. -1.
</event>
<event>
 8    1  0.1109294E+005  0.1043930E+01  0.7957747E-01            NaN
         13   -1    0    0    0    0  0.00000000000E+00  0.00000000000E+00  0.74505805969E-08  0.10566000000E+00  0.10566000000E+00 0. -1.
     999900   -1    0    0    0    0 -0.00000000000E+00 -0.00000000000E+00 -0.74505805969E-08  0.93827000000E+00  0.93827000000E+00 0. -1.
     999902    2    1    2    0    0 -0.20083892648E-01  0.34003516654E-02  0.13622781731E-01  0.10194247900E+01  0.10191302160E+01 0.  0.
     999903    2    3    3    0    0  0.21564685016E-02 -0.12742295571E+00  0.88374869237E-03  0.12938453563E+00  0.22323016156E-01 0.  0.
         14    1    1    2    0    0  0.20083892648E-01 -0.34003516654E-02 -0.13622781731E-01  0.24505210006E-01  0.00000000000E+00 0. -1.
     999901    1    3    3    0    0 -0.22240361149E-01  0.13082330738E+00  0.12739033039E-01  0.89004025436E+00  0.88000000000E+00 0.  1.
        -11    1    4    4    0    0 -0.62826337593E-02 -0.41536058816E-01  0.80852645608E-02  0.42782569966E-01  0.51100000000E-03 0. -1.
         11    1    4    4    0    0  0.84391022609E-02 -0.85886896898E-01 -0.72015158684E-02  0.86601965668E-01  0.51100000000E-03 0.  1.
</event>
<event>
 8    1  0.1109294E+005  0.1043930E+01  0.7957747E-01            NaN
         13   -1    0    0    0    0  0.00000000000E+00  0.00000000000E+00  0.74505805969E-08  0.10566000000E+00  0.10566000000E+00 0. -1.
     999900   -1    0    0    0    0 -0.00000000000E+00 -0.00000000000E+00 -0.74505805969E-08  0.93827000000E+00  0.93827000000E+00 0. -1.
     999902    2    1    2    0    0  0.84789561431E-02  0.17578936506E-01 -0.12985168650E-01  0.10204880225E+01  0.10202187401E+01 0.  0.
     999903    2    3    3    0    0 -0.57605475764E-01  0.86381819505E-01  0.77212825635E-01  0.13074835997E+00  0.18791051384E-01 0.  0.
         14    1    1    2    0    0 -0.84789561431E-02 -0.17578936506E-01  0.12985168650E-01  0.23441977536E-01  0.00000000000E+00 0. -1.
     999901    1    3    3    0    0  0.66084431907E-01 -0.68802883000E-01 -0.90197994285E-01  0.88973966250E+00  0.88000000000E+00 0. -1.
        -11    1    4    4    0    0 -0.51273713964E-01  0.67059269677E-01  0.68096418007E-01  0.10845885238E+00  0.51100000000E-03 0. -1.
         11    1    4    4    0    0 -0.63317617999E-02  0.19322549828E-01  0.91164076281E-02  0.22289507585E-01  0.51100000000E-03 0.  1.
</event>
<event>
 8    1  0.1109294E+005  0.1043930E+01  0.7957747E-01            NaN
         13   -1    0    0    0    0  0.00000000000E+00  0.00000000000E+00  0.74505805969E-08  0.10566000000E+00  0.10566000000E+00 0.  1.
     999900   -1    0    0    0    0 -0.00000000000E+00 -0.00000000000E+00 -0.74505805969E-08  0.93827000000E+00  0.93827000000E+00 0.  1.
     999902    2    1    2    0    0 -0.95067112868E-02 -0.10557489935E-01 -0.18681120595E-01  0.10204603937E+01  0.10201904688E+01 0.  0.
     999903    2    3    3    0    0 -0.48310491655E-01 -0.11394703737E+00  0.39778361391E-01  0.13163383980E+00  0.20671691133E-01 0.  0.
         14    1    1    2    0    0  0.95067112868E-02  0.10557489935E-01  0.18681120595E-01  0.23469606300E-01  0.00000000000E+00 0.  1.
     999901    1    3    3    0    0  0.38803780368E-01  0.10338954744E+00 -0.58459481985E-01  0.88882655390E+00  0.88000000000E+00 0.  1.
        -11    1    4    4    0    0 -0.42350514758E-01 -0.77526015077E-01  0.24394701475E-01  0.91647213242E-01  0.51100000000E-03 0. -1.
         11    1    4    4    0    0 -0.59599768964E-02 -0.36421022297E-01  0.15383659915E-01  0.39986626554E-01  0.51100000000E-03 0.  1.
</event>
<event>
 8    1  0.1109294E+005  0.1043930E+01  0.7957747E-01            NaN
         13   -1    0    0    0    0  0.00000000000E+00  0.00000000000E+00  0.74505805969E-08  0.10566000000E+00  0.10566000000E+00 0. -1.
     999900   -1    0    0    0    0 -0.00000000000E+00 -0.00000000000E+00 -0.74505805969E-08  0.93827000000E+00  0.93827000000E+00 0. -1.
     999902    2    1    2    0    0 -0.19997584247E-01  0.67640937172E-02  0.12379901792E-01  0.10194571925E+01  0.10191634064E+01 0.  0.
     999903    2    3    3    0    0 -0.17870018447E-01 -0.41163385501E-01  0.12173255715E+00  0.13139211996E+00  0.20768048833E-01 0.  0.
         14    1    1    2    0    0  0.19997584247E-01 -0.67640937172E-02 -0.12379901792E-01  0.24472807520E-01  0.00000000000E+00 0. -1.
     999901    1    3    3    0    0 -0.21275658007E-02  0.47927479218E-01 -0.10935265536E+00  0.88806507252E+00  0.88000000000E+00 0. -1.
        -11    1    4    4    0    0  0.13398024452E-02 -0.96449108297E-02  0.11157241414E-01  0.14817710095E-01  0.51100000000E-03 0. -1.
         11    1    4    4    0    0 -0.19209820892E-01 -0.31518474671E-01  0.11057531573E+00  0.11657440986E+00  0.51100000000E-03 0.  1.
</event>
<event>
 8    1  0.1109294E+005  0.1043930E+01  0.7957747E-01            NaN
         13   -1    0    0    0    0  0.00000000000E+00  0.00000000000E+00  0.74505805969E-08  0.10566000000E+00  0.10566000000E+00 0. -1.
     999900   -1    0    0    0    0 -0.00000000000E+00 -0.00000000000E+00 -0.74505805969E-08  0.93827000000E+00  0.93827000000E+00 0.  1.
     999902    2    1    2    0    0 -0.19771746883E-01  0.12446772966E-01 -0.26363359967E-02  0.10204184199E+01  0.10201475174E+01 0.  0.
     999903    2    3    3    0    0  0.52858012693E-01  0.11436641667E+00 -0.30630238812E-01  0.13112299409E+00  0.19528985666E-01 0.  0.
         14    1    1    2    0    0  0.19771746883E-01 -0.12446772966E-01  0.26363359967E-02  0.23511580116E-01  0.00000000000E+00 0.  1.
     999901    1    3    3    0    0 -0.72629759576E-01 -0.10191964370E+00  0.27993902815E-01  0.88929542580E+00  0.88000000000E+00 0. -1.
        -11    1    4    4    0    0  0.17094900017E-01  0.59956693027E-01 -0.16500272902E-01  0.64494656927E-01  0.51100000000E-03 0.  1.
         11    1    4    4    0    0  0.35763112676E-01  0.54409723642E-01 -0.14129965910E-01  0.66628337160E-01  0.51100000000E-03 0. -1.
</event>
<event>
 8    1  0.1109294E+005  0.1043930E+01  0.7957747E-01            NaN
         13   -1    0    0    0    0  0.00000000000E+00  0.00000000000E+00  0.74505805969E-08  0.10566000000E+00  0.10566000000E+00 0.  1.
     999900   -1    0    0    0    0 -0.00000000000E+00 -0.00000000000E+00 -0.74505805969E-08  0.93827000000E+00  0.93827000000E+00 0.  1.
     999902    2    1    2    0    0 -0.13232461692E-01  0.11308263274E-01 -0.11946955496E-01  0.10228182827E+01  0.10226003789E+01 0.  0.
     999903    2    3    3    0    0 -0.35677602048E-01  0.10266767103E+00 -0.78130146071E-01  0.13533276711E+00  0.19927271895E-01 0.  0.
         14    1    1    2    0    0  0.13232461692E-01 -0.11308263274E-01  0.11946955496E-01  0.21111717276E-01  0.00000000000E+00 0. -1.
     999901    1    3    3    0    0  0.22445140356E-01 -0.91359407758E-01  0.66183190575E-01  0.88748551561E+00  0.88000000000E+00 0. -1.
        -11    1    4    4    0    0  0.22029987697E-02  0.10078077128E-01 -0.93250669135E-02  0.13915417209E-01  0.51100000000E-03 0.  1.
         11    1    4    4    0    0 -0.37880600818E-01  0.92589593905E-01 -0.68805079158E-01  0.12141734990E+00  0.51100000000E-03 0. -1.
</event>
<event>
 8    1  0.1109294E+005  0.1043930E+01  0.7957747E-01            NaN
         13   -1    0    0    0    0  0.00000000000E+00  0.00000000000E+00  0.74505805969E-08  0.10566000000E+00  0.10566000000E+00 0. -1.
     999900   -1    0    0    0    0 -0.00000000000E+00 -0.00000000000E+00 -0.74505805969E-08  0.93827000000E+00  0.93827000000E+00 0.  1.
     999902    2    1    2    0    0  0.86279427810E-02  0.30086668802E-01  0.33741039980E-02  0.10124493136E+01  0.10119597715E+01 0.  0.
     999903    2    3    3    0    0  0.50750825983E-01  0.11449003651E+00  0.10689378395E-01  0.12737768997E+00  0.20668775852E-01 0.  0.
         14    1    1    2    0    0 -0.86279427810E-02 -0.30086668802E-01 -0.33741039980E-02  0.31480686365E-01  0.00000000000E+00 0.  1.
     999901    1    3    3    0    0 -0.42122883202E-01 -0.84403367705E-01 -0.73152743967E-02  0.88507162366E+00  0.88000000000E+00 0. -1.
        -11    1    4    4    0    0  0.38868796608E-01  0.10226430244E+00  0.54655542067E-02  0.10953951025E+00  0.51100000000E-03 0.  1.
         11    1    4    4    0    0  0.11882029375E-01  0.12225734072E-01  0.52238241881E-02  0.17838179722E-01  0.51100000000E-03 0. -1.
</event>
<event>
 8    1  0.1109294E+005  0.1043930E+01  0.7957747E-01            NaN
         13   -1    0    0    0    0  0.00000000000E+00  0.00000000000E+00  0.74505805969E-08  0.10566000000E+00  0.10566000000E+00 0.  1.
     999900   -1    0    0    0    0 -0.00000000000E+00 -0.00000000000E+00 -0.74505805969E-08  0.93827000000E+00  0.93827000000E+00 0.  1.
     999902    2    1    2    0    0 -0.14464185066E-01 -0.14479004863E-02  0.18509692547E-01  0.10203945420E+01  0.10201230825E+01 0.  0.
     999903    2    3    3    0    0 -0.93864621352E-01 -0.90102581442E-01 -0.12111919665E-01  0.13185542362E+00  0.17609991962E-01 0.  0.
         14    1    1    2    0    0  0.14464185066E-01  0.14479004863E-02 -0.18509692547E-01  0.23535458008E-01  0.00000000000E+00 0. -1.
     999901    1    3    3    0    0  0.79400436286E-01  0.88654680956E-01  0.30621612212E-01  0.88853911837E+00  0.88000000000E+00 0. -1.
        -11    1    4    4    0    0 -0.28167594408E-01 -0.22551148418E-01 -0.10603297338E-01  0.37611948967E-01  0.51100000000E-03 0. -1.
         11    1    4    4    0    0 -0.65697026944E-01 -0.67551433024E-01 -0.15086223266E-02  0.94243474656E-01  0.51100000000E-03 0.  1.
</event>
<event>
 8    1  0.1109294E+005  0.1043930E+01  0.7957747E-01            NaN
         13   -1    0    0    0    0  0.00000000000E+00  0.00000000000E+00  0.74505805969E-08  0.10566000000E+00  0.10566000000E+00 0. -1.
     999900   -1    0    0    0    0 -0.00000000000E+00 -0.00000000000E+00 -0.74505805969E-08  0.93827000000E+00  0.93827000000E+00 0. -1.
     999902    2    1    2    0    0 -0.12021961358E-01 -0.50661531603E-02  0.19273653109E-01  0.10206562558E+01  0.10203908689E+01 0.  0.
     999903    2    3    3    0    0 -0.59824662388E-01 -0.34170380449E-01  0.11296217874E+00  0.13391520339E+00  0.20645162764E-01 0.  0.
         14    1    1    2    0    0  0.12021961358E-01  0.50661531603E-02 -0.19273653109E-01  0.23273744153E-01  0.00000000000E+00 0.  1.
     999901    1    3    3    0    0  0.47802701030E-01  0.29104227289E-01 -0.93688525626E-01  0.88674105245E+00  0.88000000000E+00 0. -1.
        -11    1    4    4    0    0 -0.56104778058E-01 -0.28450043973E-01  0.88951318964E-01  0.10894837947E+00  0.51100000000E-03 0.  1.
         11    1    4    4    0    0 -0.37198843302E-02 -0.57203364756E-02  0.24010859772E-01  0.24966823923E-01  0.51100000000E-03 0. -1.
</event>
<event>
 7    1  0.1109294E+005  0.1043930E+01  0.7957747E-01            NaN
         13   -1    0    0    0    0  0.00000000000E+00  0.00000000000E+00  0.74505805969E-08  0.10566000000E+00  0.10566000000E+00 0. -1.
     999900   -1    0    0    0    0 -0.00000000000E+00 -0.00000000000E+00 -0.74505805969E-08  0.93827000000E+00  0.93827000000E+00 0.  1.
     999903    2    1    2    0    0 -0.10951994983E+00  0.31998862815E-01 -0.12504757095E-01  0.11662441522E+00  0.20647969453E-01 0.  0.
         14    1    1    2    0    0  0.34034130866E-01  0.24361879810E-01  0.57799139163E-02  0.42251989972E-01  0.00000000000E+00 0.  1.
     999901    1    1    2    0    0  0.75485818964E-01 -0.56360742625E-01  0.67248431791E-02  0.88505359481E+00  0.88000000000E+00 0. -1.
        -11    1    3    3    0    0 -0.26672090809E-01  0.81288564977E-03 -0.84965858253E-02  0.28009182475E-01  0.51100000000E-03 0. -1.
         11    1    3    3    0    0 -0.82847859020E-01  0.31185977165E-01 -0.40081712702E-02  0.88615232742E-01  0.51100000000E-03 0.  1.
</event>
<event>
 7    1  0.1109294E+005  0.1043930E+01  0.7957747E-01            NaN
         13   -1    0    0    0    0  0.00000000000E+00  0.00000000000E+00  0.74505805969E-08  0.10566000000E+00  0.10566000000E+00 0. -1.
     999900   -1    0    0    0    0 -0.00000000000E+00 -0.00000000000E+00 -0.74505805969E-08  0.93827000000E+00  0.93827000000E+00 0. -1.
     999903    2    1    2    0    0  0.39830622887E-02  0.82166527393E-01 -0.70665743634E-01  0.11029369048E+00  0.20095965437E-01 0.  0.
         14    1    1    2    0    0 -0.34183587502E-01 -0.34186959773E-01 -0.48312742520E-02  0.48586079116E-01  0.00000000000E+00 0.  1.
     999901    1    1    2    0    0  0.30200525213E-01 -0.47979567620E-01  0.75497017886E-01  0.88505023041E+00  0.88000000000E+00 0.  1.
        -11    1    3    3    0    0  0.86412652162E-02  0.17180973546E-01 -0.12413437239E-01  0.22895673425E-01  0.51100000000E-03 0. -1.
         11    1    3    3    0    0 -0.46582029274E-02  0.64985553847E-01 -0.58252306396E-01  0.87398017052E-01  0.51100000000E-03 0.  1.
</event>
<event>
 8    1  0.1109294E+005  0.1043930E+01  0.7957747E-01            NaN
         13   -1    0    0    0    0  0.00000000000E+00  0.00000000000E+00  0.74505805969E-08  0.10566000000E+00  0.10566000000E+00 0. -1.
     999900   -1    0    0    0    0 -0.00000000000E+00 -0.00000000000E+00 -0.74505805969E-08  0.93827000000E+00  0.93827000000E+00 0.  1.
     999902    2    1    2    0    0  0.48674483852E-02 -0.19755330349E-01  0.12178094373E-01  0.10202177434E+01  0.10199421419E+01 0.  0.
     999903    2    3    3    0    0  0.50187813147E-01  0.11627027777E+00 -0.84596036279E-02  0.12837537161E+00  0.19263360558E-01 0.  0.
         14    1    1    2    0    0 -0.48674483852E-02  0.19755330349E-01 -0.12178094373E-01  0.23712256610E-01  0.00000000000E+00 0.  1.
     999901    1    3    3    0    0 -0.45320364762E-01 -0.13602560812E+00  0.20637698001E-01  0.89184237178E+00  0.88000000000E+00 0.  1.
        -11    1    4    4    0    0  0.17420478212E-01  0.62875915844E-01 -0.72530960362E-03  0.65250601908E-01  0.51100000000E-03 0. -1.
         11    1    4    4    0    0  0.32767334936E-01  0.53394361929E-01 -0.77342940243E-02  0.63124769700E-01  0.51100000000E-03 0.  1.
</event>
<event>
 8    1  0.1109294E+005  0.1043930E+01  0.7957747E-01            NaN
         13   -1    0    0    0    0  0.00000000000E+00  0.00000000000E+00  0.74505805969E-08  0.10566000000E+00  0.10566000000E+00 0. -1.
     999900   -1    0    0    0    0 -0.00000000000E+00 -0.00000000000E+00 -0.74505805969E-08  0.93827000000E+00  0.93827000000E+00 0. -1.
     999902    2    1    2    0    0  0.35008013135E-02 -0.22154774485E-01  0.72665399209E-02  0.10203526328E+01  0.10200801944E+01 0.  0.
     999903    2    3    3    0    0  0.15461995879E-01  0.17384416811E-01  0.12610234110E+00  0.13140473473E+00  0.28707361676E-01 0.  0.
         14    1    1    2    0    0 -0.35008013135E-02  0.22154774485E-01 -0.72665399209E-02  0.23577367214E-01  0.00000000000E+00 0. -1.
     999901    1    3    3    0    0 -0.11961194565E-01 -0.39539191297E-01 -0.11883580117E+00  0.88894789806E+00  0.88000000000E+00 0. -1.
        -11    1    4    4    0    0  0.54321926114E-02  0.14999031971E-01  0.24252486812E-01  0.29033151985E-01  0.51100000000E-03 0. -1.
         11    1    4    4    0    0  0.10029803267E-01  0.23853848405E-02  0.10184985428E+00  0.10237158274E+00  0.51100000000E-03 0.  1.
</event>
<event>
 8    1  0.1109294E+005  0.1043930E+01  0.7957747E-01            NaN
         13   -1    0    0    0    0  0.00000000000E+00  0.00000000000E+00  0.74505805969E-08  0.10566000000E+00  0.10566000000E+00 0. -1.
     999900   -1    0    0    0    0 -0.00000000000E+00 -0.00000000000E+00 -0.74505805969E-08  0.93827000000E+00  0.93827000000E+00 0.  1.
     999902    2    1    2    0    0 -0.15556131141E-02 -0.17719580500E-01 -0.13659982512E-01  0.10215023700E+01  0.10212561350E+01 0.  0.
     999903    2    3    3    0    0 -0.76992528827E-01  0.37029106287E-01  0.95972790424E-01  0.12981436859E+00  0.18492960356E-01 0.  0.
         14    1    1    2    0    0  0.15556131141E-02  0.17719580500E-01  0.13659982512E-01  0.22427630002E-01  0.00000000000E+00 0. -1.
     999901    1    3    3    0    0  0.75436915713E-01 -0.54748686787E-01 -0.10963277294E+00  0.89168800141E+00  0.88000000000E+00 0.  1.
        -11    1    4    4    0    0 -0.56615822138E-01  0.33383176454E-01  0.80727950756E-01  0.10410115725E+00  0.51100000000E-03 0.  1.
         11    1    4    4    0    0 -0.20376706689E-01  0.36459298324E-02  0.15244839667E-01  0.25713211338E-01  0.51100000000E-03 0. -1.
</event>
<event>
 8    1  0.1109294E+005  0.1043930E+01  0.7957747E-01            NaN
         13   -1    0    0    0    0  0.00000000000E+00  0.00000000000E+00  0.74505805969E-08  0.10566000000E+00  0.10566000000E+00 0.  1.
     999900   -1    0    0    0    0 -0.00000000000E+00 -0.00000000000E+00 -0.74505805969E-08  0.93827000000E+00  0.93827000000E+00 0.  1.
     999902    2    1    2    0    0  0.16518699446E-01 -0.85242959356E-02 -0.14506561602E-01  0.10203509546E+01  0.10200784770E+01 0.  0.
     999903    2    3    3    0    0 -0.92256137069E-01 -0.86702826082E-01  0.19264606874E-01  0.12957357531E+00  0.19738578028E-01 0.  0.
         14    1    1    2    0    0 -0.16518699446E-01  0.85242959356E-02  0.14506561602E-01  0.23579045402E-01  0.00000000000E+00 0.  1.
     999901    1    3    3    0    0  0.10877483651E+00  0.78178530146E-01 -0.33771168476E-01  0.89077737929E+00  0.88000000000E+00 0.  1.
        -11    1    4    4    0    0 -0.80617809799E-01 -0.78830880553E-01  0.22886447175E-01  0.11505472424E+00  0.51100000000E-03 0. -1.
         11    1    4    4    0    0 -0.11638327270E-01 -0.78719455290E-02 -0.36218403009E-02  0.14518851064E-01  0.51100000000E-03 0.  1.
</event>
<event>
 8    1  0.1109294E+005  0.1043930E+01  0.7957747E-01            NaN
         13   -1    0    0    0    0  0.00000000000E+00  0.00000000000E+00  0.74505805969E-08  0.10566000000E+00  0.10566000000E+00 0. -1.
     999900   -1    0    0    0    0 -0.00000000000E+00 -0.00000000000E+00 -0.74505805969E-08  0.93827000000E+00  0.93827000000E+00 0.  1.
     999902    2    1    2    0    0 -0.20655807090E-01 -0.68108162642E-02 -0.96260989987E-02  0.10201453123E+01  0.10198680047E+01 0.  0.
     999903    2    3    3    0    0 -0.43538884344E-01  0.59123027443E-02  0.12086253357E+00  0.13013812349E+00  0.19939643707E-01 0.  0.
         14    1    1    2    0    0  0.20655807090E-01  0.68108162642E-02  0.96260989987E-02  0.23784687651E-01  0.00000000000E+00 0. -1.
     999901    1    3    3    0    0  0.22883077254E-01 -0.12723119008E-01 -0.13048863257E+00  0.89000718885E+00  0.88000000000E+00 0.  1.
        -11    1    4    4    0    0 -0.19276589904E-01  0.61863137513E-02  0.30787514091E-01  0.36850909636E-01  0.51100000000E-03 0. -1.
         11    1    4    4    0    0 -0.24262294440E-01 -0.27401100705E-03  0.90075019483E-01  0.93287213858E-01  0.51100000000E-03 0.  1.
</event>
<event>
 8    1  0.1109294E+005  0.1043930E+01  0.7957747E-01            NaN
         13   -1    0    0    0    0  0.00000000000E+00  0.00000000000E+00  0.74505805969E-08  0.10566000000E+00  0.10566000000E+00 0. -1.
     999900   -1    0    0    0    0 -0.00000000000E+00 -0.00000000000E+00 -0.74505805969E-08  0.93827000000E+00  0.93827000000E+00 0.  1.
     999902    2    1    2    0    0 -0.22354977657E-01  0.26485377022E-02 -0.49100361298E-02  0.10208894220E+01  0.10206293861E+01 0.  0.
     999903    2    3    3    0    0  0.55049044038E-01 -0.90975041625E-01  0.70726794784E-01  0.12933028919E+00  0.20425198961E-01 0.  0.
         14    1    1    2    0    0  0.22354977657E-01 -0.26485377022E-02  0.49100361298E-02  0.23040577962E-01  0.00000000000E+00 0. -1.
     999901    1    3    3    0    0 -0.77404021695E-01  0.93623579327E-01 -0.75636830913E-01  0.89155913285E+00  0.88000000000E+00 0.  1.
        -11    1    4    4    0    0  0.35114935462E-01 -0.44767319029E-01  0.46466242215E-01  0.73461175679E-01  0.51100000000E-03 0. -1.
         11    1    4    4    0    0  0.19934108576E-01 -0.46207722596E-01  0.24260552569E-01  0.55869113508E-01  0.51100000000E-03 0.  1.
</event>
<event>
 7    1  0.1109294E+005  0.1043930E+01  0.7957747E-01            NaN
         13   -1    0    0    0    0  0.00000000000E+00  0.00000000000E+00  0.74505805969E-08  0.10566000000E+00  0.10566000000E+00 0. -1.
     999900   -1    0    0    0    0 -0.00000000000E+00 -0.00000000000E+00 -0.74505805969E-08  0.93827000000E+00  0.93827000000E+00 0. -1.
     999903    2    1    2    0    0 -0.63183925405E-01  0.48972716199E-01  0.17627413532E-01  0.84134053550E-01  0.19423642742E-01 0.  0.
         14    1    1    2    0    0  0.68978436814E-01 -0.31830601003E-01  0.20822591048E-01  0.78770503385E-01  0.00000000000E+00 0. -1.
     999901    1    1    2    0    0 -0.57945114091E-02 -0.17142115196E-01 -0.38450004580E-01  0.88102544307E+00  0.88000000000E+00 0. -1.
        -11    1    3    3    0    0 -0.23744325603E-01  0.17237949317E-01 -0.29356481235E-02  0.29492694789E-01  0.51100000000E-03 0.  1.
         11    1    3    3    0    0 -0.39439599802E-01  0.31734766882E-01  0.20563061655E-01  0.54641358761E-01  0.51100000000E-03 0. -1.
</event>
<event>
 8    1  0.1109294E+005  0.1043930E+01  0.7957747E-01            NaN
         13   -1    0    0    0    0  0.00000000000E+00  0.00000000000E+00  0.74505805969E-08  0.10566000000E+00  0.10566000000E+00 0.  1.
     999900   -1    0    0    0    0 -0.00000000000E+00 -0.00000000000E+00 -0.74505805969E-08  0.93827000000E+00  0.93827000000E+00 0. -1.
     999902    2    1    2    0    0 -0.15401140026E-01 -0.14935747935E-01 -0.10305895809E-01  0.10201290931E+01  0.10198514026E+01 0.  0.
     999903    2    3    3    0    0 -0.11755966521E+00  0.32827388976E-01  0.44161043159E-01  0.13126221390E+00  0.19536087446E-01 0.  0.
         14    1    1    2    0    0  0.15401140026E-01  0.14935747935E-01  0.10305895809E-01  0.23800906892E-01  0.00000000000E+00 0.  1.
     999901    1    3    3    0    0  0.10215852519E+00 -0.47763136910E-01 -0.54466938968E-01  0.88886687921E+00  0.88000000000E+00 0. -1.
        -11    1    4    4    0    0 -0.52508940181E-01  0.11204631078E-01  0.98000348992E-02  0.54580530975E-01  0.51100000000E-03 0.  1.
         11    1    4    4    0    0 -0.65050725031E-01  0.21622757898E-01  0.34361008260E-01  0.76681682923E-01  0.51100000000E-03 0. -1.
</event>
<event>
 8    1  0.1109294E+005  0.1043930E+01  0.7957747E-01            NaN
         13   -1    0    0    0    0  0.00000000000E+00  0.00000000000E+00  0.74505805969E-08  0.10566000000E+00  0.10566000000E+00 0. -1.
     999900   -1    0    0    0    0 -0.00000000000E+00 -0.00000000000E+00 -0.74505805969E-08  0.93827000000E+00  0.93827000000E+00 0. -1.
     999902    2    1    2    0    0  0.22629477069E-01 -0.76829790146E-02  0.45694865277E-03  0.10200274855E+01  0.10197473907E+01 0.  0.
     999903    2    3    3    0    0 -0.12125231851E+00 -0.22570650944E-01 -0.27080855622E-01  0.12779324238E+00  0.19651489209E-01 0.  0.
         14    1    1    2    0    0 -0.22629477069E-01  0.76829790146E-02 -0.45694865277E-03  0.23902514533E-01  0.00000000000E+00 0.  1.
     999901    1    3    3    0    0  0.14388179558E+00  0.14887671930E-01  0.27537804274E-01  0.89223424309E+00  0.88000000000E+00 0. -1.
        -11    1    4    4    0    0 -0.74355909916E-01 -0.89069103736E-02 -0.78669961921E-02  0.75301295752E-01  0.51100000000E-03 0. -1.
         11    1    4    4    0    0 -0.46896408595E-01 -0.13663740571E-01 -0.19213859429E-01  0.52491946627E-01  0.51100000000E-03 0.  1.
</event>
<event>
 8    1  0.1109294E+005  0.1043930E+01  0.7957747E-01            NaN
         13   -1    0    0    0    0  0.00000000000E+00  0.00000000000E+00  0.74505805969E-08  0.10566000000E+00  0.10566000000E+00 0. -1.
     999900   -1    0    0    0    0 -0.00000000000E+00 -0.00000000000E+00 -0.74505805969E-08  0.93827000000E+00  0.93827000000E+00 0. -1.
     999902    2    1    2    0    0  0.22895761959E-01 -0.46429880327E-02  0.54149680501E-02  0.10199488588E+01  0.10196668963E+01 0.  0.
     999903    2    3    3    0    0 -0.13373402962E-01 -0.37447244324E-01  0.12319672318E+00  0.13075590259E+00  0.18399169751E-01 0.  0.
         14    1    1    2    0    0 -0.22895761959E-01  0.46429880327E-02 -0.54149680501E-02  0.23981141185E-01  0.00000000000E+00 0.  1.
     999901    1    3    3    0    0  0.36269164921E-01  0.32804256292E-01 -0.11778175513E+00  0.88919295622E+00  0.88000000000E+00 0. -1.
        -11    1    4    4    0    0  0.42098169239E-02 -0.95247875959E-02  0.37565392020E-01  0.38985432355E-01  0.51100000000E-03 0.  1.
         11    1    4    4    0    0 -0.17583219886E-01 -0.27922456729E-01  0.85631331155E-01  0.91770470238E-01  0.51100000000E-03 0. -1.
</event>
<event>
 8    1  0.1109294E+005  0.1043930E+01  0.7957747E-01            NaN
         13   -1    0    0    0    0  0.00000000000E+00  0.00000000000E+00  0.74505805969E-08  0.10566000000E+00  0.10566000000E+00 0. -1.
     999900   -1    0    0    0    0 -0.00000000000E+00 -0.00000000000E+00 -0.74505805969E-08  0.93827000000E+00  0.93827000000E+00 0.  1.
     999902    2    1    2    0    0  0.23515884695E-01  0.49564484275E-02 -0.23341138538E-02  0.10197843730E+01  0.10194984827E+01 0.  0.
     999903    2    3    3    0    0 -0.69944445440E-01 -0.40203759707E-01  0.97281179083E-01  0.12810198323E+00  0.20926599353E-01 0.  0.
         14    1    1    2    0    0 -0.23515884695E-01 -0.49564484275E-02  0.23341138538E-02  0.24145626964E-01  0.00000000000E+00 0.  1.
     999901    1    3    3    0    0  0.93460330135E-01  0.45160208135E-01 -0.99615292937E-01  0.89168238981E+00  0.88000000000E+00 0.  1.
        -11    1    4    4    0    0 -0.42395974097E-02  0.25124016539E-02  0.64651720538E-02  0.81453004212E-02  0.51100000000E-03 0. -1.
         11    1    4    4    0    0 -0.65704848030E-01 -0.42716161361E-01  0.90816007029E-01  0.11995668281E+00  0.51100000000E-03 0.  1.
</event>
<event>
 8    1  0.1109294E+005  0.1043930E+01  0.7957747E-01            NaN
         13   -1    0    0    0    0  0.00000000000E+00  0.00000000000E+00  0.74505805969E-08  0.10566000000E+00  0.10566000000E+00 0.  1.
     999900   -1    0    0    0    0 -0.00000000000E+00 -0.00000000000E+00 -0.74505805969E-08  0.93827000000E+00  0.93827000000E+00 0.  1.
     999902    2    1    2    0    0  0.52513832051E-02 -0.13668083731E-01 -0.18939656367E-01  0.10199904068E+01  0.10197094321E+01 0.  0.
     999903    2    3    3    0    0 -0.10940898646E+00 -0.59294994960E-01  0.31609564752E-01  0.12994319506E+00  0.19996164946E-01 0.  0.
         14    1    1    2    0    0 -0.52513832051E-02  0.13668083731E-01  0.18939656367E-01  0.23939593183E-01  0.00000000000E+00 0.  1.
     999901    1    3    3    0    0  0.11466036967E+00  0.45626911228E-01 -0.50549221118E-01  0.89004721176E+00  0.88000000000E+00 0.  1.
        -11    1    4    4    0    0 -0.23985814273E-01 -0.50774054308E-02  0.24350768960E-02  0.24643255725E-01  0.51100000000E-03 0. -1.
         11    1    4    4    0    0 -0.85423172190E-01 -0.54217589529E-01  0.29174487856E-01  0.10529993934E+00  0.51100000000E-03 0.  1.
</event>
<event>
 8    1  0.1109294E+005  0.1043930E+01  0.7957747E-01            NaN
         13   -1    0    0    0    0  0.00000000000E+00  0.00000000000E+00  0.74505805969E-08  0.10566000000E+00  0.10566000000E+00 0. -1.
     999900   -1    0    0    0    0 -0.00000000000E+00 -0.00000000000E+00 -0.74505805969E-08  0.93827000000E+00  0.93827000000E+00 0.  1.
     999902    2    1    2    0    0  0.74916529130E-02 -0.14702290038E-01  0.17707481835E-01  0.10197259278E+01  0.10194386351E+01 0.  0.
     999903    2    3    3    0    0 -0.17458198249E-01 -0.57669234794E-01  0.11645339336E+00  0.13281025629E+00  0.21133906971E-01 0.  0.
         14    1    1    2    0    0 -0.74916529130E-02  0.14702290038E-01 -0.17707481835E-01  0.24204072151E-01  0.00000000000E+00 0.  1.
     999901    1    3    3    0    0  0.24949851162E-01  0.42966944755E-01 -0.98745911522E-01  0.88691567156E+00  0.88000000000E+00 0.  1.
        -11    1    4    4    0    0 -0.11296214119E-01 -0.38863876372E-01  0.55281412380E-01  0.68514969283E-01  0.51100000000E-03 0. -1.
         11    1    4    4    0    0 -0.61619841296E-02 -0.18805358422E-01  0.61171980976E-01  0.64295287007E-01  0.51100000000E-03 0.  1.
</event>
<event>
 8    1  0.1109294E+005  0.1043930E+01  0.7957747E-01            NaN
         13   -1    0    0    0    0  0.00000000000E+00  0.00000000000E+00  0.74505805969E-08  0.10566000000E+00  0.10566000000E+00 0. -1.
     999900   -1    0    0    0    0 -0.00000000000E+00 -0.00000000000E+00 -0.74505805969E-08  0.93827000000E+00  0.93827000000E+00 0.  1.
     999902    2    1    2    0    0  0.36947577650E-02  0.64465244003E-02  0.22773873513E-01  0.10199746618E+01  0.10196933130E+01 0.  0.
     999903    2    3    3    0    0 -0.69865665775E-01  0.96604508154E-01  0.52513288267E-01  0.13181700087E+00  0.20110545078E-01 0.  0.
         14    1    1    2    0    0 -0.36947577650E-02 -0.64465244003E-02 -0.22773873513E-01  0.23955338164E-01  0.00000000000E+00 0.  1.
     999901    1    3    3    0    0  0.73560423540E-01 -0.90157983753E-01 -0.29739414754E-01  0.88815766097E+00  0.88000000000E+00 0.  1.
        -11    1    4    4    0    0 -0.28698733002E-01  0.28256362598E-01  0.25053943764E-01  0.47434170408E-01  0.51100000000E-03 0. -1.
         11    1    4    4    0    0 -0.41166932774E-01  0.68348145555E-01  0.27459344504E-01  0.84382830460E-01  0.51100000000E-03 0.  1.
</event>
<event>
 8    1  0.1109294E+005  0.1043930E+01  0.7957747E-01            NaN
         13   -1    0    0    0    0  0.00000000000E+00  0.00000000000E+00  0.74505805969E-08  0.10566000000E+00  0.10566000000E+00 0.  1.
     999900   -1    0    0    0    0 -0.00000000000E+00 -0.00000000000E+00 -0.74505805969E-08  0.93827000000E+00  0.93827000000E+00 0.  1.
     999902    2    1    2    0    0 -0.79525200232E-02 -0.15868612321E-01  0.17543898076E-01  0.10189731614E+01  0.10186674923E+01 0.  0.
     999903    2    3    3    0    0 -0.12563012695E-01 -0.56327561757E-01  0.11746533404E+00  0.13238279570E+00  0.19911715018E-01 0.  0.
         14    1    1    2    0    0  0.79525200232E-02  0.15868612321E-01 -0.17543898076E-01  0.24956838570E-01  0.00000000000E+00 0. -1.
     999901    1    3    3    0    0  0.46104926719E-02  0.40458949436E-01 -0.99921435967E-01  0.88659036573E+00  0.88000000000E+00 0.  1.
        -11    1    4    4    0    0 -0.12997309278E-02 -0.28359546818E-01  0.38364258487E-01  0.47728719304E-01  0.51100000000E-03 0. -1.
         11    1    4    4    0    0 -0.11263281767E-01 -0.27968014939E-01  0.79101075557E-01  0.84654076400E-01  0.51100000000E-03 0.  1.
</event>
<event>
 8    1  0.1109294E+005  0.1043930E+01  0.7957747E-01            NaN
         13   -1    0    0    0    0  0.00000000000E+00  0.00000000000E+00  0.74505805969E-08  0.10566000000E+00  0.10566000000E+00 0. -1.
     999900   -1    0    0    0    0 -0.00000000000E+00 -0.00000000000E+00 -0.74505805969E-08  0.93827000000E+00  0.93827000000E+00 0. -1.
     999902    2    1    2    0    0  0.84863309753E-02  0.39227453786E-03 -0.22009896206E-01  0.10203374753E+01  0.10200646824E+01 0.  0.
     999903    2    3    3    0    0 -0.67559995132E-01 -0.89241479268E-01 -0.65631242149E-01  0.13145048843E+00  0.21056504869E-01 0.  0.
         14    1    1    2    0    0 -0.84863309753E-02 -0.39227453786E-03  0.22009896206E-01  0.23592524742E-01  0.00000000000E+00 0. -1.
     999901    1    3    3    0    0  0.76046326108E-01  0.89633753806E-01  0.43621345943E-01  0.88888698683E+00  0.88000000000E+00 0.  1.
        -11    1    4    4    0    0 -0.60244868039E-01 -0.65596654639E-01 -0.49396660230E-01  0.10184623895E+00  0.51100000000E-03 0.  1.
         11    1    4    4    0    0 -0.73151270936E-02 -0.23644824630E-01 -0.16234581919E-01  0.29604249480E-01  0.51100000000E-03 0. -1.
</event>
<event>
 8    1  0.1109294E+005  0.1043930E+01  0.7957747E-01            NaN
         13   -1    0    0    0    0  0.00000000000E+00  0.00000000000E+00  0.74505805969E-08  0.10566000000E+00  0.10566000000E+00 0.  1.
     999900   -1    0    0    0    0 -0.00000000000E+00 -0.00000000000E+00 -0.74505805969E-08  0.93827000000E+00  0.93827000000E+00 0.  1.
     999902    2    1    2    0    0 -0.71537249134E-02 -0.17099101106E-01 -0.18151478974E-01  0.10179871546E+01  0.10176565313E+01 0.  0.
     999903    2    3    3    0    0  0.27348372795E-01  0.11486073903E+00  0.38621054362E-01  0.12567167524E+00  0.18996348422E-01 0.  0.
         14    1    1    2    0    0  0.71537249134E-02  0.17099101106E-01  0.18151478974E-01  0.25942845406E-01  0.00000000000E+00 0.  1.
     999901    1    3    3    0    0 -0.34502097709E-01 -0.13195984013E+00 -0.56772533337E-01  0.89231547935E+00  0.88000000000E+00 0.  1.
        -11    1    4    4    0    0  0.25899265571E-01  0.84423980328E-01  0.22212303599E-01  0.91059474871E-01  0.51100000000E-03 0. -1.
         11    1    4    4    0    0  0.14491072241E-02  0.30436758698E-01  0.16408750763E-01  0.34612200369E-01  0.51100000000E-03 0.  1.
</event>
<event>
 8    1  0.1109294E+005  0.1043930E+01  0.7957747E-01            NaN
         13   -1    0    0    0    0  0.00000000000E+00  0.00000000000E+00  0.74505805969E-08  0.10566000000E+00  0.10566000000E+00 0.  1.
     999900   -1    0    0    0    0 -0.00000000000E+00 -0.00000000000E+00 -0.74505805969E-08  0.93827000000E+00  0.93827000000E+00 0. -1.
     999902    2    1    2    0    0  0.12407643718E-01  0.16944577450E-01  0.93221427099E-02  0.10209523876E+01  0.10206937871E+01 0.  0.
     999903    2    3    3    0    0  0.24773252491E-01 -0.99455131615E-01 -0.75982186349E-01  0.12911236319E+00  0.19790716091E-01 0.  0.
         14    1    1    2    0    0 -0.12407643718E-01 -0.16944577450E-01 -0.93221427099E-02  0.22977612415E-01  0.00000000000E+00 0. -1.
     999901    1    3    3    0    0 -0.12365608773E-01  0.11639970907E+00  0.85304329059E-01  0.89184002439E+00  0.88000000000E+00 0.  1.
        -11    1    4    4    0    0  0.32707838591E-02 -0.35071333870E-01 -0.35820033940E-01  0.50239749590E-01  0.51100000000E-03 0.  1.
         11    1    4    4    0    0  0.21502468632E-01 -0.64383797745E-01 -0.40162152409E-01  0.78872613603E-01  0.51100000000E-03 0. -1.
</event>
<event>
 8    1  0.1109294E+005  0.1043930E+01  0.7957747E-01            NaN
         13   -1    0    0    0    0  0.00000000000E+00  0.00000000000E+00  0.74505805969E-08  0.10566000000E+00  0.10566000000E+00 0.  1.
     999900   -1    0    0    0    0 -0.00000000000E+00 -0.00000000000E+00 -0.74505805969E-08  0.93827000000E+00  0.93827000000E+00 0. -1.
     999902    2    1    2    0    0  0.21125115653E-01 -0.11403810012E-01  0.89248494968E-02  0.10183180822E+01  0.10179959461E+01 0.  0.
     999903    2    3    3    0    0 -0.62097668549E-01  0.61657980402E-01 -0.89330583546E-01  0.12595146072E+00  0.15032974258E-01 0.  0.
         14    1    1    2    0    0 -0.21125115653E-01  0.11403810012E-01 -0.89248494968E-02  0.25611917786E-01  0.00000000000E+00 0. -1.
     999901    1    3    3    0    0  0.83222784202E-01 -0.73061790413E-01  0.98255433043E-01  0.89236662149E+00  0.88000000000E+00 0.  1.
        -11    1    4    4    0    0 -0.36318474119E-01  0.29945089334E-01 -0.56398200500E-01  0.73462630488E-01  0.51100000000E-03 0. -1.
         11    1    4    4    0    0 -0.25779194430E-01  0.31712891067E-01 -0.32932383047E-01  0.52488830235E-01  0.51100000000E-03 0.  1.
</event>
<event>
 8    1  0.1109294E+005  0.1043930E+01  0.7957747E-01            NaN
         13   -1    0    0    0    0  0.00000000000E+00  0.00000000000E+00  0.74505805969E-08  0.10566000000E+00  0.10566000000E+00 0.  1.
     999900   -1    0    0    0    0 -0.00000000000E+00 -0.00000000000E+00 -0.74505805969E-08  0.93827000000E+00  0.93827000000E+00 0.  1.
     999902    2    1    2    0    0  0.59727883910E-02  0.20372346039E-01  0.96482356131E-02  0.10206105846E+01  0.10203441430E+01 0.  0.
     999903    2    3    3    0    0 -0.39151758435E-01  0.86508624170E-01  0.92677142919E-01  0.13308366587E+00  0.10276529480E-01 0.  0.
         14    1    1    2    0    0 -0.59727883910E-02 -0.20372346039E-01 -0.96482356131E-02  0.23319415403E-01  0.00000000000E+00 0.  1.
     999901    1    3    3    0    0  0.45124546826E-01 -0.66136278131E-01 -0.83028907305E-01  0.88752691872E+00  0.88000000000E+00 0.  1.
        -11    1    4    4    0    0 -0.16273386158E-01  0.37106181263E-01  0.46637731290E-01  0.61782124323E-01  0.51100000000E-03 0.  1.
         11    1    4    4    0    0 -0.22878372277E-01  0.49402442908E-01  0.46039411629E-01  0.71301541550E-01  0.51100000000E-03 0. -1.
</event>
<event>
 8    1  0.1109294E+005  0.1043930E+01  0.7957747E-01            NaN
         13   -1    0    0    0    0  0.00000000000E+00  0.00000000000E+00  0.74505805969E-08  0.10566000000E+00  0.10566000000E+00 0.  1.
     999900   -1    0    0    0    0 -0.00000000000E+00 -0.00000000000E+00 -0.74505805969E-08  0.93827000000E+00  0.93827000000E+00 0. -1.
     999902    2    1    2    0    0 -0.15215295485E-01 -0.20872572140E-01  0.11090124882E-01  0.10158202089E+01  0.10154312072E+01 0.  0.
     999903    2    3    3    0    0  0.98482196182E-01  0.64529377611E-01 -0.31601515262E-01  0.12338355080E+00  0.19027908462E-01 0.  0.
         14    1    1    2    0    0  0.15215295485E-01  0.20872572140E-01 -0.11090124882E-01  0.28109791076E-01  0.00000000000E+00 0. -1.
     999901    1    3    3    0    0 -0.11369749167E+00 -0.85401949751E-01  0.42691640144E-01  0.89243665813E+00  0.88000000000E+00 0.  1.
        -11    1    4    4    0    0  0.61041830944E-01  0.50696226484E-01 -0.21141754229E-01  0.82118496075E-01  0.51100000000E-03 0.  1.
         11    1    4    4    0    0  0.37440365238E-01  0.13833151127E-01 -0.10459761034E-01  0.41265054721E-01  0.51100000000E-03 0. -1.
</event>
<event>
 8    1  0.1109294E+005  0.1043930E+01  0.7957747E-01            NaN
         13   -1    0    0    0    0  0.00000000000E+00  0.00000000000E+00  0.74505805969E-08  0.10566000000E+00  0.10566000000E+00 0. -1.
     999900   -1    0    0    0    0 -0.00000000000E+00 -0.00000000000E+00 -0.74505805969E-08  0.93827000000E+00  0.93827000000E+00 0.  1.
     999902    2    1    2    0    0  0.99249446469E-02 -0.18443588361E-01  0.11491075140E-01  0.10200403519E+01  0.10197605622E+01 0.  0.
     999903    2    3    3    0    0 -0.10224739934E+00 -0.78752685626E-01  0.80962656598E-02  0.13086582084E+00  0.20094710337E-01 0.  0.
         14    1    1    2    0    0 -0.99249446469E-02  0.18443588361E-01 -0.11491075140E-01  0.23889648088E-01  0.00000000000E+00 0. -1.
     999901    1    3    3    0    0  0.11217234398E+00  0.60309097265E-01  0.33948094801E-02  0.88917453107E+00  0.88000000000E+00 0. -1.
        -11    1    4    4    0    0 -0.26029701715E-01 -0.12254459025E-01 -0.37748257482E-02  0.29021157245E-01  0.51100000000E-03 0.  1.
         11    1    4    4    0    0 -0.76217697621E-01 -0.66498226601E-01  0.11871091408E-01  0.10184466360E+00  0.51100000000E-03 0. -1.
</event>
<event>
 8    1  0.1109294E+005  0.1043930E+01  0.7957747E-01            NaN
         13   -1    0    0    0    0  0.00000000000E+00  0.00000000000E+00  0.74505805969E-08  0.10566000000E+00  0.10566000000E+00 0. -1.
     999900   -1    0    0    0    0 -0.00000000000E+00 -0.00000000000E+00 -0.74505805969E-08  0.93827000000E+00  0.93827000000E+00 0. -1.
     999902    2    1    2    0    0 -0.64718879526E-02 -0.20393474298E-01 -0.96086926405E-02  0.10204756592E+01  0.10202060894E+01 0.  0.
     999903    2    3    3    0    0  0.53848349153E-01 -0.10339089390E+00  0.60815746274E-01  0.13171995360E+00  0.78911047032E-02 0.  0.
         14    1    1    2    0    0  0.64718879526E-02  0.20393474298E-01  0.96086926405E-02  0.23454340790E-01  0.00000000000E+00 0. -1.
     999901    1    3    3    0    0 -0.60320237106E-01  0.82997419597E-01 -0.70424438915E-01  0.88875570561E+00  0.88000000000E+00 0. -1.
        -11    1    4    4    0    0  0.29480158720E-01 -0.57471456467E-01  0.38042385445E-01  0.74963539657E-01  0.51100000000E-03 0.  1.
         11    1    4    4    0    0  0.24368190433E-01 -0.45919437429E-01  0.22773360829E-01  0.56756413939E-01  0.51100000000E-03 0. -1.
</event>
<event>
 8    1  0.1109294E+005  0.1043930E+01  0.7957747E-01            NaN
         13   -1    0    0    0    0  0.00000000000E+00  0.00000000000E+00  0.74505805969E-08  0.10566000000E+00  0.10566000000E+00 0. -1.
     999900   -1    0    0    0    0 -0.00000000000E+00 -0.00000000000E+00 -0.74505805969E-08  0.93827000000E+00  0.93827000000E+00 0.  1.
     999902    2    1    2    0    0 -0.13547829600E-01  0.12969301918E-01  0.13763530409E-01  0.10206666974E+01  0.10204015513E+01 0.  0.
     999903    2    3    3    0    0 -0.19581763108E-01 -0.11591251370E+00 -0.50650338501E-01  0.12892902449E+00  0.15429850587E-01 0.  0.
         14    1    1    2    0    0  0.13547829600E-01 -0.12969301918E-01 -0.13763530409E-01  0.23263302612E-01  0.00000000000E+00 0.  1.
     999901    1    3    3    0    0  0.60339335076E-02  0.12888181561E+00  0.64413868910E-01  0.89173767289E+00  0.88000000000E+00 0.  1.
        -11    1    4    4    0    0 -0.15283242647E-01 -0.52168182631E-01 -0.18660194619E-01  0.57476610626E-01  0.51100000000E-03 0.  1.
         11    1    4    4    0    0 -0.42985204610E-02 -0.63744331065E-01 -0.31990143882E-01  0.71452413868E-01  0.51100000000E-03 0. -1.
</event>
<event>
 8    1  0.1116315E+005  0.1043930E+01  0.7957747E-01            NaN
         13   -1    0    0    0    0  0.00000000000E+00  0.00000000000E+00  0.74505805969E-08  0.10566000000E+00  0.10566000000E+00 0. -1.
     999900   -1    0    0    0    0 -0.00000000000E+00 -0.00000000000E+00 -0.74505805969E-08  0.93827000000E+00  0.93827000000E+00 0.  1.
     999902    2    1    2    0    0 -0.97348462483E-02  0.10228019730E-01 -0.18684634473E-01  0.10205100260E+01  0.10202412547E+01 0.  0.
     999903    2    3    3    0    0 -0.62497526378E-01  0.80354995231E-01 -0.84366050725E-01  0.13370917934E+00  0.19941114891E-01 0.  0.
         14    1    1    2    0    0  0.97348462483E-02 -0.10228019730E-01  0.18684634473E-01  0.23419974050E-01  0.00000000000E+00 0. -1.
     999901    1    3    3    0    0  0.52762680130E-01 -0.70126975501E-01  0.65681416251E-01  0.88680084661E+00  0.88000000000E+00 0.  1.
        -11    1    4    4    0    0 -0.30330362122E-01  0.54535235998E-01 -0.53310785027E-01  0.82075110435E-01  0.51100000000E-03 0.  1.
         11    1    4    4    0    0 -0.32167164256E-01  0.25819759233E-01 -0.31055265698E-01  0.51634068905E-01  0.51100000000E-03 0. -1.
</event>
<event>
 8    1  0.1109294E+005  0.1043930E+01  0.7957747E-01            NaN
         13   -1    0    0    0    0  0.00000000000E+00  0.00000000000E+00  0.74505805969E-08  0.10566000000E+00  0.10566000000E+00 0. -1.
     999900   -1    0    0    0    0 -0.00000000000E+00 -0.00000000000E+00 -0.74505805969E-08  0.93827000000E+00  0.93827000000E+00 0. -1.
     999902    2    1    2    0    0  0.20350493402E-01 -0.87768029540E-02  0.75053558390E-02  0.10205311706E+01  0.10202628901E+01 0.  0.
     999903    2    3    3    0    0 -0.45757504370E-01  0.20136912500E-01 -0.11710314666E+00  0.12882855805E+00  0.19606273468E-01 0.  0.
         14    1    1    2    0    0 -0.20350493402E-01  0.87768029540E-02 -0.75053558390E-02  0.23398829416E-01  0.00000000000E+00 0.  1.
     999901    1    3    3    0    0  0.66107997772E-01 -0.28913715454E-01  0.12460850250E+00  0.89170261254E+00  0.88000000000E+00 0.  1.
        -11    1    4    4    0    0 -0.21576821245E-01 -0.77560007436E-03 -0.42879715290E-01  0.48011372349E-01  0.51100000000E-03 0.  1.
         11    1    4    4    0    0 -0.24180683125E-01  0.20912512574E-01 -0.74223431370E-01  0.80817185697E-01  0.51100000000E-03 0. -1.
</event>
<event>
 8    1  0.1109294E+005  0.1043930E+01  0.7957747E-01            NaN
         13   -1    0    0    0    0  0.00000000000E+00  0.00000000000E+00  0.74505805969E-08  0.10566000000E+00  0.10566000000E+00 0. -1.
     999900   -1    0    0    0    0 -0.00000000000E+00 -0.00000000000E+00 -0.74505805969E-08  0.93827000000E+00  0.93827000000E+00 0. -1.
     999902    2    1    2    0    0  0.21429587967E-01  0.55794614788E-02  0.10239029617E-01  0.10195333740E+01  0.10192414363E+01 0.  0.
     999903    2    3    3    0    0  0.97567026613E-01  0.41511313016E-01  0.77731692737E-01  0.13294256251E+00  0.19722958181E-01 0.  0.
         14    1    1    2    0    0 -0.21429587967E-01 -0.55794614788E-02 -0.10239029617E-01  0.24396625962E-01  0.00000000000E+00 0.  1.
     999901    1    3    3    0    0 -0.76137438646E-01 -0.35931851537E-01 -0.67492663120E-01  0.88659081153E+00  0.88000000000E+00 0. -1.
        -11    1    4    4    0    0  0.80417357185E-01  0.36795263875E-01  0.55271843931E-01  0.10428844918E+00  0.51100000000E-03 0. -1.
         11    1    4    4    0    0  0.17149669428E-01  0.47160491412E-02  0.22459848805E-01  0.28654113323E-01  0.51100000000E-03 0.  1.
</event>
<event>
 8    1  0.1109294E+005  0.1043930E+01  0.7957747E-01            NaN
         13   -1    0    0    0    0  0.00000000000E+00  0.00000000000E+00  0.74505805969E-08  0.10566000000E+00  0.10566000000E+00 0.  1.
     999900   -1    0    0    0    0 -0.00000000000E+00 -0.00000000000E+00 -0.74505805969E-08  0.93827000000E+00  0.93827000000E+00 0. -1.
     999902    2    1    2    0    0 -0.19479908851E-01 -0.12316830436E-01 -0.29943282856E-02  0.10206891488E+01  0.10204245202E+01 0.  0.
     999903    2    3    3    0    0  0.41182813688E-01 -0.96721944427E-01 -0.76604653293E-01  0.13151949735E+00  0.19440848774E-01 0.  0.
         14    1    1    2    0    0  0.19479908851E-01  0.12316830436E-01  0.29943282856E-02  0.23240851162E-01  0.00000000000E+00 0.  1.
     999901    1    3    3    0    0 -0.60662722539E-01  0.84405113991E-01  0.73610325007E-01  0.88916965148E+00  0.88000000000E+00 0.  1.
        -11    1    4    4    0    0  0.40644493207E-01 -0.77113077270E-01 -0.64828196520E-01  0.10863405405E+00  0.51100000000E-03 0.  1.
         11    1    4    4    0    0  0.53832048055E-03 -0.19608867157E-01 -0.11776456773E-01  0.22885443305E-01  0.51100000000E-03 0. -1.
</event>
<event>
 8    1  0.1109294E+005  0.1043930E+01  0.7957747E-01            NaN
         13   -1    0    0    0    0  0.00000000000E+00  0.00000000000E+00  0.74505805969E-08  0.10566000000E+00  0.10566000000E+00 0. -1.
     999900   -1    0    0    0    0 -0.00000000000E+00 -0.00000000000E+00 -0.74505805969E-08  0.93827000000E+00  0.93827000000E+00 0. -1.
     999902    2    1    2    0    0  0.74088218245E-02  0.87827904738E-02 -0.21545427480E-01  0.10195121071E+01  0.10192196539E+01 0.  0.
     999903    2    3    3    0    0  0.10365797981E+00 -0.68196326558E-01  0.30582404735E-01  0.12939582492E+00  0.20304686497E-01 0.  0.
         14    1    1    2    0    0 -0.74088218245E-02 -0.87827904738E-02  0.21545427480E-01  0.24417892919E-01  0.00000000000E+00 0. -1.
     999901    1    3    3    0    0 -0.96249157985E-01  0.76979117032E-01 -0.52127832214E-01  0.89011628216E+00  0.88000000000E+00 0. -1.
        -11    1    4    4    0    0  0.85310075401E-01 -0.61863724559E-01  0.19930782227E-01  0.10724936635E+00  0.51100000000E-03 0. -1.
         11    1    4    4    0    0  0.18347904409E-01 -0.63326019992E-02  0.10651622507E-01  0.22146458573E-01  0.51100000000E-03 0.  1.
</event>
<event>
 8    1  0.1109294E+005  0.1043930E+01  0.7957747E-01            NaN
         13   -1    0    0    0    0  0.00000000000E+00  0.00000000000E+00  0.74505805969E-08  0.10566000000E+00  0.10566000000E+00 0.  1.
     999900   -1    0    0    0    0 -0.00000000000E+00 -0.00000000000E+00 -0.74505805969E-08  0.93827000000E+00  0.93827000000E+00 0. -1.
     999902    2    1    2    0    0 -0.14103735267E-01 -0.87617582986E-02 -0.16025101229E-01  0.10208543066E+01  0.10205934684E+01 0.  0.
     999903    2    3    3    0    0 -0.55767070075E-01  0.11622422886E+00  0.61343078846E-02  0.13077095664E+00  0.21103930638E-01 0.  0.
         14    1    1    2    0    0  0.14103735267E-01  0.87617582986E-02  0.16025101229E-01  0.23075693411E-01  0.00000000000E+00 0.  1.
     999901    1    3    3    0    0  0.41663334808E-01 -0.12498598715E+00 -0.22159409114E-01  0.89008334995E+00  0.88000000000E+00 0.  1.
        -11    1    4    4    0    0 -0.45609999120E-01  0.10392816992E+00 -0.47856498125E-03  0.11349813509E+00  0.51100000000E-03 0.  1.
         11    1    4    4    0    0 -0.10157070954E-01  0.12296058934E-01  0.66128728658E-02  0.17272821548E-01  0.51100000000E-03 0. -1.
</event>
<event>
 8    1  0.1109294E+005  0.1043930E+01  0.7957747E-01            NaN
         13   -1    0    0    0    0  0.00000000000E+00  0.00000000000E+00  0.74505805969E-08  0.10566000000E+00  0.10566000000E+00 0. -1.
     999900   -1    0    0    0    0 -0.00000000000E+00 -0.00000000000E+00 -0.74505805969E-08  0.93827000000E+00  0.93827000000E+00 0. -1.
     999902    2    1    2    0    0  0.30351524957E-02  0.14074157522E-02 -0.22975562726E-01  0.10207121308E+01  0.10204480312E+01 0.  0.
     999903    2    3    3    0    0  0.30735831015E-01  0.16343566844E-02 -0.12867884455E+00  0.13395367273E+00  0.20927947192E-01 0.  0.
         14    1    1    2    0    0 -0.30351524957E-02 -0.14074157522E-02  0.22975562726E-01  0.23217869247E-01  0.00000000000E+00 0. -1.
     999901    1    3    3    0    0 -0.27700678519E-01 -0.22694093220E-03  0.10570328182E+00  0.88675845803E+00  0.88000000000E+00 0.  1.
        -11    1    4    4    0    0  0.92168796541E-02  0.10442006181E-01 -0.50645512502E-01  0.52528234514E-01  0.51100000000E-03 0. -1.
         11    1    4    4    0    0  0.21518951361E-01 -0.88076494966E-02 -0.78033332044E-01  0.81425438213E-01  0.51100000000E-03 0.  1.
</event>
<event>
 8    1  0.1109294E+005  0.1043930E+01  0.7957747E-01            NaN
         13   -1    0    0    0    0  0.00000000000E+00  0.00000000000E+00  0.74505805969E-08  0.10566000000E+00  0.10566000000E+00 0. -1.
     999900   -1    0    0    0    0 -0.00000000000E+00 -0.00000000000E+00 -0.74505805969E-08  0.93827000000E+00  0.93827000000E+00 0.  1.
     999902    2    1    2    0    0  0.10258154504E-01 -0.89149753439E-02 -0.19632046111E-01  0.10200527356E+01  0.10197732394E+01 0.  0.
     999903    2    3    3    0    0  0.61641849338E-01  0.11000443160E+00 -0.26961599977E-01  0.13053835587E+00  0.20313589521E-01 0.  0.
         14    1    1    2    0    0 -0.10258154504E-01  0.89149753439E-02  0.19632046111E-01  0.23877264368E-01  0.00000000000E+00 0. -1.
     999901    1    3    3    0    0 -0.51383694835E-01 -0.11891940694E+00  0.73295538659E-02  0.88951437976E+00  0.88000000000E+00 0.  1.
        -11    1    4    4    0    0  0.20715299274E-01  0.57365288371E-01 -0.11033256987E-01  0.61983012307E-01  0.51100000000E-03 0.  1.
         11    1    4    4    0    0  0.40926550064E-01  0.52639143227E-01 -0.15928342990E-01  0.68555343564E-01  0.51100000000E-03 0. -1.
</event>
<event>
 8    1  0.1109294E+005  0.1043930E+01  0.7957747E-01            NaN
         13   -1    0    0    0    0  0.00000000000E+00  0.00000000000E+00  0.74505805969E-08  0.10566000000E+00  0.10566000000E+00 0. -1.
     999900   -1    0    0    0    0 -0.00000000000E+00 -0.00000000000E+00 -0.74505805969E-08  0.93827000000E+00  0.93827000000E+00 0. -1.
     999902    2    1    2    0    0 -0.22412559982E-01  0.55321602615E-02  0.43741973393E-02  0.10204340164E+01  0.10201634774E+01 0.  0.
     999903    2    3    3    0    0  0.12447018361E-01  0.71076513909E-01 -0.10670662319E+00  0.13034963773E+00  0.19948070808E-01 0.  0.
         14    1    1    2    0    0  0.22412559982E-01 -0.55321602615E-02 -0.43741973393E-02  0.23495983582E-01  0.00000000000E+00 0.  1.
     999901    1    3    3    0    0 -0.34859578344E-01 -0.65544353647E-01  0.11108082053E+00  0.89008437869E+00  0.88000000000E+00 0.  1.
        -11    1    4    4    0    0  0.45692623821E-02  0.44248526811E-02 -0.18104539474E-01  0.19196170205E-01  0.51100000000E-03 0. -1.
         11    1    4    4    0    0  0.78777559794E-02  0.66651661228E-01 -0.88602083712E-01  0.11115346752E+00  0.51100000000E-03 0.  1.
</event>
<event>
 8    1  0.1109294E+005  0.1043930E+01  0.7957747E-01            NaN
         13   -1    0    0    0    0  0.00000000000E+00  0.00000000000E+00  0.74505805969E-08  0.10566000000E+00  0.10566000000E+00 0. -1.
     999900   -1    0    0    0    0 -0.00000000000E+00 -0.00000000000E+00 -0.74505805969E-08  0.93827000000E+00  0.93827000000E+00 0. -1.
     999902    2    1    2    0    0  0.15038385320E-01  0.32274882480E-01  0.12366182410E-01  0.10062372482E+01  0.10055310319E+01 0.  0.
     999903    2    3    3    0    0 -0.55376694147E-01  0.43114025311E-01 -0.91773458513E-01  0.11723734085E+00  0.19920566459E-01 0.  0.
         14    1    1    2    0    0 -0.15038385320E-01 -0.32274882480E-01 -0.12366182410E-01  0.37692751817E-01  0.00000000000E+00 0.  1.
     999901    1    3    3    0    0  0.70415079467E-01 -0.10839142831E-01  0.10413964092E+00  0.88899990734E+00  0.88000000000E+00 0.  1.
        -11    1    4    4    0    0 -0.27589237366E-01  0.16313478621E-01 -0.56402999097E-01  0.64875689063E-01  0.51100000000E-03 0.  1.
         11    1    4    4    0    0 -0.27787456781E-01  0.26800546690E-01 -0.35370459416E-01  0.52361651784E-01  0.51100000000E-03 0. -1.
</event>
<event>
 8    1  0.1109294E+005  0.1043930E+01  0.7957747E-01            NaN
         13   -1    0    0    0    0  0.00000000000E+00  0.00000000000E+00  0.74505805969E-08  0.10566000000E+00  0.10566000000E+00 0.  1.
     999900   -1    0    0    0    0 -0.00000000000E+00 -0.00000000000E+00 -0.74505805969E-08  0.93827000000E+00  0.93827000000E+00 0.  1.
     999902    2    1    2    0    0  0.58763593970E-02  0.23062665202E-01 -0.37476183439E-02  0.10198372050E+01  0.10195525793E+01 0.  0.
     999903    2    3    3    0    0 -0.64476058461E-01 -0.14695143217E-01  0.10893893370E+00  0.12906598087E+00  0.20426130150E-01 0.  0.
         14    1    1    2    0    0 -0.58763593970E-02 -0.23062665202E-01  0.37476183439E-02  0.24092794965E-01  0.00000000000E+00 0.  1.
     999901    1    3    3    0    0  0.70352417858E-01  0.37757808419E-01 -0.11268655204E+00  0.89077122417E+00  0.88000000000E+00 0.  1.
        -11    1    4    4    0    0 -0.47213835509E-01 -0.41187343233E-02  0.62795610300E-01  0.78674392466E-01  0.51100000000E-03 0. -1.
         11    1    4    4    0    0 -0.17262222952E-01 -0.10576408894E-01  0.46143323398E-01  0.50391588401E-01  0.51100000000E-03 0.  1.
</event>
<event>
 8    1  0.1109294E+005  0.1043930E+01  0.7957747E-01            NaN
         13   -1    0    0    0    0  0.00000000000E+00  0.00000000000E+00  0.74505805969E-08  0.10566000000E+00  0.10566000000E+00 0.  1.
     999900   -1    0    0    0    0 -0.00000000000E+00 -0.00000000000E+00 -0.74505805969E-08  0.93827000000E+00  0.93827000000E+00 0.  1.
     999902    2    1    2    0    0 -0.52940453641E-02 -0.38162213854E-02 -0.23038699887E-01  0.10199848094E+01  0.10197037017E+01 0.  0.
     999903    2    3    3    0    0 -0.65620046742E-01  0.66401256946E-01 -0.91801124183E-01  0.13246129323E+00  0.20085575511E-01 0.  0.
         14    1    1    2    0    0  0.52940453641E-02  0.38162213854E-02  0.23038699887E-01  0.23945190634E-01  0.00000000000E+00 0.  1.
     999901    1    3    3    0    0  0.60326001378E-01 -0.70217478332E-01  0.68762424296E-01  0.88752351614E+00  0.88000000000E+00 0.  1.
        -11    1    4    4    0    0 -0.36917562306E-01  0.47015334836E-01 -0.48303326932E-01  0.76855843174E-01  0.51100000000E-03 0.  1.
         11    1    4    4    0    0 -0.28702484436E-01  0.19385922111E-01 -0.43497797251E-01  0.55605450053E-01  0.51100000000E-03 0. -1.
</event>
<event>
 8    1  0.1109294E+005  0.1043930E+01  0.7957747E-01            NaN
         13   -1    0    0    0    0  0.00000000000E+00  0.00000000000E+00  0.74505805969E-08  0.10566000000E+00  0.10566000000E+00 0.  1.
     999900   -1    0    0    0    0 -0.00000000000E+00 -0.00000000000E+00 -0.74505805969E-08  0.93827000000E+00  0.93827000000E+00 0. -1.
     999902    2    1    2    0    0  0.71522309310E-02 -0.20840583547E-01  0.80170587235E-02  0.10204830906E+01  0.10202136936E+01 0.  0.
     999903    2    3    3    0    0  0.32937602255E-01  0.24240981485E-01  0.12331896638E+00  0.13144329240E+00  0.19931402918E-01 0.  0.
         14    1    1    2    0    0 -0.71522309310E-02  0.20840583547E-01 -0.80170587235E-02  0.23446909401E-01  0.00000000000E+00 0.  1.
     999901    1    3    3    0    0 -0.25785371324E-01 -0.45081565032E-01 -0.11530190765E+00  0.88903979820E+00  0.88000000000E+00 0. -1.
        -11    1    4    4    0    0  0.12445475564E-01  0.65538905030E-02  0.72586007718E-01  0.73938034733E-01  0.51100000000E-03 0. -1.
         11    1    4    4    0    0  0.20492126691E-01  0.17687090982E-01  0.50732958658E-01  0.57505257663E-01  0.51100000000E-03 0.  1.
</event>
<event>
 8    1  0.1109294E+005  0.1043930E+01  0.7957747E-01            NaN
         13   -1    0    0    0    0  0.00000000000E+00  0.00000000000E+00  0.74505805969E-08  0.10566000000E+00  0.10566000000E+00 0.  1.
     999900   -1    0    0    0    0 -0.00000000000E+00 -0.00000000000E+00 -0.74505805969E-08  0.93827000000E+00  0.93827000000E+00 0. -1.
     999902    2    1    2    0    0 -0.78154033321E-02  0.20893504594E-01 -0.95971384646E-02  0.10196457638E+01  0.10193565418E+01 0.  0.
     999903    2    3    3    0    0 -0.62763784235E-03 -0.11501050396E-01  0.12652916670E+00  0.12856134456E+00  0.19639786135E-01 0.  0.
         14    1    1    2    0    0  0.78154033321E-02 -0.20893504594E-01  0.95971384646E-02  0.24284236249E-01  0.00000000000E+00 0. -1.
     999901    1    3    3    0    0 -0.71877654898E-02  0.32394554990E-01 -0.13612630517E+00  0.89108441919E+00  0.88000000000E+00 0. -1.
        -11    1    4    4    0    0 -0.32604199645E-02  0.49729403396E-02  0.28073243792E-01  0.28700672675E-01  0.51100000000E-03 0. -1.
         11    1    4    4    0    0  0.26327821221E-02 -0.16473990736E-01  0.98455922910E-01  0.99860671886E-01  0.51100000000E-03 0.  1.
</event>
<event>
 8    1  0.1109294E+005  0.1043930E+01  0.7957747E-01            NaN
         13   -1    0    0    0    0  0.00000000000E+00  0.00000000000E+00  0.74505805969E-08  0.10566000000E+00  0.10566000000E+00 0.  1.
     999900   -1    0    0    0    0 -0.00000000000E+00 -0.00000000000E+00 -0.74505805969E-08  0.93827000000E+00  0.93827000000E+00 0.  1.
     999902    2    1    2    0    0 -0.99945328825E-02  0.14429468894E-01 -0.14526903235E-01  0.10211455497E+01  0.10208913274E+01 0.  0.
     999903    2    3    3    0    0 -0.66565643224E-01 -0.86111934039E-01 -0.71680966220E-01  0.13177754306E+00  0.19516913058E-01 0.  0.
         14    1    1    2    0    0  0.99945328825E-02 -0.14429468894E-01  0.14526903235E-01  0.22784450349E-01  0.00000000000E+00 0.  1.
     999901    1    3    3    0    0  0.56571110342E-01  0.10054140293E+00  0.57154062985E-01  0.88936800659E+00  0.88000000000E+00 0.  1.
        -11    1    4    4    0    0 -0.49956918390E-01 -0.52640535032E-01 -0.40509659724E-01  0.83114458883E-01  0.51100000000E-03 0.  1.
         11    1    4    4    0    0 -0.16608724835E-01 -0.33471399006E-01 -0.31171306496E-01  0.48663084178E-01  0.51100000000E-03 0. -1.
</event>
<event>
 8    1  0.1109294E+005  0.1043930E+01  0.7957747E-01            NaN
         13   -1    0    0    0    0  0.00000000000E+00  0.00000000000E+00  0.74505805969E-08  0.10566000000E+00  0.10566000000E+00 0.  1.
     999900   -1    0    0    0    0 -0.00000000000E+00 -0.00000000000E+00 -0.74505805969E-08  0.93827000000E+00  0.93827000000E+00 0.  1.
     999902    2    1    2    0    0 -0.44711050850E-02  0.11196264389E-01 -0.16110295173E-01  0.10238081530E+01  0.10236103973E+01 0.  0.
     999903    2    3    3    0    0  0.10164802887E+00 -0.19172493162E-01  0.79336745616E-01  0.13179152218E+00  0.19359231559E-01 0.  0.
         14    1    1    2    0    0  0.44711050850E-02 -0.11196264389E-01  0.16110295173E-01  0.20121847020E-01  0.00000000000E+00 0.  1.
     999901    1    3    3    0    0 -0.10611913396E+00  0.30368757551E-01 -0.95447040788E-01  0.89201663080E+00  0.88000000000E+00 0.  1.
        -11    1    4    4    0    0  0.85619639620E-01 -0.86532005992E-02  0.64771391476E-01  0.10770884292E+00  0.51100000000E-03 0. -1.
         11    1    4    4    0    0  0.16028389251E-01 -0.10519292562E-01  0.14565354140E-01  0.24082679257E-01  0.51100000000E-03 0.  1.
</event>
<event>
 8    1  0.1109294E+005  0.1043930E+01  0.7957747E-01            NaN
         13   -1    0    0    0    0  0.00000000000E+00  0.00000000000E+00  0.74505805969E-08  0.10566000000E+00  0.10566000000E+00 0. -1.
     999900   -1    0    0    0    0 -0.00000000000E+00 -0.00000000000E+00 -0.74505805969E-08  0.93827000000E+00  0.93827000000E+00 0.  1.
     999902    2    1    2    0    0  0.13586682759E-01 -0.17594881752E-01 -0.59530376184E-02  0.10209166024E+01  0.10206571866E+01 0.  0.
     999903    2    3    3    0    0 -0.12738254578E+00  0.84735193654E-02 -0.22921140689E-02  0.12930834352E+00  0.20427442746E-01 0.  0.
         14    1    1    2    0    0 -0.13586682759E-01  0.17594881752E-01  0.59530376184E-02  0.23013397601E-01  0.00000000000E+00 0.  1.
     999901    1    3    3    0    0  0.14096922854E+00 -0.26068401117E-01 -0.36609235495E-02  0.89160825887E+00  0.88000000000E+00 0.  1.
        -11    1    4    4    0    0 -0.54175799973E-01  0.13465912362E-01 -0.32836593579E-02  0.55923086809E-01  0.51100000000E-03 0.  1.
         11    1    4    4    0    0 -0.73206745811E-01 -0.49923929964E-02  0.99154528905E-03  0.73385256715E-01  0.51100000000E-03 0. -1.
</event>
<event>
 8    1  0.1109294E+005  0.1043930E+01  0.7957747E-01            NaN
         13   -1    0    0    0    0  0.00000000000E+00  0.00000000000E+00  0.74505805969E-08  0.10566000000E+00  0.10566000000E+00 0. -1.
     999900   -1    0    0    0    0 -0.00000000000E+00 -0.00000000000E+00 -0.74505805969E-08  0.93827000000E+00  0.93827000000E+00 0.  1.
     999902    2    1    2    0    0  0.15008309546E-01 -0.16859496285E-01  0.83043667377E-02  0.10198789194E+01  0.10195952902E+01 0.  0.
     999903    2    3    3    0    0  0.57529542292E-02 -0.10376843844E+00  0.79859972235E-01  0.13265908729E+00  0.20489826204E-01 0.  0.
         14    1    1    2    0    0 -0.15008309546E-01  0.16859496285E-01 -0.83043667377E-02  0.24051080586E-01  0.00000000000E+00 0. -1.
     999901    1    3    3    0    0  0.92553553171E-02  0.86908942155E-01 -0.71555605497E-01  0.88721983212E+00  0.88000000000E+00 0.  1.
        -11    1    4    4    0    0 -0.44165247467E-02 -0.79000888251E-01  0.60873597546E-01  0.99832369672E-01  0.51100000000E-03 0. -1.
         11    1    4    4    0    0  0.10169478976E-01 -0.24767550189E-01  0.18986374689E-01  0.32826717622E-01  0.51100000000E-03 0.  1.
</event>
<event>
 8    1  0.1109294E+005  0.1043930E+01  0.7957747E-01            NaN
         13   -1    0    0    0    0  0.00000000000E+00  0.00000000000E+00  0.74505805969E-08  0.10566000000E+00  0.10566000000E+00 0. -1.
     999900   -1    0    0    0    0 -0.00000000000E+00 -0.00000000000E+00 -0.74505805969E-08  0.93827000000E+00  0.93827000000E+00 0. -1.
     999902    2    1    2    0    0 -0.23223402447E-01  0.83703477471E-02 -0.75344807071E-02  0.10181199721E+01  0.10177927687E+01 0.  0.
     999903    2    3    3    0    0 -0.41828904756E-01 -0.11917250983E+00  0.11412948115E-01  0.12852885796E+00  0.20920506020E-01 0.  0.
         14    1    1    2    0    0  0.23223402447E-01 -0.83703477471E-02  0.75344807071E-02  0.25810027938E-01  0.00000000000E+00 0. -1.
     999901    1    3    3    0    0  0.18605502308E-01  0.12754285757E+00 -0.18947428822E-01  0.88959111410E+00  0.88000000000E+00 0. -1.
        -11    1    4    4    0    0 -0.10931129362E-01 -0.35885680430E-01  0.12925182464E-01  0.39681143026E-01  0.51100000000E-03 0. -1.
         11    1    4    4    0    0 -0.30897775394E-01 -0.83286829395E-01 -0.15122343493E-02  0.88847714932E-01  0.51100000000E-03 0.  1.
</event>
<event>
 8    1  0.1109294E+005  0.1043930E+01  0.7957747E-01            NaN
         13   -1    0    0    0    0  0.00000000000E+00  0.00000000000E+00  0.74505805969E-08  0.10566000000E+00  0.10566000000E+00 0. -1.
     999900   -1    0    0    0    0 -0.00000000000E+00 -0.00000000000E+00 -0.74505805969E-08  0.93827000000E+00  0.93827000000E+00 0. -1.
     999902    2    1    2    0    0 -0.53389481749E-02 -0.10060941210E-01 -0.19120004390E-01  0.10216746305E+01  0.10214322048E+01 0.  0.
     999903    2    3    3    0    0  0.64091355423E-01  0.10132435745E+00  0.45041517295E-01  0.12962981506E+00  0.20020574914E-01 0.  0.
         14    1    1    2    0    0  0.53389481749E-02  0.10060941210E-01  0.19120004390E-01  0.22255369544E-01  0.00000000000E+00 0. -1.
     999901    1    3    3    0    0 -0.69430303598E-01 -0.11138529866E+00 -0.64161521686E-01  0.89204481540E+00  0.88000000000E+00 0. -1.
        -11    1    4    4    0    0  0.39052788361E-01  0.43083413303E-01  0.22120086621E-01  0.62216236898E-01  0.51100000000E-03 0. -1.
         11    1    4    4    0    0  0.25038567062E-01  0.58240944143E-01  0.22921430675E-01  0.67413578160E-01  0.51100000000E-03 0.  1.
</event>
<event>
 8    1  0.1109294E+005  0.1043930E+01  0.7957747E-01            NaN
         13   -1    0    0    0    0  0.00000000000E+00  0.00000000000E+00  0.74505805969E-08  0.10566000000E+00  0.10566000000E+00 0.  1.
     999900   -1    0    0    0    0 -0.00000000000E+00 -0.00000000000E+00 -0.74505805969E-08  0.93827000000E+00  0.93827000000E+00 0. -1.
     999902    2    1    2    0    0 -0.45482503755E-03 -0.22980725912E-01  0.61894098633E-03  0.10209364418E+01  0.10206774782E+01 0.  0.
     999903    2    3    3    0    0  0.64312574002E-01 -0.50701975969E-01 -0.10195129289E+00  0.13218229329E+00  0.19269016460E-01 0.  0.
         14    1    1    2    0    0  0.45482503755E-03  0.22980725912E-01 -0.61894098633E-03  0.22993558167E-01  0.00000000000E+00 0. -1.
     999901    1    3    3    0    0 -0.64767399039E-01  0.27721250057E-01  0.10257023387E+00  0.88875414855E+00  0.88000000000E+00 0. -1.
        -11    1    4    4    0    0  0.27357883917E-01 -0.33665728567E-01 -0.50269216991E-01  0.66400981847E-01  0.51100000000E-03 0. -1.
         11    1    4    4    0    0  0.36954690085E-01 -0.17036247402E-01 -0.51682075895E-01  0.65781311439E-01  0.51100000000E-03 0.  1.
</event>
<event>
 8    1  0.1109294E+005  0.1043930E+01  0.7957747E-01            NaN
         13   -1    0    0    0    0  0.00000000000E+00  0.00000000000E+00  0.74505805969E-08  0.10566000000E+00  0.10566000000E+00 0.  1.
     999900   -1    0    0    0    0 -0.00000000000E+00 -0.00000000000E+00 -0.74505805969E-08  0.93827000000E+00  0.93827000000E+00 0.  1.
     999902    2    1    2    0    0 -0.31547974754E-02 -0.26225879034E-01  0.33777964695E-02  0.10172999608E+01  0.10169513515E+01 0.  0.
     999903    2    3    3    0    0 -0.96423602418E-01  0.17386643913E-01 -0.79550682558E-01  0.12742454550E+00  0.17575471885E-01 0.  0.
         14    1    1    2    0    0  0.31547974754E-02  0.26225879034E-01 -0.33777964695E-02  0.26630039189E-01  0.00000000000E+00 0. -1.
     999901    1    3    3    0    0  0.93268804942E-01 -0.43612522946E-01  0.82928479027E-01  0.88987541531E+00  0.88000000000E+00 0. -1.
        -11    1    4    4    0    0 -0.13264781798E-01 -0.34314855511E-02 -0.90105060859E-02  0.16406701989E-01  0.51100000000E-03 0. -1.
         11    1    4    4    0    0 -0.83158820620E-01  0.20818129464E-01 -0.70540176472E-01  0.11101784352E+00  0.51100000000E-03 0.  1.
</event>
<event>
 8    1  0.1109294E+005  0.1043930E+01  0.7957747E-01            NaN
         13   -1    0    0    0    0  0.00000000000E+00  0.00000000000E+00  0.74505805969E-08  0.10566000000E+00  0.10566000000E+00 0. -1.
     999900   -1    0    0    0    0 -0.00000000000E+00 -0.00000000000E+00 -0.74505805969E-08  0.93827000000E+00  0.93827000000E+00 0. -1.
     999902    2    1    2    0    0  0.12176789925E-01  0.15343443872E-01  0.14462673894E-01  0.10195811927E+01  0.10192904120E+01 0.  0.
     999903    2    3    3    0    0 -0.39808534694E-01 -0.16192403105E-01 -0.11848654641E+00  0.12752038823E+00  0.19377161343E-01 0.  0.
         14    1    1    2    0    0 -0.12176789925E-01 -0.15343443872E-01 -0.14462673894E-01  0.24348807340E-01  0.00000000000E+00 0. -1.
     999901    1    3    3    0    0  0.51985324618E-01  0.31535846977E-01  0.13294922030E+00  0.89206080443E+00  0.88000000000E+00 0.  1.
        -11    1    4    4    0    0 -0.18768147669E-01 -0.16107992902E-02 -0.30208180020E-01  0.35603838310E-01  0.51100000000E-03 0. -1.
         11    1    4    4    0    0 -0.21040387024E-01 -0.14581603815E-01 -0.88278366389E-01  0.91916549921E-01  0.51100000000E-03 0.  1.
</event>
<event>
 8    1  0.1109294E+005  0.1043930E+01  0.7957747E-01            NaN
         13   -1    0    0    0    0  0.00000000000E+00  0.00000000000E+00  0.74505805969E-08  0.10566000000E+00  0.10566000000E+00 0. -1.
     999900   -1    0    0    0    0 -0.00000000000E+00 -0.00000000000E+00 -0.74505805969E-08  0.93827000000E+00  0.93827000000E+00 0. -1.
     999902    2    1    2    0    0 -0.62006918905E-02  0.16843012098E-01  0.15587112531E-01  0.10201583002E+01  0.10198812988E+01 0.  0.
     999903    2    3    3    0    0 -0.42377540655E-01  0.12219576964E+00  0.23763255027E-01  0.13309865322E+00  0.20564462782E-01 0.  0.
         14    1    1    2    0    0  0.62006918905E-02 -0.16843012098E-01 -0.15587112531E-01  0.23771699845E-01  0.00000000000E+00 0.  1.
     999901    1    3    3    0    0  0.36176848764E-01 -0.10535275755E+00 -0.81761424957E-02  0.88705964693E+00  0.88000000000E+00 0. -1.
        -11    1    4    4    0    0 -0.17059894225E-01  0.73245025290E-01  0.72020275505E-02  0.75551333823E-01  0.51100000000E-03 0. -1.
         11    1    4    4    0    0 -0.25317646430E-01  0.48950744355E-01  0.16561227476E-01  0.57547319400E-01  0.51100000000E-03 0.  1.
</event>
<event>
 8    1  0.1109294E+005  0.1043930E+01  0.7957747E-01            NaN
         13   -1    0    0    0    0  0.00000000000E+00  0.00000000000E+00  0.74505805969E-08  0.10566000000E+00  0.10566000000E+00 0. -1.
     999900   -1    0    0    0    0 -0.00000000000E+00 -0.00000000000E+00 -0.74505805969E-08  0.93827000000E+00  0.93827000000E+00 0. -1.
     999902    2    1    2    0    0  0.97830067826E-02 -0.21688933778E-01  0.18839304760E-02  0.10200623176E+01  0.10197830482E+01 0.  0.
     999903    2    3    3    0    0  0.99212749464E-01 -0.73831103404E-02 -0.82949295161E-01  0.13135594783E+00  0.21820162417E-01 0.  0.
         14    1    1    2    0    0 -0.97830067826E-02  0.21688933778E-01 -0.18839304760E-02  0.23867682422E-01  0.00000000000E+00 0.  1.
     999901    1    3    3    0    0 -0.89429742682E-01 -0.14305823438E-01  0.84833225637E-01  0.88870636975E+00  0.88000000000E+00 0.  1.
        -11    1    4    4    0    0  0.73911888394E-01  0.25226535713E-02 -0.53467537062E-01  0.91259901751E-01  0.51100000000E-03 0. -1.
         11    1    4    4    0    0  0.25300861070E-01 -0.99057639117E-02 -0.29481758099E-01  0.40096046079E-01  0.51100000000E-03 0.  1.
</event>
<event>
 8    1  0.1109294E+005  0.1043930E+01  0.7957747E-01            NaN
         13   -1    0    0    0    0  0.00000000000E+00  0.00000000000E+00  0.74505805969E-08  0.10566000000E+00  0.10566000000E+00 0.  1.
     999900   -1    0    0    0    0 -0.00000000000E+00 -0.00000000000E+00 -0.74505805969E-08  0.93827000000E+00  0.93827000000E+00 0.  1.
     999902    2    1    2    0    0  0.21892258942E-01 -0.94013699422E-03  0.84650959495E-02  0.10204393059E+01  0.10201688901E+01 0.  0.
     999903    2    3    3    0    0 -0.74473285264E-01  0.69224238116E-01  0.78018923487E-01  0.12968283383E+00  0.19809583693E-01 0.  0.
         14    1    1    2    0    0 -0.21892258942E-01  0.94013699422E-03 -0.84650959495E-02  0.23490694085E-01  0.00000000000E+00 0.  1.
     999901    1    3    3    0    0  0.96365544206E-01 -0.70164375111E-01 -0.69553827538E-01  0.89075647209E+00  0.88000000000E+00 0.  1.
        -11    1    4    4    0    0 -0.66606245617E-02  0.16118161212E-01  0.12567812578E-01  0.21502792247E-01  0.51100000000E-03 0. -1.
         11    1    4    4    0    0 -0.67812660702E-01  0.53106076904E-01  0.65451110910E-01  0.10818004158E+00  0.51100000000E-03 0.  1.
</event>
<event>
 8    1  0.1109294E+005  0.1043930E+01  0.7957747E-01            NaN
         13   -1    0    0    0    0  0.00000000000E+00  0.00000000000E+00  0.74505805969E-08  0.10566000000E+00  0.10566000000E+00 0.  1.
     999900   -1    0    0    0    0 -0.00000000000E+00 -0.00000000000E+00 -0.74505805969E-08  0.93827000000E+00  0.93827000000E+00 0. -1.
     999902    2    1    2    0    0  0.19442493863E-01  0.21456068813E-02 -0.12595032774E-01  0.10206652402E+01  0.10204000605E+01 0.  0.
     999903    2    3    3    0    0  0.20127848776E-01 -0.69064455159E-01 -0.10956933479E+00  0.13247868443E+00  0.19238852397E-01 0.  0.
         14    1    1    2    0    0 -0.19442493863E-01 -0.21456068813E-02  0.12595032774E-01  0.23264759769E-01  0.00000000000E+00 0. -1.
     999901    1    3    3    0    0 -0.68535491291E-03  0.71210062041E-01  0.96974302011E-01  0.88818655580E+00  0.88000000000E+00 0.  1.
        -11    1    4    4    0    0  0.99755206797E-02 -0.11893537460E-01 -0.32126183874E-01  0.35683610488E-01  0.51100000000E-03 0. -1.
         11    1    4    4    0    0  0.10152328097E-01 -0.57170917699E-01 -0.77443150911E-01  0.96795073947E-01  0.51100000000E-03 0.  1.
</event>
<event>
 8    1  0.1109294E+005  0.1043930E+01  0.7957747E-01            NaN
         13   -1    0    0    0    0  0.00000000000E+00  0.00000000000E+00  0.74505805969E-08  0.10566000000E+00  0.10566000000E+00 0.  1.
     999900   -1    0    0    0    0 -0.00000000000E+00 -0.00000000000E+00 -0.74505805969E-08  0.93827000000E+00  0.93827000000E+00 0. -1.
     999902    2    1    2    0    0  0.20403583149E-01  0.11233619504E-01 -0.68333535142E-02  0.10196566580E+01  0.10193676986E+01 0.  0.
     999903    2    3    3    0    0 -0.29000188894E-04 -0.11995327964E+00  0.42223549623E-01  0.12834634574E+00  0.17354140244E-01 0.  0.
         14    1    1    2    0    0 -0.20403583149E-01 -0.11233619504E-01  0.68333535142E-02  0.24273342018E-01  0.00000000000E+00 0.  1.
     999901    1    3    3    0    0  0.20432583337E-01  0.13118689915E+00 -0.49056903137E-01  0.89131031225E+00  0.88000000000E+00 0. -1.
        -11    1    4    4    0    0 -0.62870982216E-02 -0.48063004179E-01  0.10945542407E-01  0.49695532941E-01  0.51100000000E-03 0. -1.
         11    1    4    4    0    0  0.62580980327E-02 -0.71890275463E-01  0.31278007215E-01  0.78650812796E-01  0.51100000000E-03 0.  1.
</event>
<event>
 8    1  0.1109294E+005  0.1043930E+01  0.7957747E-01            NaN
         13   -1    0    0    0    0  0.00000000000E+00  0.00000000000E+00  0.74505805969E-08  0.10566000000E+00  0.10566000000E+00 0.  1.
     999900   -1    0    0    0    0 -0.00000000000E+00 -0.00000000000E+00 -0.74505805969E-08  0.93827000000E+00  0.93827000000E+00 0.  1.
     999902    2    1    2    0    0  0.87042898560E-02 -0.14521032179E-01 -0.16458424349E-01  0.10203184611E+01  0.10200452232E+01 0.  0.
     999903    2    3    3    0    0 -0.57312944837E-01 -0.97838607754E-01  0.61425726080E-01  0.13050610191E+00  0.20038862172E-01 0.  0.
         14    1    1    2    0    0 -0.87042898560E-02  0.14521032179E-01  0.16458424349E-01  0.23611538905E-01  0.00000000000E+00 0.  1.
     999901    1    3    3    0    0  0.66017234693E-01  0.83317575576E-01 -0.77884150429E-01  0.88981235919E+00  0.88000000000E+00 0.  1.
        -11    1    4    4    0    0 -0.30729799392E-01 -0.70337252214E-01  0.37991204491E-01  0.85646029443E-01  0.51100000000E-03 0. -1.
         11    1    4    4    0    0 -0.26583145444E-01 -0.27501355540E-01  0.23434521589E-01  0.44860072463E-01  0.51100000000E-03 0.  1.
</event>
<event>
 8    1  0.1109294E+005  0.1043930E+01  0.7957747E-01            NaN
         13   -1    0    0    0    0  0.00000000000E+00  0.00000000000E+00  0.74505805969E-08  0.10566000000E+00  0.10566000000E+00 0.  1.
     999900   -1    0    0    0    0 -0.00000000000E+00 -0.00000000000E+00 -0.74505805969E-08  0.93827000000E+00  0.93827000000E+00 0.  1.
     999902    2    1    2    0    0 -0.16318086599E-01  0.10190795807E-01  0.10710244139E-01  0.10219108811E+01  0.10216736305E+01 0.  0.
     999903    2    3    3    0    0 -0.10350624197E+00 -0.49078685499E-01  0.66333634974E-01  0.13387450373E+00  0.19999303053E-01 0.  0.
         14    1    1    2    0    0  0.16318086599E-01 -0.10190795807E-01 -0.10710244139E-01  0.22019118941E-01  0.00000000000E+00 0. -1.
     999901    1    3    3    0    0  0.87188155373E-01  0.59269481306E-01 -0.55623390835E-01  0.88803637733E+00  0.88000000000E+00 0.  1.
        -11    1    4    4    0    0 -0.26667661839E-01 -0.20543965438E-01  0.25899292485E-01  0.42476501458E-01  0.51100000000E-03 0.  1.
         11    1    4    4    0    0 -0.76838580133E-01 -0.28534720061E-01  0.40434342489E-01  0.91398002272E-01  0.51100000000E-03 0. -1.
</event>
<event>
 8    1  0.1109294E+005  0.1043930E+01  0.7957747E-01            NaN
         13   -1    0    0    0    0  0.00000000000E+00  0.00000000000E+00  0.74505805969E-08  0.10566000000E+00  0.10566000000E+00 0.  1.
     999900   -1    0    0    0    0 -0.00000000000E+00 -0.00000000000E+00 -0.74505805969E-08  0.93827000000E+00  0.93827000000E+00 0. -1.
     999902    2    1    2    0    0  0.13504340500E-01  0.99632613392E-02 -0.15147781742E-01  0.10213227206E+01  0.10210724806E+01 0.  0.
     999903    2    3    3    0    0 -0.81508202525E-01  0.84207713635E-01  0.53703773841E-01  0.13043543329E+00  0.19869092062E-01 0.  0.
         14    1    1    2    0    0 -0.13504340500E-01 -0.99632613392E-02  0.15147781742E-01  0.22607279371E-01  0.00000000000E+00 0.  1.
     999901    1    3    3    0    0  0.95012543025E-01 -0.74244452296E-01 -0.68851555583E-01  0.89088728733E+00  0.88000000000E+00 0.  1.
        -11    1    4    4    0    0 -0.78889054557E-02  0.17712969983E-01  0.56391216210E-02  0.20200122488E-01  0.51100000000E-03 0.  1.
         11    1    4    4    0    0 -0.73619297070E-01  0.66494743653E-01  0.48064652220E-01  0.11023531081E+00  0.51100000000E-03 0. -1.
</event>
<event>
 8    1  0.1109294E+005  0.1043930E+01  0.7957747E-01            NaN
         13   -1    0    0    0    0  0.00000000000E+00  0.00000000000E+00  0.74505805969E-08  0.10566000000E+00  0.10566000000E+00 0.  1.
     999900   -1    0    0    0    0 -0.00000000000E+00 -0.00000000000E+00 -0.74505805969E-08  0.93827000000E+00  0.93827000000E+00 0.  1.
     999902    2    1    2    0    0 -0.13874638484E-02 -0.20241936231E-01 -0.12341271970E-01  0.10201819889E+01  0.10199055458E+01 0.  0.
     999903    2    3    3    0    0  0.11528453156E+00 -0.24024037848E-01 -0.54801124811E-01  0.13145846724E+00  0.20260496478E-01 0.  0.
         14    1    1    2    0    0  0.13874638484E-02  0.20241936231E-01  0.12341271970E-01  0.23748011120E-01  0.00000000000E+00 0.  1.
     999901    1    3    3    0    0 -0.11667199541E+00  0.37821016169E-02  0.42459852841E-01  0.88872352164E+00  0.88000000000E+00 0.  1.
        -11    1    4    4    0    0  0.26363443207E-01  0.22717626005E-02 -0.83953424612E-02  0.27765715173E-01  0.51100000000E-03 0.  1.
         11    1    4    4    0    0  0.88921088356E-01 -0.26295800449E-01 -0.46405782349E-01  0.10369275207E+00  0.51100000000E-03 0. -1.
</event>
<event>
 8    1  0.1109294E+005  0.1043930E+01  0.7957747E-01            NaN
         13   -1    0    0    0    0  0.00000000000E+00  0.00000000000E+00  0.74505805969E-08  0.10566000000E+00  0.10566000000E+00 0. -1.
     999900   -1    0    0    0    0 -0.00000000000E+00 -0.00000000000E+00 -0.74505805969E-08  0.93827000000E+00  0.93827000000E+00 0.  1.
     999902    2    1    2    0    0 -0.18387399034E-01 -0.77844333489E-02 -0.12919519879E-01  0.10201474888E+01  0.10198702324E+01 0.  0.
     999903    2    3    3    0    0  0.29775926100E-02  0.59121046298E-01 -0.11536327359E+00  0.13142507501E+00  0.21440645361E-01 0.  0.
         14    1    1    2    0    0  0.18387399034E-01  0.77844333489E-02  0.12919519879E-01  0.23782511215E-01  0.00000000000E+00 0. -1.
     999901    1    3    3    0    0 -0.21364991644E-01 -0.66905479647E-01  0.10244375371E+00  0.88872241378E+00  0.88000000000E+00 0. -1.
        -11    1    4    4    0    0  0.99737365934E-02  0.13453435232E-01 -0.31024810652E-01  0.35260038829E-01  0.51100000000E-03 0.  1.
         11    1    4    4    0    0 -0.69961439834E-02  0.45667611065E-01 -0.84338462941E-01  0.96165036179E-01  0.51100000000E-03 0. -1.
</event>
<event>
 8    1  0.1109294E+005  0.1043930E+01  0.7957747E-01            NaN
         13   -1    0    0    0    0  0.00000000000E+00  0.00000000000E+00  0.74505805969E-08  0.10566000000E+00  0.10566000000E+00 0.  1.
     999900   -1    0    0    0    0 -0.00000000000E+00 -0.00000000000E+00 -0.74505805969E-08  0.93827000000E+00  0.93827000000E+00 0. -1.
     999902    2    1    2    0    0 -0.16469506065E-01 -0.36903732796E-02 -0.15926875894E-01  0.10207237754E+01  0.10204599437E+01 0.  0.
     999903    2    3    3    0    0  0.52115280875E-01  0.92945553055E-01 -0.73531563493E-01  0.13091442767E+00  0.19411805909E-01 0.  0.
         14    1    1    2    0    0  0.16469506065E-01  0.36903732796E-02  0.15926875894E-01  0.23206224611E-01  0.00000000000E+00 0.  1.
     999901    1    3    3    0    0 -0.68584786939E-01 -0.96635926334E-01  0.57604687598E-01  0.88980934772E+00  0.88000000000E+00 0.  1.
        -11    1    4    4    0    0  0.50407942115E-02  0.13903686893E-01 -0.32737924810E-02  0.15155888417E-01  0.51100000000E-03 0. -1.
         11    1    4    4    0    0  0.47074486663E-01  0.79041866161E-01 -0.70257771012E-01  0.11575853925E+00  0.51100000000E-03 0.  1.
</event>
<event>
 8    1  0.1109294E+005  0.1043930E+01  0.7957747E-01            NaN
         13   -1    0    0    0    0  0.00000000000E+00  0.00000000000E+00  0.74505805969E-08  0.10566000000E+00  0.10566000000E+00 0.  1.
     999900   -1    0    0    0    0 -0.00000000000E+00 -0.00000000000E+00 -0.74505805969E-08  0.93827000000E+00  0.93827000000E+00 0. -1.
     999902    2    1    2    0    0  0.77881657176E-02 -0.20734167075E-01  0.21575172434E-01  0.10130099535E+01  0.10125379581E+01 0.  0.
     999903    2    3    3    0    0  0.30748814862E-01  0.92514154911E-01 -0.68873864292E-01  0.12085895615E+00  0.18945174186E-01 0.  0.
         14    1    1    2    0    0 -0.77881657176E-02  0.20734167075E-01 -0.21575172434E-01  0.30920046493E-01  0.00000000000E+00 0. -1.
     999901    1    3    3    0    0 -0.22960649144E-01 -0.11324832199E+00  0.90449036725E-01  0.89215099736E+00  0.88000000000E+00 0.  1.
        -11    1    4    4    0    0  0.74085534237E-02  0.49768109194E-01 -0.30387437821E-01  0.58782725821E-01  0.51100000000E-03 0.  1.
         11    1    4    4    0    0  0.23340261438E-01  0.42746045717E-01 -0.38486426470E-01  0.62076230329E-01  0.51100000000E-03 0. -1.
</event>
<event>
 8    1  0.1109294E+005  0.1043930E+01  0.7957747E-01            NaN
         13   -1    0    0    0    0  0.00000000000E+00  0.00000000000E+00  0.74505805969E-08  0.10566000000E+00  0.10566000000E+00 0. -1.
     999900   -1    0    0    0    0 -0.00000000000E+00 -0.00000000000E+00 -0.74505805969E-08  0.93827000000E+00  0.93827000000E+00 0. -1.
     999902    2    1    2    0    0  0.23660056825E-01  0.11316801008E-02  0.32119626576E-02  0.10200261155E+01  0.10197459883E+01 0.  0.
     999903    2    3    3    0    0  0.96328859242E-01  0.61320009666E-01 -0.65598490387E-01  0.13231092003E+00  0.12791595313E-01 0.  0.
         14    1    1    2    0    0 -0.23660056825E-01 -0.11316801008E-02 -0.32119626576E-02  0.23903884474E-01  0.00000000000E+00 0. -1.
     999901    1    3    3    0    0 -0.72668802417E-01 -0.60188329565E-01  0.68810453045E-01  0.88771519549E+00  0.88000000000E+00 0. -1.
        -11    1    4    4    0    0  0.25917192376E-01  0.19224252076E-01 -0.12610739741E-01  0.34649164583E-01  0.51100000000E-03 0. -1.
         11    1    4    4    0    0  0.70411666867E-01  0.42095757590E-01 -0.52987750647E-01  0.97661755450E-01  0.51100000000E-03 0.  1.
</event>
<event>
 8    1  0.1109294E+005  0.1043930E+01  0.7957747E-01            NaN
         13   -1    0    0    0    0  0.00000000000E+00  0.00000000000E+00  0.74505805969E-08  0.10566000000E+00  0.10566000000E+00 0.  1.
     999900   -1    0    0    0    0 -0.00000000000E+00 -0.00000000000E+00 -0.74505805969E-08  0.93827000000E+00  0.93827000000E+00 0. -1.
     999902    2    1    2    0    0  0.18132273530E-01 -0.15080591414E-01 -0.42272066987E-02  0.10199701824E+01  0.10196887271E+01 0.  0.
     999903    2    3    3    0    0 -0.84085905709E-02  0.12621961292E+00  0.77303556854E-02  0.12822293770E+00  0.19474811217E-01 0.  0.
         14    1    1    2    0    0 -0.18132273530E-01  0.15080591414E-01  0.42272066987E-02  0.23959817554E-01  0.00000000000E+00 0. -1.
     999901    1    3    3    0    0  0.26540864101E-01 -0.14130020434E+00 -0.11957562384E-01  0.89174724475E+00  0.88000000000E+00 0.  1.
        -11    1    4    4    0    0 -0.42292359007E-02  0.85083659668E-01 -0.38624846049E-02  0.85277754937E-01  0.51100000000E-03 0.  1.
         11    1    4    4    0    0 -0.41793546701E-02  0.41135953255E-01  0.11592840290E-01  0.42945182764E-01  0.51100000000E-03 0. -1.
</event>
<event>
 8    1  0.1109294E+005  0.1043930E+01  0.7957747E-01            NaN
         13   -1    0    0    0    0  0.00000000000E+00  0.00000000000E+00  0.74505805969E-08  0.10566000000E+00  0.10566000000E+00 0. -1.
     999900   -1    0    0    0    0 -0.00000000000E+00 -0.00000000000E+00 -0.74505805969E-08  0.93827000000E+00  0.93827000000E+00 0.  1.
     999902    2    1    2    0    0 -0.15276351053E-01 -0.71496202777E-02 -0.16475935628E-01  0.10203516110E+01  0.10200791487E+01 0.  0.
     999903    2    3    3    0    0  0.22039536012E-01  0.11902099328E+00  0.39265721975E-01  0.12882559821E+00  0.20062398725E-01 0.  0.
         14    1    1    2    0    0  0.15276351053E-01  0.71496202777E-02  0.16475935628E-01  0.23578388970E-01  0.00000000000E+00 0. -1.
     999901    1    3    3    0    0 -0.37315887065E-01 -0.12617061355E+00 -0.55741657602E-01  0.89152601283E+00  0.88000000000E+00 0. -1.
        -11    1    4    4    0    0  0.16010028170E-01  0.59503692246E-01  0.29086167145E-01  0.68141592534E-01  0.51100000000E-03 0. -1.
         11    1    4    4    0    0  0.60295078424E-02  0.59517301030E-01  0.10179554830E-01  0.60684005671E-01  0.51100000000E-03 0.  1.
</event>
<event>
 8    1  0.1109294E+005  0.1043930E+01  0.7957747E-01            NaN
         13   -1    0    0    0    0  0.00000000000E+00  0.00000000000E+00  0.74505805969E-08  0.10566000000E+00  0.10566000000E+00 0. -1.
     999900   -1    0    0    0    0 -0.00000000000E+00 -0.00000000000E+00 -0.74505805969E-08  0.93827000000E+00  0.93827000000E+00 0. -1.
     999902    2    1    2    0    0 -0.15685773065E-02  0.20197644163E-01 -0.14681224489E-01  0.10189111348E+01  0.10186039255E+01 0.  0.
     999903    2    3    3    0    0 -0.46537092713E-01 -0.10487384097E-01  0.11644731521E+00  0.12753106306E+00  0.20700449292E-01 0.  0.
         14    1    1    2    0    0  0.15685773065E-02 -0.20197644163E-01  0.14681224489E-01  0.25018865222E-01  0.00000000000E+00 0. -1.
     999901    1    3    3    0    0  0.44968515407E-01  0.30685028260E-01 -0.13112853970E+00  0.89138007172E+00  0.88000000000E+00 0. -1.
        -11    1    4    4    0    0 -0.21641574850E-01 -0.14546316403E-01  0.69527644704E-01  0.74258383917E-01  0.51100000000E-03 0. -1.
         11    1    4    4    0    0 -0.24895517863E-01  0.40589323061E-02  0.46919670508E-01  0.53272679139E-01  0.51100000000E-03 0.  1.
</event>
<event>
 8    1  0.1109294E+005  0.1043930E+01  0.7957747E-01            NaN
         13   -1    0    0    0    0  0.00000000000E+00  0.00000000000E+00  0.74505805969E-08  0.10566000000E+00  0.10566000000E+00 0. -1.
     999900   -1    0    0    0    0 -0.00000000000E+00 -0.00000000000E+00 -0.74505805969E-08  0.93827000000E+00  0.93827000000E+00 0.  1.
     999902    2    1    2    0    0 -0.15811345124E-01  0.11477156293E-01 -0.12713872149E-01  0.10206197813E+01  0.10203535523E+01 0.  0.
     999903    2    3    3    0    0 -0.65689417977E-02 -0.18691053441E-01 -0.12934616613E+00  0.13236383006E+00  0.19931039640E-01 0.  0.
         14    1    1    2    0    0  0.15811345124E-01 -0.11477156293E-01  0.12713872149E-01  0.23310218709E-01  0.00000000000E+00 0. -1.
     999901    1    3    3    0    0 -0.92424033266E-02  0.30168209734E-01  0.11663229398E+00  0.88825595123E+00  0.88000000000E+00 0. -1.
        -11    1    4    4    0    0  0.48261441755E-02 -0.10842186328E-01 -0.33951869025E-01  0.35969920813E-01  0.51100000000E-03 0.  1.
         11    1    4    4    0    0 -0.11395085973E-01 -0.78488671132E-02 -0.95394297103E-01  0.96393909248E-01  0.51100000000E-03 0. -1.
</event>
<event>
 8    1  0.1109294E+005  0.1043930E+01  0.7957747E-01            NaN
         13   -1    0    0    0    0  0.00000000000E+00  0.00000000000E+00  0.74505805969E-08  0.10566000000E+00  0.10566000000E+00 0. -1.
     999900   -1    0    0    0    0 -0.00000000000E+00 -0.00000000000E+00 -0.74505805969E-08  0.93827000000E+00  0.93827000000E+00 0.  1.
     999902    2    1    2    0    0  0.11423099202E-01 -0.10644285608E-01 -0.17478103328E-01  0.10204934451E+01  0.10202242887E+01 0.  0.
     999903    2    3    3    0    0 -0.52643852390E-01 -0.83072327912E-01  0.82009297370E-01  0.12962412889E+00  0.20112261829E-01 0.  0.
         14    1    1    2    0    0 -0.11423099202E-01  0.10644285608E-01  0.17478103328E-01  0.23436554940E-01  0.00000000000E+00 0. -1.
     999901    1    3    3    0    0  0.64066951592E-01  0.72428042303E-01 -0.99487400698E-01  0.89086931617E+00  0.88000000000E+00 0.  1.
        -11    1    4    4    0    0 -0.37187882575E-01 -0.44607708900E-01  0.56031312407E-01  0.80700405171E-01  0.51100000000E-03 0.  1.
         11    1    4    4    0    0 -0.15455969815E-01 -0.38464619012E-01  0.25977984963E-01  0.48923723717E-01  0.51100000000E-03 0. -1.
</event>
<event>
 8    1  0.1109294E+005  0.1043930E+01  0.7957747E-01            NaN
         13   -1    0    0    0    0  0.00000000000E+00  0.00000000000E+00  0.74505805969E-08  0.10566000000E+00  0.10566000000E+00 0.  1.
     999900   -1    0    0    0    0 -0.00000000000E+00 -0.00000000000E+00 -0.74505805969E-08  0.93827000000E+00  0.93827000000E+00 0. -1.
     999902    2    1    2    0    0  0.21739619635E-01 -0.94499003734E-02  0.21721992567E-02  0.10201260060E+01  0.10198482427E+01 0.  0.
     999903    2    3    3    0    0  0.98872609694E-01 -0.84580404312E-01  0.21375063083E-01  0.13335498669E+00  0.19925396151E-01 0.  0.
         14    1    1    2    0    0 -0.21739619635E-01  0.94499003734E-02 -0.21721992567E-02  0.23803993962E-01  0.00000000000E+00 0. -1.
     999901    1    3    3    0    0 -0.77132990059E-01  0.75130503939E-01 -0.19202863827E-01  0.88677101935E+00  0.88000000000E+00 0. -1.
        -11    1    4    4    0    0  0.23246625648E-01 -0.24971406142E-01 -0.22792877939E-02  0.34196973588E-01  0.51100000000E-03 0.  1.
         11    1    4    4    0    0  0.75625984046E-01 -0.59608998170E-01  0.23654350877E-01  0.99158013101E-01  0.51100000000E-03 0. -1.
</event>
<event>
 8    1  0.1109294E+005  0.1043930E+01  0.7957747E-01            NaN
         13   -1    0    0    0    0  0.00000000000E+00  0.00000000000E+00  0.74505805969E-08  0.10566000000E+00  0.10566000000E+00 0.  1.
     999900   -1    0    0    0    0 -0.00000000000E+00 -0.00000000000E+00 -0.74505805969E-08  0.93827000000E+00  0.93827000000E+00 0. -1.
     999902    2    1    2    0    0 -0.29284902869E-02  0.22793117465E-01 -0.21923185228E-02  0.10208451886E+01  0.10205841418E+01 0.  0.
     999903    2    3    3    0    0  0.11407412152E+00  0.58128087879E-02 -0.61003121906E-01  0.13099314880E+00  0.19777011987E-01 0.  0.
         14    1    1    2    0    0  0.29284902869E-02 -0.22793117465E-01  0.21923185228E-02  0.23084811449E-01  0.00000000000E+00 0.  1.
     999901    1    3    3    0    0 -0.11700261181E+00  0.16980308677E-01  0.58810803383E-01  0.88985203975E+00  0.88000000000E+00 0.  1.
        -11    1    4    4    0    0  0.85574324355E-01 -0.25872559710E-02 -0.39351460989E-01  0.94225567046E-01  0.51100000000E-03 0. -1.
         11    1    4    4    0    0  0.28499797169E-01  0.84000647590E-02 -0.21651660917E-01  0.36767581754E-01  0.51100000000E-03 0.  1.
</event>
<event>
 8    1  0.1109294E+005  0.1043930E+01  0.7957747E-01            NaN
         13   -1    0    0    0    0  0.00000000000E+00  0.00000000000E+00  0.74505805969E-08  0.10566000000E+00  0.10566000000E+00 0.  1.
     999900   -1    0    0    0    0 -0.00000000000E+00 -0.00000000000E+00 -0.74505805969E-08  0.93827000000E+00  0.93827000000E+00 0.  1.
     999902    2    1    2    0    0  0.14224046031E-01  0.10652952948E-01 -0.15560827447E-01  0.10203090719E+01  0.10200356141E+01 0.  0.
     999903    2    3    3    0    0 -0.12428873230E+00  0.18544740069E-01  0.19786061718E-01  0.12873884327E+00  0.19763733642E-01 0.  0.
         14    1    1    2    0    0 -0.14224046031E-01 -0.10652952948E-01  0.15560827447E-01  0.23620928069E-01  0.00000000000E+00 0.  1.
     999901    1    3    3    0    0  0.13851277833E+00 -0.78917871215E-02 -0.35346889165E-01  0.89157022866E+00  0.88000000000E+00 0.  1.
        -11    1    4    4    0    0 -0.91354078077E-01  0.22324836772E-01  0.15361568403E-01  0.95290108736E-01  0.51100000000E-03 0.  1.
         11    1    4    4    0    0 -0.32934654220E-01 -0.37800967029E-02  0.44244933146E-02  0.33448734532E-01  0.51100000000E-03 0. -1.
</event>
<event>
 8    1  0.1109294E+005  0.1043930E+01  0.7957747E-01            NaN
         13   -1    0    0    0    0  0.00000000000E+00  0.00000000000E+00  0.74505805969E-08  0.10566000000E+00  0.10566000000E+00 0.  1.
     999900   -1    0    0    0    0 -0.00000000000E+00 -0.00000000000E+00 -0.74505805969E-08  0.93827000000E+00  0.93827000000E+00 0. -1.
     999902    2    1    2    0    0 -0.11414874975E-02  0.11004021004E-01 -0.22399023301E-01  0.10189478520E+01  0.10186415549E+01 0.  0.
     999903    2    3    3    0    0 -0.91290393287E-01 -0.75615320033E-01  0.43025854009E-01  0.12770705964E+00  0.20155804105E-01 0.  0.
         14    1    1    2    0    0  0.11414874975E-02 -0.11004021004E-01  0.22399023301E-01  0.24982147963E-01  0.00000000000E+00 0.  1.
     999901    1    3    3    0    0  0.90148905790E-01  0.86619341038E-01 -0.65424877311E-01  0.89124079239E+00  0.88000000000E+00 0. -1.
        -11    1    4    4    0    0 -0.27432728759E-01 -0.17151659008E-01  0.20286910903E-01  0.38191018432E-01  0.51100000000E-03 0.  1.
         11    1    4    4    0    0 -0.63857664528E-01 -0.58463661025E-01  0.22738943106E-01  0.89516041211E-01  0.51100000000E-03 0. -1.
</event>
<event>
 8    1  0.1109294E+005  0.1043930E+01  0.7957747E-01            NaN
         13   -1    0    0    0    0  0.00000000000E+00  0.00000000000E+00  0.74505805969E-08  0.10566000000E+00  0.10566000000E+00 0. -1.
     999900   -1    0    0    0    0 -0.00000000000E+00 -0.00000000000E+00 -0.74505805969E-08  0.93827000000E+00  0.93827000000E+00 0. -1.
     999902    2    1    2    0    0  0.10427867300E-01  0.83982572759E-02  0.16882498940E-01  0.10223826124E+01  0.10221555245E+01 0.  0.
     999903    2    3    3    0    0  0.80397080716E-01 -0.69668288168E-01 -0.74900953136E-01  0.13142005516E+00  0.18539610378E-01 0.  0.
         14    1    1    2    0    0 -0.10427867300E-01 -0.83982572759E-02 -0.16882498940E-01  0.21547387595E-01  0.00000000000E+00 0.  1.
     999901    1    3    3    0    0 -0.69969213416E-01  0.78066545444E-01  0.91783452076E-01  0.89096255725E+00  0.88000000000E+00 0.  1.
        -11    1    4    4    0    0  0.45012462350E-01 -0.40196884813E-01 -0.53447027930E-01  0.80614869788E-01  0.51100000000E-03 0. -1.
         11    1    4    4    0    0  0.35384618365E-01 -0.29471403355E-01 -0.21453925206E-01  0.50805185369E-01  0.51100000000E-03 0.  1.
</event>
<event>
 8    1  0.1109294E+005  0.1043930E+01  0.7957747E-01            NaN
         13   -1    0    0    0    0  0.00000000000E+00  0.00000000000E+00  0.74505805969E-08  0.10566000000E+00  0.10566000000E+00 0. -1.
     999900   -1    0    0    0    0 -0.00000000000E+00 -0.00000000000E+00 -0.74505805969E-08  0.93827000000E+00  0.93827000000E+00 0. -1.
     999902    2    1    2    0    0 -0.69046222650E-02  0.34219666865E-02 -0.22062110850E-01  0.10205607809E+01  0.10202931869E+01 0.  0.
     999903    2    3    3    0    0  0.27076532879E-01 -0.86357324429E-01 -0.94522195100E-01  0.13237977245E+00  0.19980807601E-01 0.  0.
         14    1    1    2    0    0  0.69046222650E-02 -0.34219666865E-02  0.22062110850E-01  0.23369219067E-01  0.00000000000E+00 0. -1.
     999901    1    3    3    0    0 -0.33981155144E-01  0.89779291116E-01  0.72460084250E-01  0.88818100848E+00  0.88000000000E+00 0.  1.
        -11    1    4    4    0    0  0.23659595533E-01 -0.46084405032E-01 -0.46532030473E-01  0.69635047418E-01  0.51100000000E-03 0.  1.
         11    1    4    4    0    0  0.34169373466E-02 -0.40272919397E-01 -0.47990164628E-01  0.62744725034E-01  0.51100000000E-03 0. -1.
</event>
<event>
 8    1  0.1109294E+005  0.1043930E+01  0.7957747E-01            NaN
         13   -1    0    0    0    0  0.00000000000E+00  0.00000000000E+00  0.74505805969E-08  0.10566000000E+00  0.10566000000E+00 0.  1.
     999900   -1    0    0    0    0 -0.00000000000E+00 -0.00000000000E+00 -0.74505805969E-08  0.93827000000E+00  0.93827000000E+00 0.  1.
     999902    2    1    2    0    0  0.12962402790E-01 -0.19297891816E-01  0.31742988535E-02  0.10204670784E+01  0.10201973091E+01 0.  0.
     999903    2    3    3    0    0  0.12370587885E-01  0.19931443560E-01 -0.12632354782E+00  0.13012501873E+00  0.20605530307E-01 0.  0.
         14    1    1    2    0    0 -0.12962402790E-01  0.19297891816E-01 -0.31742988535E-02  0.23462921554E-01  0.00000000000E+00 0.  1.
     999901    1    3    3    0    0  0.59181490530E-03 -0.39229335375E-01  0.12949784668E+00  0.89034205971E+00  0.88000000000E+00 0. -1.
        -11    1    4    4    0    0  0.12288267012E-01  0.22356322734E-01 -0.85499389727E-01  0.89225632175E-01  0.51100000000E-03 0. -1.
         11    1    4    4    0    0  0.82320872812E-04 -0.24248791747E-02 -0.40824158095E-01  0.40899386559E-01  0.51100000000E-03 0.  1.
</event>
<event>
 8    1  0.1109294E+005  0.1043930E+01  0.7957747E-01            NaN
         13   -1    0    0    0    0  0.00000000000E+00  0.00000000000E+00  0.74505805969E-08  0.10566000000E+00  0.10566000000E+00 0. -1.
     999900   -1    0    0    0    0 -0.00000000000E+00 -0.00000000000E+00 -0.74505805969E-08  0.93827000000E+00  0.93827000000E+00 0. -1.
     999902    2    1    2    0    0 -0.26016772894E-03 -0.26751683564E-01  0.25716335243E-01  0.10068213735E+01  0.10061372809E+01 0.  0.
     999903    2    3    3    0    0  0.91141077887E-01  0.66375888006E-01  0.25893023925E-01  0.11719956426E+00  0.18783891738E-01 0.  0.
         14    1    1    2    0    0  0.26016772894E-03  0.26751683564E-01 -0.25716335243E-01  0.37108626478E-01  0.00000000000E+00 0.  1.
     999901    1    3    3    0    0 -0.91401245616E-01 -0.93127571570E-01 -0.17668868160E-03  0.88962180926E+00  0.88000000000E+00 0.  1.
        -11    1    4    4    0    0  0.30071220723E-01  0.17745115084E-01  0.16320990594E-01  0.38546118872E-01  0.51100000000E-03 0.  1.
         11    1    4    4    0    0  0.61069857165E-01  0.48630772922E-01  0.95720333308E-02  0.78653445393E-01  0.51100000000E-03 0. -1.
</event>
<event>
 8    1  0.1109294E+005  0.1043930E+01  0.7957747E-01            NaN
         13   -1    0    0    0    0  0.00000000000E+00  0.00000000000E+00  0.74505805969E-08  0.10566000000E+00  0.10566000000E+00 0. -1.
     999900   -1    0    0    0    0 -0.00000000000E+00 -0.00000000000E+00 -0.74505805969E-08  0.93827000000E+00  0.93827000000E+00 0. -1.
     999902    2    1    2    0    0 -0.19474717458E-01  0.11068187241E-01  0.21787447509E-02  0.10214240826E+01  0.10211761064E+01 0.  0.
     999903    2    3    3    0    0 -0.71491681506E-01  0.55059445775E-03 -0.10997807439E+00  0.13271966809E+00  0.20198261652E-01 0.  0.
         14    1    1    2    0    0  0.19474717458E-01 -0.11068187241E-01 -0.21787447509E-02  0.22505917390E-01  0.00000000000E+00 0.  1.
     999901    1    3    3    0    0  0.52016964048E-01  0.10517592783E-01  0.11215681914E+00  0.88870441452E+00  0.88000000000E+00 0.  1.
        -11    1    4    4    0    0 -0.40666090586E-01  0.37639219758E-02 -0.45276499026E-01  0.60976393114E-01  0.51100000000E-03 0.  1.
         11    1    4    4    0    0 -0.30825590920E-01 -0.32133275181E-02 -0.64701575360E-01  0.71743274977E-01  0.51100000000E-03 0. -1.
</event>
<event>
 8    1  0.1109294E+005  0.1043930E+01  0.7957747E-01            NaN
         13   -1    0    0    0    0  0.00000000000E+00  0.00000000000E+00  0.74505805969E-08  0.10566000000E+00  0.10566000000E+00 0. -1.
     999900   -1    0    0    0    0 -0.00000000000E+00 -0.00000000000E+00 -0.74505805969E-08  0.93827000000E+00  0.93827000000E+00 0. -1.
     999902    2    1    2    0    0 -0.13028812919E-01 -0.54982220620E-02 -0.18944913847E-01  0.10202891419E+01  0.10200152170E+01 0.  0.
     999903    2    3    3    0    0  0.79153305239E-01  0.54126294413E-01 -0.86798023603E-01  0.13087547526E+00  0.19989788531E-01 0.  0.
         14    1    1    2    0    0  0.13028812919E-01  0.54982220620E-02  0.18944913847E-01  0.23640858119E-01  0.00000000000E+00 0. -1.
     999901    1    3    3    0    0 -0.92182118158E-01 -0.59624516475E-01  0.67853109756E-01  0.88941366662E+00  0.88000000000E+00 0.  1.
        -11    1    4    4    0    0  0.22571832257E-01  0.13292479537E-01 -0.12777891901E-01  0.29149841614E-01  0.51100000000E-03 0.  1.
         11    1    4    4    0    0  0.56581472982E-01  0.40833814876E-01 -0.74020131702E-01  0.10172563364E+00  0.51100000000E-03 0. -1.
</event>
<event>
 8    1  0.1109294E+005  0.1043930E+01  0.7957747E-01            NaN
         13   -1    0    0    0    0  0.00000000000E+00  0.00000000000E+00  0.74505805969E-08  0.10566000000E+00  0.10566000000E+00 0. -1.
     999900   -1    0    0    0    0 -0.00000000000E+00 -0.00000000000E+00 -0.74505805969E-08  0.93827000000E+00  0.93827000000E+00 0.  1.
     999902    2    1    2    0    0  0.25216475360E-01 -0.68023148154E-02 -0.12178723312E-01  0.10151122378E+01  0.10147031053E+01 0.  0.
     999903    2    3    3    0    0 -0.91431942745E-02 -0.83921970257E-01  0.90256718378E-01  0.12515659404E+00  0.19783900685E-01 0.  0.
         14    1    1    2    0    0 -0.25216475360E-01  0.68023148154E-02  0.12178723312E-01  0.28817762195E-01  0.00000000000E+00 0. -1.
     999901    1    3    3    0    0  0.34359669635E-01  0.77119655441E-01 -0.10243544169E+00  0.88995564376E+00  0.88000000000E+00 0.  1.
        -11    1    4    4    0    0 -0.14290872831E-01 -0.74816994488E-01  0.80850109405E-01  0.11108020986E+00  0.51100000000E-03 0. -1.
         11    1    4    4    0    0  0.51476785570E-02 -0.91049757689E-02  0.94066089727E-02  0.14076384182E-01  0.51100000000E-03 0.  1.
</event>
<event>
 8    1  0.1109294E+005  0.1043930E+01  0.7957747E-01            NaN
         13   -1    0    0    0    0  0.00000000000E+00  0.00000000000E+00  0.74505805969E-08  0.10566000000E+00  0.10566000000E+00 0. -1.
     999900   -1    0    0    0    0 -0.00000000000E+00 -0.00000000000E+00 -0.74505805969E-08  0.93827000000E+00  0.93827000000E+00 0.  1.
     999902    2    1    2    0    0 -0.91065535314E-02  0.22590507998E-01  0.60580387767E-02  0.10188309920E+01  0.10185217867E+01 0.  0.
     999903    2    3    3    0    0  0.63613314074E-01 -0.32464166900E-01  0.10509904682E+00  0.12859039663E+00  0.19725734521E-01 0.  0.
         14    1    1    2    0    0  0.91065535314E-02 -0.22590507998E-01 -0.60580387767E-02  0.25099008002E-01  0.00000000000E+00 0.  1.
     999901    1    3    3    0    0 -0.72719867606E-01  0.55054674898E-01 -0.99041008043E-01  0.89024059537E+00  0.88000000000E+00 0.  1.
        -11    1    4    4    0    0  0.32749703429E-01 -0.75888534012E-02  0.38775020898E-01  0.51321507550E-01  0.51100000000E-03 0.  1.
         11    1    4    4    0    0  0.30863610645E-01 -0.24875313498E-01  0.66324025922E-01  0.77268889077E-01  0.51100000000E-03 0. -1.
</event>
<event>
 8    1  0.1109294E+005  0.1043930E+01  0.7957747E-01            NaN
         13   -1    0    0    0    0  0.00000000000E+00  0.00000000000E+00  0.74505805969E-08  0.10566000000E+00  0.10566000000E+00 0.  1.
     999900   -1    0    0    0    0 -0.00000000000E+00 -0.00000000000E+00 -0.74505805969E-08  0.93827000000E+00  0.93827000000E+00 0.  1.
     999902    2    1    2    0    0 -0.53204812441E-02 -0.21786154011E-01  0.18208044709E-02  0.10214297921E+01  0.10211819430E+01 0.  0.
     999903    2    3    3    0    0  0.83668715423E-01 -0.97115126962E-01  0.30388092611E-01  0.13328024317E+00  0.20208543273E-01 0.  0.
         14    1    1    2    0    0  0.53204812441E-02  0.21786154011E-01 -0.18208044709E-02  0.22500207914E-01  0.00000000000E+00 0. -1.
     999901    1    3    3    0    0 -0.88989196668E-01  0.75328972951E-01 -0.28567288140E-01  0.88814954892E+00  0.88000000000E+00 0. -1.
        -11    1    4    4    0    0  0.40156125090E-01 -0.61919432056E-01  0.17319396818E-01  0.75807341831E-01  0.51100000000E-03 0. -1.
         11    1    4    4    0    0  0.43512590334E-01 -0.35195694906E-01  0.13068695793E-01  0.57472901338E-01  0.51100000000E-03 0.  1.
</event>
<event>
 8    1  0.1109294E+005  0.1043930E+01  0.7957747E-01            NaN
         13   -1    0    0    0    0  0.00000000000E+00  0.00000000000E+00  0.74505805969E-08  0.10566000000E+00  0.10566000000E+00 0.  1.
     999900   -1    0    0    0    0 -0.00000000000E+00 -0.00000000000E+00 -0.74505805969E-08  0.93827000000E+00  0.93827000000E+00 0. -1.
     999902    2    1    2    0    0  0.54265421428E-02  0.21806393086E-01 -0.89143511784E-02  0.10197549758E+01  0.10194683805E+01 0.  0.
     999903    2    3    3    0    0  0.10851814040E+00  0.72697585054E-01  0.42752441285E-02  0.13217863739E+00  0.19793655568E-01 0.  0.
         14    1    1    2    0    0 -0.54265421428E-02 -0.21806393086E-01  0.89143511784E-02  0.24175024219E-01  0.00000000000E+00 0. -1.
     999901    1    3    3    0    0 -0.10309159826E+00 -0.50891191969E-01 -0.13189595307E-01  0.88757633839E+00  0.88000000000E+00 0. -1.
        -11    1    4    4    0    0  0.87973373016E-01  0.49273476751E-01  0.92947422201E-03  0.10083806283E+00  0.51100000000E-03 0.  1.
         11    1    4    4    0    0  0.20544767384E-01  0.23424108303E-01  0.33457699065E-02  0.31340574563E-01  0.51100000000E-03 0. -1.
</event>
<event>
 8    1  0.1109294E+005  0.1043930E+01  0.7957747E-01            NaN
         13   -1    0    0    0    0  0.00000000000E+00  0.00000000000E+00  0.74505805969E-08  0.10566000000E+00  0.10566000000E+00 0.  1.
     999900   -1    0    0    0    0 -0.00000000000E+00 -0.00000000000E+00 -0.74505805969E-08  0.93827000000E+00  0.93827000000E+00 0.  1.
     999902    2    1    2    0    0 -0.11130270094E-01  0.16109035374E-01  0.20329098612E-01  0.10157049015E+01  0.10153126567E+01 0.  0.
     999903    2    3    3    0    0  0.65551746257E-01 -0.66201185648E-01 -0.79016605020E-01  0.12299852598E+00  0.14331263273E-01 0.  0.
         14    1    1    2    0    0  0.11130270094E-01 -0.16109035374E-01 -0.20329098612E-01  0.28225098466E-01  0.00000000000E+00 0. -1.
     999901    1    3    3    0    0 -0.76682016351E-01  0.82310221022E-01  0.99345703632E-01  0.89270637555E+00  0.88000000000E+00 0. -1.
        -11    1    4    4    0    0  0.33166133396E-01 -0.26263167903E-01 -0.29223932815E-01  0.51420285519E-01  0.51100000000E-03 0. -1.
         11    1    4    4    0    0  0.32385612861E-01 -0.39938017745E-01 -0.49792672205E-01  0.71578240466E-01  0.51100000000E-03 0.  1.
</event>
<event>
 8    1  0.1109294E+005  0.1043930E+01  0.7957747E-01            NaN
         13   -1    0    0    0    0  0.00000000000E+00  0.00000000000E+00  0.74505805969E-08  0.10566000000E+00  0.10566000000E+00 0.  1.
     999900   -1    0    0    0    0 -0.00000000000E+00 -0.00000000000E+00 -0.74505805969E-08  0.93827000000E+00  0.93827000000E+00 0.  1.
     999902    2    1    2    0    0 -0.16986812397E-01 -0.16706027244E-01  0.10336171374E-02  0.10200823270E+01  0.10198035313E+01 0.  0.
     999903    2    3    3    0    0  0.93729843998E-01  0.52265811076E-01 -0.66915442696E-01  0.12787586706E+00  0.18909316253E-01 0.  0.
         14    1    1    2    0    0  0.16986812397E-01  0.16706027244E-01 -0.10336171374E-02  0.23847672970E-01  0.00000000000E+00 0. -1.
     999901    1    3    3    0    0 -0.11071665640E+00 -0.68971838320E-01  0.67949059834E-01  0.89220645997E+00  0.88000000000E+00 0. -1.
        -11    1    4    4    0    0  0.55820858856E-01  0.40734024472E-01 -0.38421747827E-01  0.79067824431E-01  0.51100000000E-03 0.  1.
         11    1    4    4    0    0  0.37908985142E-01  0.11531786604E-01 -0.28493694869E-01  0.48808042627E-01  0.51100000000E-03 0. -1.
</event>
<event>
 8    1  0.1109294E+005  0.1043930E+01  0.7957747E-01            NaN
         13   -1    0    0    0    0  0.00000000000E+00  0.00000000000E+00  0.74505805969E-08  0.10566000000E+00  0.10566000000E+00 0.  1.
     999900   -1    0    0    0    0 -0.00000000000E+00 -0.00000000000E+00 -0.74505805969E-08  0.93827000000E+00  0.93827000000E+00 0.  1.
     999902    2    1    2    0    0 -0.41740009698E-02  0.15115783549E-01 -0.17362462799E-01  0.10205341818E+01  0.10202659711E+01 0.  0.
     999903    2    3    3    0    0  0.29448684042E-01  0.39132769499E-01 -0.12244522711E+00  0.13331961476E+00  0.19562397519E-01 0.  0.
         14    1    1    2    0    0  0.41740009698E-02 -0.15115783549E-01  0.17362462799E-01  0.23395818234E-01  0.00000000000E+00 0.  1.
     999901    1    3    3    0    0 -0.33622685012E-01 -0.24016985950E-01  0.10508276431E+00  0.88721456701E+00  0.88000000000E+00 0. -1.
        -11    1    4    4    0    0  0.21863875868E-02  0.12759571413E-01 -0.48644257912E-01  0.50339963272E-01  0.51100000000E-03 0.  1.
         11    1    4    4    0    0  0.27262296455E-01  0.26373198085E-01 -0.73800969195E-01  0.82979651484E-01  0.51100000000E-03 0. -1.
</event>
<event>
 8    1  0.1233226E+005  0.1043930E+01  0.7957747E-01            NaN
         13   -1    0    0    0    0  0.00000000000E+00  0.00000000000E+00  0.74505805969E-08  0.10566000000E+00  0.10566000000E+00 0.  1.
     999900   -1    0    0    0    0 -0.00000000000E+00 -0.00000000000E+00 -0.74505805969E-08  0.93827000000E+00  0.93827000000E+00 0.  1.
     999902    2    1    2    0    0 -0.90873171741E-02 -0.52421520478E-02  0.21346634027E-01  0.10201447467E+01  0.10198674256E+01 0.  0.
     999903    2    3    3    0    0 -0.93833586697E-01 -0.90272997347E-01  0.25474267050E-02  0.13179482404E+00  0.20234382074E-01 0.  0.
         14    1    1    2    0    0  0.90873171741E-02  0.52421520478E-02 -0.21346634027E-01  0.23785253327E-01  0.00000000000E+00 0. -1.
     999901    1    3    3    0    0  0.84746269523E-01  0.85030845299E-01  0.18799207322E-01  0.88834992264E+00  0.88000000000E+00 0.  1.
        -11    1    4    4    0    0 -0.36119400234E-01 -0.28782829920E-01  0.95699068923E-02  0.47168915722E-01  0.51100000000E-03 0.  1.
         11    1    4    4    0    0 -0.57714186463E-01 -0.61490167427E-01 -0.70224801873E-02  0.84625908316E-01  0.51100000000E-03 0. -1.
</event>
<event>
 8    1  0.1109294E+005  0.1043930E+01  0.7957747E-01            NaN
         13   -1    0    0    0    0  0.00000000000E+00  0.00000000000E+00  0.74505805969E-08  0.10566000000E+00  0.10566000000E+00 0. -1.
     999900   -1    0    0    0    0 -0.00000000000E+00 -0.00000000000E+00 -0.74505805969E-08  0.93827000000E+00  0.93827000000E+00 0.  1.
     999902    2    1    2    0    0 -0.15741404186E-01  0.96743594988E-02  0.13855844855E-01  0.10208352068E+01  0.10205739316E+01 0.  0.
     999903    2    3    3    0    0  0.52300931506E-01  0.74495803357E-01 -0.89080425750E-01  0.12986525507E+00  0.25389960004E-01 0.  0.
         14    1    1    2    0    0  0.15741404186E-01 -0.96743594988E-02 -0.13855844855E-01  0.23094793225E-01  0.00000000000E+00 0.  1.
     999901    1    3    3    0    0 -0.68042335692E-01 -0.64821443858E-01  0.10293627061E+00  0.89096995170E+00  0.88000000000E+00 0. -1.
        -11    1    4    4    0    0  0.23547015451E-02 -0.10852696338E-02 -0.75015243919E-02  0.79533903932E-02  0.51100000000E-03 0. -1.
         11    1    4    4    0    0  0.49946229961E-01  0.75581072991E-01 -0.81578901358E-01  0.12191186468E+00  0.51100000000E-03 0.  1.
</event>
<event>
 8    1  0.1109294E+005  0.1043930E+01  0.7957747E-01            NaN
         13   -1    0    0    0    0  0.00000000000E+00  0.00000000000E+00  0.74505805969E-08  0.10566000000E+00  0.10566000000E+00 0.  1.
     999900   -1    0    0    0    0 -0.00000000000E+00 -0.00000000000E+00 -0.74505805969E-08  0.93827000000E+00  0.93827000000E+00 0.  1.
     999902    2    1    2    0    0 -0.11181409706E-01  0.23185023943E-01 -0.48387391040E-02  0.10177387294E+01  0.10174016605E+01 0.  0.
     999903    2    3    3    0    0  0.98389573319E-01 -0.70369040166E-01 -0.28354622518E-01  0.12571229484E+00  0.19164720262E-01 0.  0.
         14    1    1    2    0    0  0.11181409706E-01 -0.23185023943E-01  0.48387391040E-02  0.26191270576E-01  0.00000000000E+00 0. -1.
     999901    1    3    3    0    0 -0.10957098303E+00  0.93554064110E-01  0.23515883414E-01  0.89202643459E+00  0.88000000000E+00 0.  1.
        -11    1    4    4    0    0  0.36195388070E-01 -0.22193359407E-01 -0.18890099951E-01  0.46473092392E-01  0.51100000000E-03 0. -1.
         11    1    4    4    0    0  0.62194185249E-01 -0.48175680760E-01 -0.94645225674E-02  0.79239202443E-01  0.51100000000E-03 0.  1.
</event>
<event>
 8    1  0.1109294E+005  0.1043930E+01  0.7957747E-01            NaN
         13   -1    0    0    0    0  0.00000000000E+00  0.00000000000E+00  0.74505805969E-08  0.10566000000E+00  0.10566000000E+00 0.  1.
     999900   -1    0    0    0    0 -0.00000000000E+00 -0.00000000000E+00 -0.74505805969E-08  0.93827000000E+00  0.93827000000E+00 0.  1.
     999902    2    1    2    0    0  0.97648864178E-02  0.20412338568E-01  0.85679661427E-02  0.10197344092E+01  0.10194473202E+01 0.  0.
     999903    2    3    3    0    0  0.79576909873E-01  0.46438031509E-01 -0.90882877987E-01  0.13100412065E+00  0.20332406645E-01 0.  0.
         14    1    1    2    0    0 -0.97648864178E-02 -0.20412338568E-01 -0.85679661427E-02  0.24195590846E-01  0.00000000000E+00 0.  1.
     999901    1    3    3    0    0 -0.69812023455E-01 -0.26025692941E-01  0.99450844130E-01  0.88873028851E+00  0.88000000000E+00 0. -1.
        -11    1    4    4    0    0  0.19135814004E-01  0.50535331792E-02 -0.28982654722E-01  0.35099472516E-01  0.51100000000E-03 0.  1.
         11    1    4    4    0    0  0.60441095869E-01  0.41384498330E-01 -0.61900223265E-01  0.95904648131E-01  0.51100000000E-03 0. -1.
</event>
<event>
 8    1  0.1109294E+005  0.1043930E+01  0.7957747E-01            NaN
         13   -1    0    0    0    0  0.00000000000E+00  0.00000000000E+00  0.74505805969E-08  0.10566000000E+00  0.10566000000E+00 0. -1.
     999900   -1    0    0    0    0 -0.00000000000E+00 -0.00000000000E+00 -0.74505805969E-08  0.93827000000E+00  0.93827000000E+00 0. -1.
     999902    2    1    2    0    0 -0.11983510207E-01 -0.66557900264E-02  0.19613444675E-01  0.10200011206E+01  0.10197204003E+01 0.  0.
     999903    2    3    3    0    0 -0.61955721459E-01 -0.37070056405E-01 -0.10525641411E+00  0.12926281383E+00  0.20426987651E-01 0.  0.
         14    1    1    2    0    0  0.11983510207E-01  0.66557900264E-02 -0.19613444675E-01  0.23928879409E-01  0.00000000000E+00 0.  1.
     999901    1    3    3    0    0  0.49972211252E-01  0.30414266378E-01  0.12486985879E+00  0.89073830676E+00  0.88000000000E+00 0.  1.
        -11    1    4    4    0    0 -0.89346884222E-02 -0.14817380959E-01 -0.20350643211E-01  0.26716909174E-01  0.51100000000E-03 0.  1.
         11    1    4    4    0    0 -0.53021033037E-01 -0.22252675446E-01 -0.84905770900E-01  0.10254590466E+00  0.51100000000E-03 0. -1.
</event>
<event>
 8    1  0.1109294E+005  0.1043930E+01  0.7957747E-01            NaN
         13   -1    0    0    0    0  0.00000000000E+00  0.00000000000E+00  0.74505805969E-08  0.10566000000E+00  0.10566000000E+00 0. -1.
     999900   -1    0    0    0    0 -0.00000000000E+00 -0.00000000000E+00 -0.74505805969E-08  0.93827000000E+00  0.93827000000E+00 0.  1.
     999902    2    1    2    0    0 -0.15756629157E-01  0.21977413425E-02  0.19649191859E-01  0.10186477499E+01  0.10183339561E+01 0.  0.
     999903    2    3    3    0    0  0.94984310918E-01  0.68204288783E-02 -0.80202540110E-01  0.12609226511E+00  0.19956811125E-01 0.  0.
         14    1    1    2    0    0  0.15756629157E-01 -0.21977413425E-02 -0.19649191859E-01  0.25282250099E-01  0.00000000000E+00 0.  1.
     999901    1    3    3    0    0 -0.11074094008E+00 -0.46226875358E-02  0.99851731969E-01  0.89255548479E+00  0.88000000000E+00 0. -1.
        -11    1    4    4    0    0  0.80985207520E-01  0.15849188172E-03 -0.60902136644E-01  0.10133094456E+00  0.51100000000E-03 0.  1.
         11    1    4    4    0    0  0.13999103398E-01  0.66619369966E-02 -0.19300403466E-01  0.24761320551E-01  0.51100000000E-03 0. -1.
</event>
<event>
 8    1  0.1109294E+005  0.1043930E+01  0.7957747E-01            NaN
         13   -1    0    0    0    0  0.00000000000E+00  0.00000000000E+00  0.74505805969E-08  0.10566000000E+00  0.10566000000E+00 0.  1.
     999900   -1    0    0    0    0 -0.00000000000E+00 -0.00000000000E+00 -0.74505805969E-08  0.93827000000E+00  0.93827000000E+00 0. -1.
     999902    2    1    2    0    0 -0.16229088757E-01 -0.14530613060E-01 -0.79450578442E-02  0.10207428056E+01  0.10204794115E+01 0.  0.
     999903    2    3    3    0    0 -0.47970075540E-01  0.11067463617E+00  0.38034969225E-01  0.13012616109E+00  0.30596661190E-01 0.  0.
         14    1    1    2    0    0  0.16229088757E-01  0.14530613060E-01  0.79450578442E-02  0.23187194352E-01  0.00000000000E+00 0.  1.
     999901    1    3    3    0    0  0.31740986783E-01 -0.12520524923E+00 -0.45980027069E-01  0.89061664456E+00  0.88000000000E+00 0.  1.
        -11    1    4    4    0    0 -0.48068243273E-01  0.85959852070E-01  0.37542741853E-01  0.10540099983E+00  0.51100000000E-03 0.  1.
         11    1    4    4    0    0  0.98167733343E-04  0.24714784105E-01  0.49222737136E-03  0.24725161254E-01  0.51100000000E-03 0. -1.
</event>
<event>
 8    1  0.1109294E+005  0.1043930E+01  0.7957747E-01            NaN
         13   -1    0    0    0    0  0.00000000000E+00  0.00000000000E+00  0.74505805969E-08  0.10566000000E+00  0.10566000000E+00 0.  1.
     999900   -1    0    0    0    0 -0.00000000000E+00 -0.00000000000E+00 -0.74505805969E-08  0.93827000000E+00  0.93827000000E+00 0.  1.
     999902    2    1    2    0    0 -0.81401319773E-02  0.18165280916E-01 -0.11748029155E-01  0.10208160352E+01  0.10205543211E+01 0.  0.
     999903    2    3    3    0    0 -0.36368174663E-01  0.12701311993E+00  0.11399310103E-02  0.13356704312E+00  0.19592825284E-01 0.  0.
         14    1    1    2    0    0  0.81401319773E-02 -0.18165280916E-01  0.11748029155E-01  0.23113964792E-01  0.00000000000E+00 0.  1.
     999901    1    3    3    0    0  0.28228042686E-01 -0.10884783901E+00 -0.12887960166E-01  0.88724899209E+00  0.88000000000E+00 0.  1.
        -11    1    4    4    0    0 -0.24923052552E-01  0.68951252299E-01 -0.77268127468E-02  0.73725155126E-01  0.51100000000E-03 0. -1.
         11    1    4    4    0    0 -0.11445122112E-01  0.58061867626E-01  0.88667437570E-02  0.59841887991E-01  0.51100000000E-03 0.  1.
</event>
<event>
 8    1  0.1109294E+005  0.1043930E+01  0.7957747E-01            NaN
         13   -1    0    0    0    0  0.00000000000E+00  0.00000000000E+00  0.74505805969E-08  0.10566000000E+00  0.10566000000E+00 0.  1.
     999900   -1    0    0    0    0 -0.00000000000E+00 -0.00000000000E+00 -0.74505805969E-08  0.93827000000E+00  0.93827000000E+00 0.  1.
     999902    2    1    2    0    0  0.19820138004E-03 -0.19385523542E-01 -0.14023441604E-01  0.10200031381E+01  0.10197224657E+01 0.  0.
     999903    2    3    3    0    0 -0.38691224860E-01  0.11952881444E+00 -0.16690659724E-01  0.12825390493E+00  0.19655473707E-01 0.  0.
         14    1    1    2    0    0 -0.19820138004E-03  0.19385523542E-01  0.14023441604E-01  0.23926861917E-01  0.00000000000E+00 0.  1.
     999901    1    3    3    0    0  0.38889426240E-01 -0.13891433798E+00  0.26672181206E-02  0.89174923315E+00  0.88000000000E+00 0.  1.
        -11    1    4    4    0    0 -0.18462697658E-01  0.30287964075E-01 -0.77504324249E-02  0.36312013114E-01  0.51100000000E-03 0. -1.
         11    1    4    4    0    0 -0.20228527203E-01  0.89240850363E-01 -0.89402272995E-02  0.91941891820E-01  0.51100000000E-03 0.  1.
</event>
<event>
 8    1  0.1109294E+005  0.1043930E+01  0.7957747E-01            NaN
         13   -1    0    0    0    0  0.00000000000E+00  0.00000000000E+00  0.74505805969E-08  0.10566000000E+00  0.10566000000E+00 0. -1.
     999900   -1    0    0    0    0 -0.00000000000E+00 -0.00000000000E+00 -0.74505805969E-08  0.93827000000E+00  0.93827000000E+00 0.  1.
     999902    2    1    2    0    0 -0.15577938292E-01 -0.33244042994E-03  0.13274068130E-01  0.10234609120E+01  0.10232562020E+01 0.  0.
     999903    2    3    3    0    0  0.12136606052E+00 -0.37749197459E-01  0.29681289043E-01  0.13193252245E+00  0.19248090951E-01 0.  0.
         14    1    1    2    0    0  0.15577938292E-01  0.33244042994E-03 -0.13274068130E-01  0.20469087981E-01  0.00000000000E+00 0.  1.
     999901    1    3    3    0    0 -0.13694399881E+00  0.37416757029E-01 -0.16407220913E-01  0.89152838957E+00  0.88000000000E+00 0.  1.
        -11    1    4    4    0    0  0.87579904022E-02 -0.18784257239E-02 -0.27416954172E-02  0.93813055513E-02  0.51100000000E-03 0.  1.
         11    1    4    4    0    0  0.11260807012E+00 -0.35870771735E-01  0.32422984460E-01  0.12255121689E+00  0.51100000000E-03 0. -1.
</event>
<event>
 8    1  0.1109294E+005  0.1043930E+01  0.7957747E-01            NaN
         13   -1    0    0    0    0  0.00000000000E+00  0.00000000000E+00  0.74505805969E-08  0.10566000000E+00  0.10566000000E+00 0. -1.
     999900   -1    0    0    0    0 -0.00000000000E+00 -0.00000000000E+00 -0.74505805969E-08  0.93827000000E+00  0.93827000000E+00 0.  1.
     999902    2    1    2    0    0  0.17826721175E-01 -0.24545895048E-02 -0.14838990198E-01  0.10206059217E+01  0.10203393724E+01 0.  0.
     999903    2    3    3    0    0  0.80061062963E-01 -0.76938697528E-01 -0.71372762295E-01  0.13346610014E+00  0.19743143339E-01 0.  0.
         14    1    1    2    0    0 -0.17826721175E-01  0.24545895048E-02  0.14838990198E-01  0.23324078280E-01  0.00000000000E+00 0.  1.
     999901    1    3    3    0    0 -0.62234341788E-01  0.74484108024E-01  0.56533772096E-01  0.88713982158E+00  0.88000000000E+00 0.  1.
        -11    1    4    4    0    0  0.11725491371E-01 -0.31826742737E-02 -0.62721661319E-02  0.13682753832E-01  0.51100000000E-03 0.  1.
         11    1    4    4    0    0  0.68335571591E-01 -0.73756023255E-01 -0.65100596163E-01  0.11978334631E+00  0.51100000000E-03 0. -1.
</event>
<event>
 8    1  0.1109294E+005  0.1043930E+01  0.7957747E-01            NaN
         13   -1    0    0    0    0  0.00000000000E+00  0.00000000000E+00  0.74505805969E-08  0.10566000000E+00  0.10566000000E+00 0. -1.
     999900   -1    0    0    0    0 -0.00000000000E+00 -0.00000000000E+00 -0.74505805969E-08  0.93827000000E+00  0.93827000000E+00 0.  1.
     999902    2    1    2    0    0 -0.11296355496E-01 -0.11600059788E-01  0.20570333762E-01  0.10177516184E+01  0.10174148854E+01 0.  0.
     999903    2    3    3    0    0  0.85711869550E-01  0.85569983095E-01 -0.27603633097E-01  0.12580243592E+00  0.19888331622E-01 0.  0.
         14    1    1    2    0    0  0.11296355496E-01  0.11600059788E-01 -0.20570333762E-01  0.26178381647E-01  0.00000000000E+00 0.  1.
     999901    1    3    3    0    0 -0.97008225046E-01 -0.97170042883E-01  0.48173966859E-01  0.89194918243E+00  0.88000000000E+00 0.  1.
        -11    1    4    4    0    0  0.25009677883E-01  0.37681102576E-01 -0.13561169517E-01  0.47217750040E-01  0.51100000000E-03 0. -1.
         11    1    4    4    0    0  0.60702191667E-01  0.47888880518E-01 -0.14042463581E-01  0.78584685880E-01  0.51100000000E-03 0.  1.
</event>
<event>
 8    1  0.1109294E+005  0.1043930E+01  0.7957747E-01            NaN
         13   -1    0    0    0    0  0.00000000000E+00  0.00000000000E+00  0.74505805969E-08  0.10566000000E+00  0.10566000000E+00 0. -1.
     999900   -1    0    0    0    0 -0.00000000000E+00 -0.00000000000E+00 -0.74505805969E-08  0.93827000000E+00  0.93827000000E+00 0.  1.
     999902    2    1    2    0    0 -0.20500474332E-01 -0.11827619942E-01  0.33262297525E-02  0.10200296685E+01  0.10197496255E+01 0.  0.
     999903    2    3    3    0    0  0.62991974890E-01  0.35014909133E-01 -0.10317216105E+00  0.12845403018E+00  0.25727617301E-01 0.  0.
         14    1    1    2    0    0  0.20500474332E-01  0.11827619942E-01 -0.33262297525E-02  0.23900331498E-01  0.00000000000E+00 0.  1.
     999901    1    3    3    0    0 -0.83492449222E-01 -0.46842529076E-01  0.10649839080E+00  0.89157563832E+00  0.88000000000E+00 0. -1.
        -11    1    4    4    0    0  0.54885839809E-01  0.28430194170E-01 -0.99936627820E-01  0.11750881692E+00  0.51100000000E-03 0. -1.
         11    1    4    4    0    0  0.81061350816E-02  0.65847149631E-02 -0.32355332270E-02  0.10945213263E-01  0.51100000000E-03 0.  1.
</event>
<event>
 8    1  0.1109294E+005  0.1043930E+01  0.7957747E-01            NaN
         13   -1    0    0    0    0  0.00000000000E+00  0.00000000000E+00  0.74505805969E-08  0.10566000000E+00  0.10566000000E+00 0.  1.
     999900   -1    0    0    0    0 -0.00000000000E+00 -0.00000000000E+00 -0.74505805969E-08  0.93827000000E+00  0.93827000000E+00 0. -1.
     999902    2    1    2    0    0 -0.57997118250E-02  0.21146496764E-01 -0.95325785033E-02  0.10200201477E+01  0.10197398790E+01 0.  0.
     999903    2    3    3    0    0 -0.72993926211E-01 -0.99726012978E-01  0.20642086717E-01  0.12870890216E+00  0.29436284123E-01 0.  0.
         14    1    1    2    0    0  0.57997118250E-02 -0.21146496764E-01  0.95325785033E-02  0.23909852270E-01  0.00000000000E+00 0.  1.
     999901    1    3    3    0    0  0.67194214386E-01  0.12087250974E+00 -0.30174665220E-01  0.89131124557E+00  0.88000000000E+00 0. -1.
        -11    1    4    4    0    0 -0.63099970553E-01 -0.75266245255E-01  0.57031740051E-02  0.98383948250E-01  0.51100000000E-03 0.  1.
         11    1    4    4    0    0 -0.98939556589E-02 -0.24459767724E-01  0.14938912711E-01  0.30324953911E-01  0.51100000000E-03 0. -1.
</event>
<event>
 8    1  0.1109294E+005  0.1043930E+01  0.7957747E-01            NaN
         13   -1    0    0    0    0  0.00000000000E+00  0.00000000000E+00  0.74505805969E-08  0.10566000000E+00  0.10566000000E+00 0.  1.
     999900   -1    0    0    0    0 -0.00000000000E+00 -0.00000000000E+00 -0.74505805969E-08  0.93827000000E+00  0.93827000000E+00 0.  1.
     999902    2    1    2    0    0  0.31286121112E-03  0.20221257491E-01  0.14369907995E-01  0.10191209010E+01  0.10188188845E+01 0.  0.
     999903    2    3    3    0    0 -0.99214857038E-01 -0.13095473286E-01  0.80938118974E-01  0.13038747756E+00  0.20852719826E-01 0.  0.
         14    1    1    2    0    0 -0.31286121112E-03 -0.20221257491E-01 -0.14369907995E-01  0.24809098985E-01  0.00000000000E+00 0. -1.
     999901    1    3    3    0    0  0.99527718250E-01  0.33316730777E-01 -0.66568210979E-01  0.88873342345E+00  0.88000000000E+00 0.  1.
        -11    1    4    4    0    0 -0.95478196032E-01 -0.88391458171E-02  0.79405249595E-01  0.12449767548E+00  0.51100000000E-03 0. -1.
         11    1    4    4    0    0 -0.37366610064E-02 -0.42563274694E-02  0.15328693797E-02  0.58898020798E-02  0.51100000000E-03 0.  1.
</event>
<event>
 8    1  0.1109294E+005  0.1043930E+01  0.7957747E-01            NaN
         13   -1    0    0    0    0  0.00000000000E+00  0.00000000000E+00  0.74505805969E-08  0.10566000000E+00  0.10566000000E+00 0. -1.
     999900   -1    0    0    0    0 -0.00000000000E+00 -0.00000000000E+00 -0.74505805969E-08  0.93827000000E+00  0.93827000000E+00 0.  1.
     999902    2    1    2    0    0  0.13925440656E-01 -0.18093798350E-02  0.18910483511E-01  0.10203758467E+01  0.10201039507E+01 0.  0.
     999903    2    3    3    0    0 -0.86029663445E-01  0.37172121664E-01  0.89259166102E-01  0.13107302004E+00  0.20738086407E-01 0.  0.
         14    1    1    2    0    0 -0.13925440656E-01  0.18093798350E-02 -0.18910483511E-01  0.23554153338E-01  0.00000000000E+00 0.  1.
     999901    1    3    3    0    0  0.99955104101E-01 -0.38981501499E-01 -0.70348682591E-01  0.88930282662E+00  0.88000000000E+00 0.  1.
        -11    1    4    4    0    0 -0.55234625221E-02 -0.24441788316E-02  0.37592268743E-02  0.71327102904E-02  0.51100000000E-03 0. -1.
         11    1    4    4    0    0 -0.80506200923E-01  0.39616300495E-01  0.85499939228E-01  0.12394030975E+00  0.51100000000E-03 0.  1.
</event>
<event>
 8    1  0.1109294E+005  0.1043930E+01  0.7957747E-01            NaN
         13   -1    0    0    0    0  0.00000000000E+00  0.00000000000E+00  0.74505805969E-08  0.10566000000E+00  0.10566000000E+00 0. -1.
     999900   -1    0    0    0    0 -0.00000000000E+00 -0.00000000000E+00 -0.74505805969E-08  0.93827000000E+00  0.93827000000E+00 0.  1.
     999902    2    1    2    0    0 -0.17582902794E-01  0.75475280207E-02 -0.14292480425E-01  0.10200469800E+01  0.10197673473E+01 0.  0.
     999903    2    3    3    0    0 -0.53868794777E-01 -0.30050982782E-01 -0.11575275802E+00  0.13267755187E+00  0.19993077867E-01 0.  0.
         14    1    1    2    0    0  0.17582902794E-01 -0.75475280207E-02  0.14292480425E-01  0.23883020047E-01  0.00000000000E+00 0.  1.
     999901    1    3    3    0    0  0.36285891983E-01  0.37598510803E-01  0.10146027760E+00  0.88736942809E+00  0.88000000000E+00 0. -1.
        -11    1    4    4    0    0 -0.38729395205E-01 -0.20127732509E-01 -0.61008797463E-01  0.75016172641E-01  0.51100000000E-03 0.  1.
         11    1    4    4    0    0 -0.15139399572E-01 -0.99232502732E-02 -0.54743960560E-01  0.57661379225E-01  0.51100000000E-03 0. -1.
</event>
<event>
 8    1  0.1109294E+005  0.1043930E+01  0.7957747E-01            NaN
         13   -1    0    0    0    0  0.00000000000E+00  0.00000000000E+00  0.74505805969E-08  0.10566000000E+00  0.10566000000E+00 0. -1.
     999900   -1    0    0    0    0 -0.00000000000E+00 -0.00000000000E+00 -0.74505805969E-08  0.93827000000E+00  0.93827000000E+00 0. -1.
     999902    2    1    2    0    0 -0.91933556474E-02  0.72348626294E-02 -0.22490667936E-01  0.10185786456E+01  0.10182631124E+01 0.  0.
     999903    2    3    3    0    0 -0.83572202078E-01  0.38684257059E-01  0.87544307784E-01  0.12805690354E+00  0.15930474434E-01 0.  0.
         14    1    1    2    0    0  0.91933556474E-02 -0.72348626294E-02  0.22490667936E-01  0.25351354392E-01  0.00000000000E+00 0. -1.
     999901    1    3    3    0    0  0.74378846430E-01 -0.31449394430E-01 -0.11003497572E+00  0.89052174206E+00  0.88000000000E+00 0. -1.
        -11    1    4    4    0    0 -0.63330562570E-01  0.21713366147E-01  0.60236547673E-01  0.90060719636E-01  0.51100000000E-03 0. -1.
         11    1    4    4    0    0 -0.20241639508E-01  0.16970890912E-01  0.27307760111E-01  0.37996183908E-01  0.51100000000E-03 0.  1.
</event>
<event>
 8    1  0.1109294E+005  0.1043930E+01  0.7957747E-01            NaN
         13   -1    0    0    0    0  0.00000000000E+00  0.00000000000E+00  0.74505805969E-08  0.10566000000E+00  0.10566000000E+00 0.  1.
     999900   -1    0    0    0    0 -0.00000000000E+00 -0.00000000000E+00 -0.74505805969E-08  0.93827000000E+00  0.93827000000E+00 0. -1.
     999902    2    1    2    0    0  0.23471344918E-01 -0.41812069915E-03 -0.31399591428E-02  0.10202458661E+01  0.10199709256E+01 0.  0.
     999903    2    3    3    0    0 -0.91510741661E-02 -0.48055752230E-02  0.12777765839E+00  0.12995215353E+00  0.21297805321E-01 0.  0.
         14    1    1    2    0    0 -0.23471344918E-01  0.41812069915E-03  0.31399591428E-02  0.23684133942E-01  0.00000000000E+00 0. -1.
     999901    1    3    3    0    0  0.32622419084E-01  0.43874545238E-02 -0.13091761753E+00  0.89029371253E+00  0.88000000000E+00 0. -1.
        -11    1    4    4    0    0 -0.12462399877E-02 -0.12109802096E-01  0.51768311209E-01  0.53182888106E-01  0.51100000000E-03 0. -1.
         11    1    4    4    0    0 -0.79048341784E-02  0.73042268729E-02  0.76009347183E-01  0.76769265424E-01  0.51100000000E-03 0.  1.
</event>
<event>
 8    1  0.1109294E+005  0.1043930E+01  0.7957747E-01            NaN
         13   -1    0    0    0    0  0.00000000000E+00  0.00000000000E+00  0.74505805969E-08  0.10566000000E+00  0.10566000000E+00 0.  1.
     999900   -1    0    0    0    0 -0.00000000000E+00 -0.00000000000E+00 -0.74505805969E-08  0.93827000000E+00  0.93827000000E+00 0. -1.
     999902    2    1    2    0    0  0.14203682810E-01  0.13639219312E-02 -0.18994530445E-01  0.10201729574E+01  0.10198963015E+01 0.  0.
     999903    2    3    3    0    0 -0.12239067916E+00  0.34534425631E-01  0.58962915722E-03  0.12880219199E+00  0.20434091614E-01 0.  0.
         14    1    1    2    0    0 -0.14203682810E-01 -0.13639219312E-02  0.18994530445E-01  0.23757042645E-01  0.00000000000E+00 0.  1.
     999901    1    3    3    0    0  0.13659436197E+00 -0.33170503700E-01 -0.19584159603E-01  0.89137076536E+00  0.88000000000E+00 0.  1.
        -11    1    4    4    0    0 -0.88456951293E-01  0.19869584249E-01 -0.74484680610E-02  0.90967980123E-01  0.51100000000E-03 0. -1.
         11    1    4    4    0    0 -0.33933727868E-01  0.14664841382E-01  0.80380972182E-02  0.37834211868E-01  0.51100000000E-03 0.  1.
</event>
<event>
 8    1  0.1109294E+005  0.1043930E+01  0.7957747E-01            NaN
         13   -1    0    0    0    0  0.00000000000E+00  0.00000000000E+00  0.74505805969E-08  0.10566000000E+00  0.10566000000E+00 0. -1.
     999900   -1    0    0    0    0 -0.00000000000E+00 -0.00000000000E+00 -0.74505805969E-08  0.93827000000E+00  0.93827000000E+00 0. -1.
     999902    2    1    2    0    0 -0.74976435826E-02  0.65326451897E-02  0.21247698159E-01  0.10204703583E+01  0.10202006652E+01 0.  0.
     999903    2    3    3    0    0  0.44368102635E-01 -0.36816201718E-01 -0.11253203159E+00  0.12779673694E+00  0.18563043885E-01 0.  0.
         14    1    1    2    0    0  0.74976435826E-02 -0.65326451897E-02 -0.21247698159E-01  0.23459641717E-01  0.00000000000E+00 0.  1.
     999901    1    3    3    0    0 -0.51865746217E-01  0.43348846908E-01  0.13377972974E+00  0.89267362135E+00  0.88000000000E+00 0.  1.
        -11    1    4    4    0    0  0.12813829544E-01 -0.11829263495E-02 -0.26930840978E-01  0.29851714508E-01  0.51100000000E-03 0.  1.
         11    1    4    4    0    0  0.31554273090E-01 -0.35633275368E-01 -0.85601190608E-01  0.97945022427E-01  0.51100000000E-03 0. -1.
</event>
<event>
 8    1  0.1109294E+005  0.1043930E+01  0.7957747E-01            NaN
         13   -1    0    0    0    0  0.00000000000E+00  0.00000000000E+00  0.74505805969E-08  0.10566000000E+00  0.10566000000E+00 0. -1.
     999900   -1    0    0    0    0 -0.00000000000E+00 -0.00000000000E+00 -0.74505805969E-08  0.93827000000E+00  0.93827000000E+00 0. -1.
     999902    2    1    2    0    0  0.82841054532E-02 -0.11061761731E-01 -0.19528973698E-01  0.10200057489E+01  0.10197251385E+01 0.  0.
     999903    2    3    3    0    0 -0.91215444545E-01 -0.58450148222E-02  0.87245239812E-01  0.12796981491E+00  0.20251423093E-01 0.  0.
         14    1    1    2    0    0 -0.82841054532E-02  0.11061761731E-01  0.19528973698E-01  0.23924251074E-01  0.00000000000E+00 0. -1.
     999901    1    3    3    0    0  0.99499549999E-01 -0.52167469088E-02 -0.10677421351E+00  0.89203593401E+00  0.88000000000E+00 0. -1.
        -11    1    4    4    0    0 -0.43334974477E-01  0.17262682501E-02  0.28928227676E-01  0.52134475086E-01  0.51100000000E-03 0. -1.
         11    1    4    4    0    0 -0.47880470068E-01 -0.75712830723E-02  0.58317012136E-01  0.75835339828E-01  0.51100000000E-03 0.  1.
</event>
<event>
 8    1  0.1109294E+005  0.1043930E+01  0.7957747E-01            NaN
         13   -1    0    0    0    0  0.00000000000E+00  0.00000000000E+00  0.74505805969E-08  0.10566000000E+00  0.10566000000E+00 0.  1.
     999900   -1    0    0    0    0 -0.00000000000E+00 -0.00000000000E+00 -0.74505805969E-08  0.93827000000E+00  0.93827000000E+00 0. -1.
     999902    2    1    2    0    0 -0.23402414940E-01  0.47768614674E-02 -0.17502471613E-02  0.10199809959E+01  0.10196997976E+01 0.  0.
     999903    2    3    3    0    0  0.60069972560E-01  0.32635087848E-01 -0.10794226742E+00  0.12923947034E+00  0.19438545132E-01 0.  0.
         14    1    1    2    0    0  0.23402414940E-01 -0.47768614674E-02  0.17502471613E-02  0.23949004063E-01  0.00000000000E+00 0.  1.
     999901    1    3    3    0    0 -0.83472387500E-01 -0.27858226380E-01  0.10619202026E+00  0.89074152559E+00  0.88000000000E+00 0.  1.
        -11    1    4    4    0    0  0.33597586354E-01  0.20846922572E-01 -0.78655526161E-01  0.88036043222E-01  0.51100000000E-03 0. -1.
         11    1    4    4    0    0  0.26472386206E-01  0.11788165276E-01 -0.29286741258E-01  0.41203427121E-01  0.51100000000E-03 0.  1.
</event>
<event>
 8    1  0.1109294E+005  0.1043930E+01  0.7957747E-01            NaN
         13   -1    0    0    0    0  0.00000000000E+00  0.00000000000E+00  0.74505805969E-08  0.10566000000E+00  0.10566000000E+00 0.  1.
     999900   -1    0    0    0    0 -0.00000000000E+00 -0.00000000000E+00 -0.74505805969E-08  0.93827000000E+00  0.93827000000E+00 0.  1.
     999902    2    1    2    0    0  0.12817999600E-01 -0.11121451176E-01  0.17283012139E-01  0.10197083093E+01  0.10194205932E+01 0.  0.
     999903    2    3    3    0    0 -0.42646064853E-01 -0.31852831542E-01 -0.11473350065E+00  0.12789307498E+00  0.18962403149E-01 0.  0.
         14    1    1    2    0    0 -0.12817999600E-01  0.11121451176E-01 -0.17283012139E-01  0.24221690664E-01  0.00000000000E+00 0. -1.
     999901    1    3    3    0    0  0.55464064453E-01  0.20731380366E-01  0.13201651279E+00  0.89181523435E+00  0.88000000000E+00 0. -1.
        -11    1    4    4    0    0 -0.11250683918E-01 -0.17185065492E-01 -0.30154914732E-01  0.36489510384E-01  0.51100000000E-03 0. -1.
         11    1    4    4    0    0 -0.31395380935E-01 -0.14667766049E-01 -0.84578585915E-01  0.91403564598E-01  0.51100000000E-03 0.  1.
</event>
<event>
 8    1  0.1109294E+005  0.1043930E+01  0.7957747E-01            NaN
         13   -1    0    0    0    0  0.00000000000E+00  0.00000000000E+00  0.74505805969E-08  0.10566000000E+00  0.10566000000E+00 0. -1.
     999900   -1    0    0    0    0 -0.00000000000E+00 -0.00000000000E+00 -0.74505805969E-08  0.93827000000E+00  0.93827000000E+00 0.  1.
     999902    2    1    2    0    0 -0.26907801248E-02 -0.52928660933E-02 -0.23251585615E-01  0.10199322717E+01  0.10196499144E+01 0.  0.
     999903    2    3    3    0    0 -0.88230819425E-01 -0.92937643083E-01  0.15327643710E-01  0.13061395852E+00  0.20074523643E-01 0.  0.
         14    1    1    2    0    0  0.26907801248E-02  0.52928660933E-02  0.23251585615E-01  0.23997728284E-01  0.00000000000E+00 0. -1.
     999901    1    3    3    0    0  0.85540039300E-01  0.87644776990E-01 -0.38579229325E-01  0.88931831320E+00  0.88000000000E+00 0.  1.
        -11    1    4    4    0    0 -0.68674298529E-01 -0.59053103696E-01  0.11476718343E-01  0.91298436566E-01  0.51100000000E-03 0. -1.
         11    1    4    4    0    0 -0.19556520896E-01 -0.33884539387E-01  0.38509253666E-02  0.39315521950E-01  0.51100000000E-03 0.  1.
</event>
<event>
 8    1  0.1109294E+005  0.1043930E+01  0.7957747E-01            NaN
         13   -1    0    0    0    0  0.00000000000E+00  0.00000000000E+00  0.74505805969E-08  0.10566000000E+00  0.10566000000E+00 0. -1.
     999900   -1    0    0    0    0 -0.00000000000E+00 -0.00000000000E+00 -0.74505805969E-08  0.93827000000E+00  0.93827000000E+00 0. -1.
     999902    2    1    2    0    0  0.11860497345E-01  0.15292881702E-01 -0.13820784821E-01  0.10201485425E+01  0.10198713110E+01 0.  0.
     999903    2    3    3    0    0 -0.46391141721E-01  0.32312960834E-01  0.11411138299E+00  0.12882953332E+00  0.19477563031E-01 0.  0.
         14    1    1    2    0    0 -0.11860497345E-01 -0.15292881702E-01  0.13820784821E-01  0.23781457505E-01  0.00000000000E+00 0.  1.
     999901    1    3    3    0    0  0.58251639067E-01 -0.17020079132E-01 -0.12793216781E+00  0.89131900917E+00  0.88000000000E+00 0. -1.
        -11    1    4    4    0    0 -0.27045755239E-01  0.24935064632E-01  0.54781430249E-01  0.65988609213E-01  0.51100000000E-03 0.  1.
         11    1    4    4    0    0 -0.19345386482E-01  0.73778962016E-02  0.59329952737E-01  0.62840924112E-01  0.51100000000E-03 0. -1.
</event>
<event>
 8    1  0.1109294E+005  0.1043930E+01  0.7957747E-01            NaN
         13   -1    0    0    0    0  0.00000000000E+00  0.00000000000E+00  0.74505805969E-08  0.10566000000E+00  0.10566000000E+00 0. -1.
     999900   -1    0    0    0    0 -0.00000000000E+00 -0.00000000000E+00 -0.74505805969E-08  0.93827000000E+00  0.93827000000E+00 0. -1.
     999902    2    1    2    0    0 -0.38401075399E-02  0.17033090619E-01  0.16562601386E-01  0.10198635843E+01  0.10195795889E+01 0.  0.
     999903    2    3    3    0    0 -0.32835025646E-01  0.22967694484E-01  0.12482440510E+00  0.13273532806E+00  0.20781754238E-01 0.  0.
         14    1    1    2    0    0  0.38401075399E-02 -0.17033090619E-01 -0.16562601386E-01  0.24066415741E-01  0.00000000000E+00 0.  1.
     999901    1    3    3    0    0  0.28994918106E-01 -0.59346038657E-02 -0.10826180371E+00  0.88712825620E+00  0.88000000000E+00 0. -1.
        -11    1    4    4    0    0 -0.11650173680E-01 -0.10621571209E-02  0.49763796241E-01  0.51122903496E-01  0.51100000000E-03 0. -1.
         11    1    4    4    0    0 -0.21184851965E-01  0.24029851605E-01  0.75060608856E-01  0.81612424567E-01  0.51100000000E-03 0.  1.
</event>
<event>
 8    1  0.1109294E+005  0.1043930E+01  0.7957747E-01            NaN
         13   -1    0    0    0    0  0.00000000000E+00  0.00000000000E+00  0.74505805969E-08  0.10566000000E+00  0.10566000000E+00 0. -1.
     999900   -1    0    0    0    0 -0.00000000000E+00 -0.00000000000E+00 -0.74505805969E-08  0.93827000000E+00  0.93827000000E+00 0. -1.
     999902    2    1    2    0    0 -0.11635402521E-01 -0.71028577590E-02  0.18860192095E-01  0.10206589874E+01  0.10203936635E+01 0.  0.
     999903    2    3    3    0    0  0.94712510031E-01  0.18563718593E-01  0.86434719361E-01  0.13131374042E+00  0.21383790764E-01 0.  0.
         14    1    1    2    0    0  0.11635402521E-01  0.71028577590E-02 -0.18860192095E-01  0.23271012570E-01  0.00000000000E+00 0.  1.
     999901    1    3    3    0    0 -0.10634791255E+00 -0.25666576352E-01 -0.67574527266E-01  0.88934524701E+00  0.88000000000E+00 0. -1.
        -11    1    4    4    0    0  0.66562310602E-01  0.21226929404E-01  0.54153256387E-01  0.88396606399E-01  0.51100000000E-03 0.  1.
         11    1    4    4    0    0  0.28150199430E-01 -0.26632108111E-02  0.32281462974E-01  0.42917134020E-01  0.51100000000E-03 0. -1.
</event>
<event>
 8    1  0.1109294E+005  0.1043930E+01  0.7957747E-01            NaN
         13   -1    0    0    0    0  0.00000000000E+00  0.00000000000E+00  0.74505805969E-08  0.10566000000E+00  0.10566000000E+00 0.  1.
     999900   -1    0    0    0    0 -0.00000000000E+00 -0.00000000000E+00 -0.74505805969E-08  0.93827000000E+00  0.93827000000E+00 0.  1.
     999902    2    1    2    0    0 -0.83635942067E-02  0.24373179815E-01  0.11620202737E-01  0.10156628687E+01  0.10152694382E+01 0.  0.
     999903    2    3    3    0    0 -0.43648511339E-01  0.79681194564E-01  0.90335313733E-01  0.12971700656E+00  0.20291564144E-01 0.  0.
         14    1    1    2    0    0  0.83635942067E-02 -0.24373179815E-01 -0.11620202737E-01  0.28267131336E-01  0.00000000000E+00 0. -1.
     999901    1    3    3    0    0  0.35284917132E-01 -0.55308014749E-01 -0.78715110996E-01  0.88594586210E+00  0.88000000000E+00 0. -1.
        -11    1    4    4    0    0 -0.22778644260E-01  0.24481386785E-01  0.25586890097E-01  0.42108847041E-01  0.51100000000E-03 0. -1.
         11    1    4    4    0    0 -0.20869867079E-01  0.55199807779E-01  0.64748423636E-01  0.87608159523E-01  0.51100000000E-03 0.  1.
</event>
<event>
 8    1  0.1109294E+005  0.1043930E+01  0.7957747E-01            NaN
         13   -1    0    0    0    0  0.00000000000E+00  0.00000000000E+00  0.74505805969E-08  0.10566000000E+00  0.10566000000E+00 0. -1.
     999900   -1    0    0    0    0 -0.00000000000E+00 -0.00000000000E+00 -0.74505805969E-08  0.93827000000E+00  0.93827000000E+00 0.  1.
     999902    2    1    2    0    0  0.94414634028E-02  0.14871685474E-01 -0.85725940265E-02  0.10243392464E+01  0.10241518901E+01 0.  0.
     999903    2    3    3    0    0 -0.84759209198E-01 -0.67201370210E-01  0.72548618975E-01  0.13182011245E+00  0.20324670458E-01 0.  0.
         14    1    1    2    0    0 -0.94414634028E-02 -0.14871685474E-01  0.85725940265E-02  0.19590753645E-01  0.00000000000E+00 0.  1.
     999901    1    3    3    0    0  0.94200672601E-01  0.82073055684E-01 -0.81121213001E-01  0.89251913391E+00  0.88000000000E+00 0.  1.
        -11    1    4    4    0    0 -0.69602534826E-01 -0.49569142441E-01  0.48022723613E-01  0.98020690881E-01  0.51100000000E-03 0. -1.
         11    1    4    4    0    0 -0.15156674372E-01 -0.17632227769E-01  0.24525895362E-01  0.33799421569E-01  0.51100000000E-03 0.  1.
</event>
<event>
 8    1  0.1109294E+005  0.1043930E+01  0.7957747E-01            NaN
         13   -1    0    0    0    0  0.00000000000E+00  0.00000000000E+00  0.74505805969E-08  0.10566000000E+00  0.10566000000E+00 0.  1.
     999900   -1    0    0    0    0 -0.00000000000E+00 -0.00000000000E+00 -0.74505805969E-08  0.93827000000E+00  0.93827000000E+00 0. -1.
     999902    2    1    2    0    0 -0.17154046254E-01  0.17203693442E-01  0.12512638238E-01  0.10166024592E+01  0.10162350936E+01 0.  0.
     999903    2    3    3    0    0 -0.84094693562E-01  0.34568478761E-01  0.91567590861E-01  0.13035629048E+00  0.18472724790E-01 0.  0.
         14    1    1    2    0    0  0.17154046254E-01 -0.17203693442E-01 -0.12512638238E-01  0.27327540808E-01  0.00000000000E+00 0. -1.
     999901    1    3    3    0    0  0.66940647308E-01 -0.17364785319E-01 -0.79054952622E-01  0.88624616872E+00  0.88000000000E+00 0. -1.
        -11    1    4    4    0    0 -0.49256278720E-01  0.10315772866E-01  0.49439930341E-01  0.70549018394E-01  0.51100000000E-03 0. -1.
         11    1    4    4    0    0 -0.34838414842E-01  0.24252705896E-01  0.42127660520E-01  0.59807272082E-01  0.51100000000E-03 0.  1.
</event>
<event>
 8    1  0.1109294E+005  0.1043930E+01  0.7957747E-01            NaN
         13   -1    0    0    0    0  0.00000000000E+00  0.00000000000E+00  0.74505805969E-08  0.10566000000E+00  0.10566000000E+00 0. -1.
     999900   -1    0    0    0    0 -0.00000000000E+00 -0.00000000000E+00 -0.74505805969E-08  0.93827000000E+00  0.93827000000E+00 0. -1.
     999902    2    1    2    0    0  0.17536614506E-01 -0.10616487971E-02 -0.15041253231E-01  0.10208021111E+01  0.10205400780E+01 0.  0.
     999903    2    3    3    0    0  0.91692143360E-01 -0.25516290614E-01 -0.92159191764E-01  0.13398519176E+00  0.20004618087E-01 0.  0.
         14    1    1    2    0    0 -0.17536614506E-01  0.10616487971E-02  0.15041253231E-01  0.23127888906E-01  0.00000000000E+00 0.  1.
     999901    1    3    3    0    0 -0.74155528854E-01  0.24454641817E-01  0.77117938533E-01  0.88681691933E+00  0.88000000000E+00 0.  1.
        -11    1    4    4    0    0  0.54638368063E-01 -0.23837851374E-01 -0.49790353233E-01  0.77671969325E-01  0.51100000000E-03 0.  1.
         11    1    4    4    0    0  0.37053775297E-01 -0.16784392404E-02 -0.42368838531E-01  0.56313222440E-01  0.51100000000E-03 0. -1.
</event>
<event>
 8    1  0.1109294E+005  0.1043930E+01  0.7957747E-01            NaN
         13   -1    0    0    0    0  0.00000000000E+00  0.00000000000E+00  0.74505805969E-08  0.10566000000E+00  0.10566000000E+00 0.  1.
     999900   -1    0    0    0    0 -0.00000000000E+00 -0.00000000000E+00 -0.74505805969E-08  0.93827000000E+00  0.93827000000E+00 0. -1.
     999902    2    1    2    0    0  0.19058441613E-01 -0.13548708416E-01 -0.11831253025E-02  0.10205165107E+01  0.10202478900E+01 0.  0.
     999903    2    3    3    0    0 -0.25504460081E-01 -0.57838772431E-01 -0.11334328816E+00  0.13117553889E+00  0.19092405632E-01 0.  0.
         14    1    1    2    0    0 -0.19058441613E-01  0.13548708416E-01  0.11831253025E-02  0.23413489316E-01  0.00000000000E+00 0. -1.
     999901    1    3    3    0    0  0.44562901695E-01  0.44290064015E-01  0.11216016285E+00  0.88934097179E+00  0.88000000000E+00 0.  1.
        -11    1    4    4    0    0 -0.25304911666E-01 -0.50029744623E-01 -0.85430881144E-01  0.10218615599E+00  0.51100000000E-03 0.  1.
         11    1    4    4    0    0 -0.19954841499E-03 -0.78090278080E-02 -0.27912407013E-01  0.28989382904E-01  0.51100000000E-03 0. -1.
</event>
<event>
 8    1  0.1109294E+005  0.1043930E+01  0.7957747E-01            NaN
         13   -1    0    0    0    0  0.00000000000E+00  0.00000000000E+00  0.74505805969E-08  0.10566000000E+00  0.10566000000E+00 0. -1.
     999900   -1    0    0    0    0 -0.00000000000E+00 -0.00000000000E+00 -0.74505805969E-08  0.93827000000E+00  0.93827000000E+00 0.  1.
     999902    2    1    2    0    0  0.17967025067E-01  0.36553401707E-02 -0.15015427531E-01  0.10202310851E+01  0.10199557973E+01 0.  0.
     999903    2    3    3    0    0  0.68900888237E-01  0.70663634022E-01 -0.87113278207E-01  0.13327986330E+00  0.20835478084E-01 0.  0.
         14    1    1    2    0    0 -0.17967025067E-01 -0.36553401707E-02  0.15015427531E-01  0.23698914858E-01  0.00000000000E+00 0.  1.
     999901    1    3    3    0    0 -0.50933863170E-01 -0.67008293852E-01  0.72097850676E-01  0.88695122185E+00  0.88000000000E+00 0. -1.
        -11    1    4    4    0    0  0.33096518795E-01  0.48366231141E-01 -0.48040201745E-01  0.75781224428E-01  0.51100000000E-03 0. -1.
         11    1    4    4    0    0  0.35804369442E-01  0.22297402881E-01 -0.39073076463E-01  0.57498638868E-01  0.51100000000E-03 0.  1.
</event>
<event>
 8    1  0.1109294E+005  0.1043930E+01  0.7957747E-01            NaN
         13   -1    0    0    0    0  0.00000000000E+00  0.00000000000E+00  0.74505805969E-08  0.10566000000E+00  0.10566000000E+00 0.  1.
     999900   -1    0    0    0    0 -0.00000000000E+00 -0.00000000000E+00 -0.74505805969E-08  0.93827000000E+00  0.93827000000E+00 0. -1.
     999902    2    1    2    0    0  0.11434733377E-01 -0.17713759928E-01  0.85389553082E-02  0.10211826007E+01  0.10209292139E+01 0.  0.
     999903    2    3    3    0    0  0.20377879201E-01  0.58169646128E-01  0.11511143840E+00  0.13146581129E+00  0.15285633612E-01 0.  0.
         14    1    1    2    0    0 -0.11434733377E-01  0.17713759928E-01 -0.85389553082E-02  0.22747399322E-01  0.00000000000E+00 0. -1.
     999901    1    3    3    0    0 -0.89431458241E-02 -0.75883406056E-01 -0.10657248309E+00  0.88971678939E+00  0.88000000000E+00 0. -1.
        -11    1    4    4    0    0  0.13387063550E-01  0.19227455204E-01  0.35081881688E-01  0.42188956469E-01  0.51100000000E-03 0. -1.
         11    1    4    4    0    0  0.69908156506E-02  0.38942190924E-01  0.80029556713E-01  0.89276854818E-01  0.51100000000E-03 0.  1.
</event>
<event>
 8    1  0.1109294E+005  0.1043930E+01  0.7957747E-01            NaN
         13   -1    0    0    0    0  0.00000000000E+00  0.00000000000E+00  0.74505805969E-08  0.10566000000E+00  0.10566000000E+00 0.  1.
     999900   -1    0    0    0    0 -0.00000000000E+00 -0.00000000000E+00 -0.74505805969E-08  0.93827000000E+00  0.93827000000E+00 0.  1.
     999902    2    1    2    0    0  0.22462626474E-01  0.75634313060E-02 -0.11826681800E-02  0.10201987172E+01  0.10199226680E+01 0.  0.
     999903    2    3    3    0    0  0.58372031882E-01  0.98963889162E-01  0.62764918753E-01  0.13243026595E+00  0.19929747834E-01 0.  0.
         14    1    1    2    0    0 -0.22462626474E-01 -0.75634313060E-02  0.11826681800E-02  0.23731282841E-01  0.00000000000E+00 0.  1.
     999901    1    3    3    0    0 -0.35909405408E-01 -0.91400457856E-01 -0.63947586933E-01  0.88776845121E+00  0.88000000000E+00 0.  1.
        -11    1    4    4    0    0  0.33938493937E-01  0.48496968613E-01  0.42233897955E-01  0.72716852193E-01  0.51100000000E-03 0.  1.
         11    1    4    4    0    0  0.24433537945E-01  0.50466920549E-01  0.20531020798E-01  0.59713413754E-01  0.51100000000E-03 0. -1.
</event>
<event>
 8    1  0.1109294E+005  0.1043930E+01  0.7957747E-01            NaN
         13   -1    0    0    0    0  0.00000000000E+00  0.00000000000E+00  0.74505805969E-08  0.10566000000E+00  0.10566000000E+00 0.  1.
     999900   -1    0    0    0    0 -0.00000000000E+00 -0.00000000000E+00 -0.74505805969E-08  0.93827000000E+00  0.93827000000E+00 0.  1.
     999902    2    1    2    0    0 -0.21392863322E-01 -0.58464242742E-02  0.22865036389E-01  0.10120765046E+01  0.10115751114E+01 0.  0.
     999903    2    3    3    0    0 -0.38119754091E-01  0.10144710788E+00  0.58590954281E-01  0.12468254921E+00  0.19188715554E-01 0.  0.
         14    1    1    2    0    0  0.21392863322E-01  0.58464242742E-02 -0.22865036389E-01  0.31853495365E-01  0.00000000000E+00 0. -1.
     999901    1    3    3    0    0  0.16726890769E-01 -0.10729353215E+00 -0.35725917892E-01  0.88739395543E+00  0.88000000000E+00 0. -1.
        -11    1    4    4    0    0 -0.95150336492E-02  0.49224330639E-01  0.21681160559E-01  0.54625126420E-01  0.51100000000E-03 0.  1.
         11    1    4    4    0    0 -0.28604720442E-01  0.52222777241E-01  0.36909793722E-01  0.70057422789E-01  0.51100000000E-03 0. -1.
</event>
<event>
 8    1  0.1109294E+005  0.1043930E+01  0.7957747E-01            NaN
         13   -1    0    0    0    0  0.00000000000E+00  0.00000000000E+00  0.74505805969E-08  0.10566000000E+00  0.10566000000E+00 0. -1.
     999900   -1    0    0    0    0 -0.00000000000E+00 -0.00000000000E+00 -0.74505805969E-08  0.93827000000E+00  0.93827000000E+00 0.  1.
     999902    2    1    2    0    0 -0.21734197055E-01 -0.16415024504E-02  0.95996380579E-02  0.10201135581E+01  0.10198355008E+01 0.  0.
     999903    2    3    3    0    0 -0.11469974029E+00  0.42532035998E-01 -0.46323978717E-01  0.13235157166E+00  0.20150012589E-01 0.  0.
         14    1    1    2    0    0  0.21734197055E-01  0.16415024504E-02 -0.95996380579E-02  0.23816441858E-01  0.00000000000E+00 0.  1.
     999901    1    3    3    0    0  0.92965543238E-01 -0.44173538448E-01  0.55923616775E-01  0.88776198648E+00  0.88000000000E+00 0.  1.
        -11    1    4    4    0    0 -0.17721071272E-01  0.14315234744E-01 -0.57165275056E-02  0.23492597143E-01  0.51100000000E-03 0. -1.
         11    1    4    4    0    0 -0.96978669021E-01  0.28216801254E-01 -0.40607451211E-01  0.10885897452E+00  0.51100000000E-03 0.  1.
</event>
<event>
 8    1  0.1109294E+005  0.1043930E+01  0.7957747E-01            NaN
         13   -1    0    0    0    0  0.00000000000E+00  0.00000000000E+00  0.74505805969E-08  0.10566000000E+00  0.10566000000E+00 0.  1.
     999900   -1    0    0    0    0 -0.00000000000E+00 -0.00000000000E+00 -0.74505805969E-08  0.93827000000E+00  0.93827000000E+00 0.  1.
     999902    2    1    2    0    0  0.26794194016E-02  0.70203301373E-02 -0.26398473304E-01  0.10164828924E+01  0.10161122609E+01 0.  0.
     999903    2    3    3    0    0  0.12002254446E+00 -0.28445860892E-01 -0.27823714678E-01  0.12798455754E+00  0.19781549250E-01 0.  0.
         14    1    1    2    0    0 -0.26794194016E-02 -0.70203301373E-02  0.26398473304E-01  0.27447107614E-01  0.00000000000E+00 0.  1.
     999901    1    3    3    0    0 -0.11734312506E+00  0.35466191029E-01  0.14252413739E-02  0.88849833484E+00  0.88000000000E+00 0. -1.
        -11    1    4    4    0    0  0.29845431152E-01 -0.14905014682E-01 -0.31299317860E-02  0.33510697058E-01  0.51100000000E-03 0.  1.
         11    1    4    4    0    0  0.90177113308E-01 -0.13540846210E-01 -0.24693782892E-01  0.94473860486E-01  0.51100000000E-03 0. -1.
</event>
<event>
 8    1  0.1109294E+005  0.1043930E+01  0.7957747E-01            NaN
         13   -1    0    0    0    0  0.00000000000E+00  0.00000000000E+00  0.74505805969E-08  0.10566000000E+00  0.10566000000E+00 0.  1.
     999900   -1    0    0    0    0 -0.00000000000E+00 -0.00000000000E+00 -0.74505805969E-08  0.93827000000E+00  0.93827000000E+00 0. -1.
     999902    2    1    2    0    0 -0.25057484639E-01 -0.85596520550E-02  0.11471790103E-02  0.10174260154E+01  0.10170807419E+01 0.  0.
     999903    2    3    3    0    0 -0.57089104584E-01 -0.48153528289E-01 -0.10425114179E+00  0.12967463932E+00  0.19216747124E-01 0.  0.
         14    1    1    2    0    0  0.25057484639E-01  0.85596520550E-02 -0.11471790103E-02  0.26503984595E-01  0.00000000000E+00 0. -1.
     999901    1    3    3    0    0  0.32031619946E-01  0.39593876234E-01  0.10539832080E+00  0.88775137608E+00  0.88000000000E+00 0.  1.
        -11    1    4    4    0    0 -0.45457003581E-01 -0.42902643962E-01 -0.95694490735E-01  0.11430079926E+00  0.51100000000E-03 0. -1.
         11    1    4    4    0    0 -0.11632101004E-01 -0.52508843270E-02 -0.85566510529E-02  0.15373840061E-01  0.51100000000E-03 0.  1.
</event>
<event>
 8    1  0.1109294E+005  0.1043930E+01  0.7957747E-01            NaN
         13   -1    0    0    0    0  0.00000000000E+00  0.00000000000E+00  0.74505805969E-08  0.10566000000E+00  0.10566000000E+00 0.  1.
     999900   -1    0    0    0    0 -0.00000000000E+00 -0.00000000000E+00 -0.74505805969E-08  0.93827000000E+00  0.93827000000E+00 0. -1.
     999902    2    1    2    0    0 -0.16563343868E-01  0.44711299666E-02 -0.15576479151E-01  0.10207575580E+01  0.10204945028E+01 0.  0.
     999903    2    3    3    0    0 -0.16905177644E-01 -0.11365987264E-01 -0.13007225045E+00  0.13319898940E+00  0.20204201128E-01 0.  0.
         14    1    1    2    0    0  0.16563343868E-01 -0.44711299666E-02  0.15576479151E-01  0.23172441952E-01  0.00000000000E+00 0.  1.
     999901    1    3    3    0    0  0.34183377576E-03  0.15837117230E-01  0.11449577130E+00  0.88755856865E+00  0.88000000000E+00 0.  1.
        -11    1    4    4    0    0 -0.50144067605E-02  0.20792137531E-02 -0.76571016691E-01  0.76764895122E-01  0.51100000000E-03 0.  1.
         11    1    4    4    0    0 -0.11890770884E-01 -0.13445201017E-01 -0.53501233757E-01  0.56434094280E-01  0.51100000000E-03 0. -1.
</event>
<event>
 8    1  0.1109294E+005  0.1043930E+01  0.7957747E-01            NaN
         13   -1    0    0    0    0  0.00000000000E+00  0.00000000000E+00  0.74505805969E-08  0.10566000000E+00  0.10566000000E+00 0.  1.
     999900   -1    0    0    0    0 -0.00000000000E+00 -0.00000000000E+00 -0.74505805969E-08  0.93827000000E+00  0.93827000000E+00 0.  1.
     999902    2    1    2    0    0  0.17134104592E-01 -0.89826142023E-02 -0.13644915163E-01  0.10202562042E+01  0.10199815065E+01 0.  0.
     999903    2    3    3    0    0 -0.11448625706E+00 -0.56223205969E-01 -0.85058819326E-04  0.12911117513E+00  0.20038372283E-01 0.  0.
         14    1    1    2    0    0 -0.17134104592E-01  0.89826142023E-02  0.13644915163E-01  0.23673795806E-01  0.00000000000E+00 0.  1.
     999901    1    3    3    0    0  0.13162036166E+00  0.47240591767E-01 -0.13559856344E-01  0.89114502906E+00  0.88000000000E+00 0.  1.
        -11    1    4    4    0    0 -0.48693055679E-01 -0.33044899763E-01 -0.57136843297E-02  0.59126021187E-01  0.51100000000E-03 0. -1.
         11    1    4    4    0    0 -0.65793201384E-01 -0.23178306206E-01  0.56286255104E-02  0.69985153948E-01  0.51100000000E-03 0.  1.
</event>
<event>
 8    1  0.1109294E+005  0.1043930E+01  0.7957747E-01            NaN
         13   -1    0    0    0    0  0.00000000000E+00  0.00000000000E+00  0.74505805969E-08  0.10566000000E+00  0.10566000000E+00 0. -1.
     999900   -1    0    0    0    0 -0.00000000000E+00 -0.00000000000E+00 -0.74505805969E-08  0.93827000000E+00  0.93827000000E+00 0. -1.
     999902    2    1    2    0    0 -0.11327266322E-01  0.16451432671E-01 -0.13063029853E-01  0.10200637194E+01  0.10197844833E+01 0.  0.
     999903    2    3    3    0    0  0.92857134527E-01 -0.66369748286E-01 -0.56920640327E-01  0.12897605405E+00  0.19169567114E-01 0.  0.
         14    1    1    2    0    0  0.11327266322E-01 -0.16451432671E-01  0.13063029853E-01  0.23866280569E-01  0.00000000000E+00 0. -1.
     999901    1    3    3    0    0 -0.10418440085E+00  0.82821180957E-01  0.43857610474E-01  0.89108766538E+00  0.88000000000E+00 0.  1.
        -11    1    4    4    0    0  0.44820820355E-01 -0.31026109682E-01 -0.37833249190E-01  0.66356169906E-01  0.51100000000E-03 0.  1.
         11    1    4    4    0    0  0.48036314171E-01 -0.35343638604E-01 -0.19087391137E-01  0.62619884145E-01  0.51100000000E-03 0. -1.
</event>
<event>
 8    1  0.1109294E+005  0.1043930E+01  0.7957747E-01            NaN
         13   -1    0    0    0    0  0.00000000000E+00  0.00000000000E+00  0.74505805969E-08  0.10566000000E+00  0.10566000000E+00 0. -1.
     999900   -1    0    0    0    0 -0.00000000000E+00 -0.00000000000E+00 -0.74505805969E-08  0.93827000000E+00  0.93827000000E+00 0.  1.
     999902    2    1    2    0    0  0.47659727822E-02  0.36236707852E-02 -0.22548248558E-01  0.10206004265E+01  0.10203337501E+01 0.  0.
     999903    2    3    3    0    0  0.89956766206E-01  0.86517710018E-01  0.33676731456E-01  0.13083071394E+00  0.20125097127E-01 0.  0.
         14    1    1    2    0    0 -0.47659727822E-02 -0.36236707852E-02  0.22548248558E-01  0.23329573497E-01  0.00000000000E+00 0. -1.
     999901    1    3    3    0    0 -0.85190793424E-01 -0.82894039233E-01 -0.56224980014E-01  0.88976971257E+00  0.88000000000E+00 0.  1.
        -11    1    4    4    0    0  0.60445243677E-01  0.62958636439E-01  0.14500441735E-01  0.88475653809E-01  0.51100000000E-03 0.  1.
         11    1    4    4    0    0  0.29511522530E-01  0.23559073579E-01  0.19176289721E-01  0.42355060127E-01  0.51100000000E-03 0. -1.
</event>
<event>
 8    1  0.1109294E+005  0.1043930E+01  0.7957747E-01            NaN
         13   -1    0    0    0    0  0.00000000000E+00  0.00000000000E+00  0.74505805969E-08  0.10566000000E+00  0.10566000000E+00 0. -1.
     999900   -1    0    0    0    0 -0.00000000000E+00 -0.00000000000E+00 -0.74505805969E-08  0.93827000000E+00  0.93827000000E+00 0.  1.
     999902    2    1    2    0    0 -0.21091499931E-01 -0.86970959730E-02  0.74026537303E-02  0.10199447935E+01  0.10196627343E+01 0.  0.
     999903    2    3    3    0    0 -0.65946172454E-01  0.11007326946E+00  0.14113388847E-01  0.13080848489E+00  0.21134087722E-01 0.  0.
         14    1    1    2    0    0  0.21091499931E-01  0.86970959730E-02 -0.74026537303E-02  0.23985206481E-01  0.00000000000E+00 0. -1.
     999901    1    3    3    0    0  0.44854672524E-01 -0.11877036543E+00 -0.67107351166E-02  0.88913630863E+00  0.88000000000E+00 0.  1.
        -11    1    4    4    0    0 -0.42069744632E-01  0.61998648670E-01  0.17768697895E-01  0.77004438808E-01  0.51100000000E-03 0.  1.
         11    1    4    4    0    0 -0.23876427822E-01  0.48074620791E-01 -0.36553090478E-02  0.53804046084E-01  0.51100000000E-03 0. -1.
</event>
<event>
 8    1  0.1109294E+005  0.1043930E+01  0.7957747E-01            NaN
         13   -1    0    0    0    0  0.00000000000E+00  0.00000000000E+00  0.74505805969E-08  0.10566000000E+00  0.10566000000E+00 0.  1.
     999900   -1    0    0    0    0 -0.00000000000E+00 -0.00000000000E+00 -0.74505805969E-08  0.93827000000E+00  0.93827000000E+00 0.  1.
     999902    2    1    2    0    0  0.20955830774E-01  0.84588746658E-02  0.17545527701E-02  0.10212633315E+01  0.10210117602E+01 0.  0.
     999903    2    3    3    0    0 -0.80119248550E-01 -0.97550747748E-01  0.17297231467E-01  0.12902133153E+00  0.20299443320E-01 0.  0.
         14    1    1    2    0    0 -0.20955830774E-01 -0.84588746658E-02 -0.17545527701E-02  0.22666668469E-01  0.00000000000E+00 0.  1.
     999901    1    3    3    0    0  0.10107507932E+00  0.10600962241E+00 -0.15542678697E-01  0.89224200000E+00  0.88000000000E+00 0.  1.
        -11    1    4    4    0    0 -0.27425430122E-01 -0.36748998165E-01 -0.32722055346E-02  0.45974031078E-01  0.51100000000E-03 0.  1.
         11    1    4    4    0    0 -0.52693818428E-01 -0.60801749583E-01  0.20569437001E-01  0.83047300452E-01  0.51100000000E-03 0. -1.
</event>
<event>
 8    1  0.1109294E+005  0.1043930E+01  0.7957747E-01            NaN
         13   -1    0    0    0    0  0.00000000000E+00  0.00000000000E+00  0.74505805969E-08  0.10566000000E+00  0.10566000000E+00 0.  1.
     999900   -1    0    0    0    0 -0.00000000000E+00 -0.00000000000E+00 -0.74505805969E-08  0.93827000000E+00  0.93827000000E+00 0. -1.
     999902    2    1    2    0    0 -0.16968041940E-01  0.17454773724E-01  0.49960696390E-04  0.10195869092E+01  0.10192962667E+01 0.  0.
     999903    2    3    3    0    0  0.58195999450E-01  0.11570551763E+00  0.96412581449E-02  0.13088288943E+00  0.16212209147E-01 0.  0.
         14    1    1    2    0    0  0.16968041940E-01 -0.17454773724E-01 -0.49960696390E-04  0.24343090787E-01  0.00000000000E+00 0. -1.
     999901    1    3    3    0    0 -0.75164041390E-01 -0.98250743901E-01 -0.95912974485E-02  0.88870401978E+00  0.88000000000E+00 0. -1.
        -11    1    4    4    0    0  0.40003466061E-01  0.79626953398E-01 -0.91811846725E-03  0.89116962846E-01  0.51100000000E-03 0.  1.
         11    1    4    4    0    0  0.18192533389E-01  0.36078564227E-01  0.10559376612E-01  0.41765926582E-01  0.51100000000E-03 0. -1.
</event>
<event>
 8    1  0.1109294E+005  0.1043930E+01  0.7957747E-01            NaN
         13   -1    0    0    0    0  0.00000000000E+00  0.00000000000E+00  0.74505805969E-08  0.10566000000E+00  0.10566000000E+00 0. -1.
     999900   -1    0    0    0    0 -0.00000000000E+00 -0.00000000000E+00 -0.74505805969E-08  0.93827000000E+00  0.93827000000E+00 0. -1.
     999902    2    1    2    0    0 -0.22930282750E-02 -0.24190338671E-01  0.98846026579E-02  0.10176976567E+01  0.10173595159E+01 0.  0.
     999903    2    3    3    0    0  0.22420918540E-01 -0.53994284772E-01 -0.11284110452E+00  0.12833796933E+00  0.17872860030E-01 0.  0.
         14    1    1    2    0    0  0.22930282750E-02  0.24190338671E-01 -0.98846026579E-02  0.26232343269E-01  0.00000000000E+00 0.  1.
     999901    1    3    3    0    0 -0.24713946815E-01  0.29803946101E-01  0.12272570718E+00  0.88935968740E+00  0.88000000000E+00 0.  1.
        -11    1    4    4    0    0  0.16138799435E-01 -0.52048936361E-01 -0.99099826331E-01  0.11309548763E+00  0.51100000000E-03 0. -1.
         11    1    4    4    0    0  0.62821191052E-02 -0.19453484112E-02 -0.13741278192E-01  0.15242481696E-01  0.51100000000E-03 0.  1.
</event>
<event>
 8    1  0.1109294E+005  0.1043930E+01  0.7957747E-01            NaN
         13   -1    0    0    0    0  0.00000000000E+00  0.00000000000E+00  0.74505805969E-08  0.10566000000E+00  0.10566000000E+00 0.  1.
     999900   -1    0    0    0    0 -0.00000000000E+00 -0.00000000000E+00 -0.74505805969E-08  0.93827000000E+00  0.93827000000E+00 0.  1.
     999902    2    1    2    0    0  0.25649091072E-01 -0.26736602456E-02 -0.50370858745E-02  0.10176546015E+01  0.10173153353E+01 0.  0.
     999903    2    3    3    0    0  0.92656072306E-01 -0.89750984347E-01  0.77697767065E-02  0.13072934443E+00  0.19733350936E-01 0.  0.
         14    1    1    2    0    0 -0.25649091072E-01  0.26736602456E-02  0.50370858745E-02  0.26275398494E-01  0.00000000000E+00 0.  1.
     999901    1    3    3    0    0 -0.67006981234E-01  0.87077324101E-01 -0.12806862581E-01  0.88692525707E+00  0.88000000000E+00 0.  1.
        -11    1    4    4    0    0  0.14257329726E-01 -0.19563170458E-01  0.80031259834E-02  0.25500984996E-01  0.51100000000E-03 0. -1.
         11    1    4    4    0    0  0.78398742580E-01 -0.70187813889E-01 -0.23334927697E-03  0.10522835944E+00  0.51100000000E-03 0.  1.
</event>
<event>
 8    1  0.1109294E+005  0.1043930E+01  0.7957747E-01            NaN
         13   -1    0    0    0    0  0.00000000000E+00  0.00000000000E+00  0.74505805969E-08  0.10566000000E+00  0.10566000000E+00 0.  1.
     999900   -1    0    0    0    0 -0.00000000000E+00 -0.00000000000E+00 -0.74505805969E-08  0.93827000000E+00  0.93827000000E+00 0.  1.
     999902    2    1    2    0    0  0.20756791985E-01 -0.10789483445E-03  0.12755379172E-01  0.10195670003E+01  0.10192758765E+01 0.  0.
     999903    2    3    3    0    0  0.10241702517E+00  0.74384876851E-01  0.33256211052E-01  0.13241546265E+00  0.20137582440E-01 0.  0.
         14    1    1    2    0    0 -0.20756791985E-01  0.10789483445E-03 -0.12755379172E-01  0.24362999664E-01  0.00000000000E+00 0. -1.
     999901    1    3    3    0    0 -0.81660233180E-01 -0.74492771685E-01 -0.20500831880E-01  0.88715153769E+00  0.88000000000E+00 0. -1.
        -11    1    4    4    0    0  0.75365186944E-01  0.59181738930E-01  0.16802095780E-01  0.97288031995E-01  0.51100000000E-03 0. -1.
         11    1    4    4    0    0  0.27051838221E-01  0.15203137921E-01  0.16454115272E-01  0.35127430651E-01  0.51100000000E-03 0.  1.
</event>
<event>
 8    1  0.1109294E+005  0.1043930E+01  0.7957747E-01            NaN
         13   -1    0    0    0    0  0.00000000000E+00  0.00000000000E+00  0.74505805969E-08  0.10566000000E+00  0.10566000000E+00 0.  1.
     999900   -1    0    0    0    0 -0.00000000000E+00 -0.00000000000E+00 -0.74505805969E-08  0.93827000000E+00  0.93827000000E+00 0.  1.
     999902    2    1    2    0    0 -0.11970252784E-01 -0.98910038972E-02 -0.18681661781E-01  0.10196375444E+01  0.10193481244E+01 0.  0.
     999903    2    3    3    0    0 -0.47411918894E-01  0.77031921661E-01 -0.93454788674E-01  0.13149187667E+00  0.19352237514E-01 0.  0.
         14    1    1    2    0    0  0.11970252784E-01  0.98910038972E-02  0.18681661781E-01  0.24292455551E-01  0.00000000000E+00 0.  1.
     999901    1    3    3    0    0  0.35441666110E-01 -0.86922925558E-01  0.74773126893E-01  0.88814566778E+00  0.88000000000E+00 0. -1.
        -11    1    4    4    0    0 -0.43719585940E-01  0.64393883526E-01 -0.70461144770E-01  0.10499051611E+00  0.51100000000E-03 0.  1.
         11    1    4    4    0    0 -0.36923329542E-02  0.12638038135E-01 -0.22993643904E-01  0.26501360560E-01  0.51100000000E-03 0. -1.
</event>
<event>
 8    1  0.1109294E+005  0.1043930E+01  0.7957747E-01            NaN
         13   -1    0    0    0    0  0.00000000000E+00  0.00000000000E+00  0.74505805969E-08  0.10566000000E+00  0.10566000000E+00 0.  1.
     999900   -1    0    0    0    0 -0.00000000000E+00 -0.00000000000E+00 -0.74505805969E-08  0.93827000000E+00  0.93827000000E+00 0.  1.
     999902    2    1    2    0    0 -0.31993716429E-02  0.19277002935E-01 -0.13336470368E-01  0.10202720148E+01  0.10199976882E+01 0.  0.
     999903    2    3    3    0    0  0.56022952207E-01  0.11194724527E+00  0.36975632805E-01  0.13200045432E+00  0.19651097226E-01 0.  0.
         14    1    1    2    0    0  0.31993716429E-02 -0.19277002935E-01  0.13336470368E-01  0.23657985183E-01  0.00000000000E+00 0.  1.
     999901    1    3    3    0    0 -0.59222323850E-01 -0.92670242337E-01 -0.50312103172E-01  0.88827156049E+00  0.88000000000E+00 0.  1.
        -11    1    4    4    0    0  0.23384100251E-01  0.35788594206E-01  0.44467216379E-02  0.42984579492E-01  0.51100000000E-03 0. -1.
         11    1    4    4    0    0  0.32638851955E-01  0.76158651066E-01  0.32528911167E-01  0.89015874831E-01  0.51100000000E-03 0.  1.
</event>
<event>
 8    1  0.1109294E+005  0.1043930E+01  0.7957747E-01            NaN
         13   -1    0    0    0    0  0.00000000000E+00  0.00000000000E+00  0.74505805969E-08  0.10566000000E+00  0.10566000000E+00 0.  1.
     999900   -1    0    0    0    0 -0.00000000000E+00 -0.00000000000E+00 -0.74505805969E-08  0.93827000000E+00  0.93827000000E+00 0.  1.
     999902    2    1    2    0    0 -0.47697348434E-02  0.23726500975E-01  0.29069886249E-02  0.10195548528E+01  0.10192634351E+01 0.  0.
     999903    2    3    3    0    0 -0.11473785385E+00 -0.25403073149E-01  0.52463646676E-01  0.12996923880E+00  0.18151517306E-01 0.  0.
         14    1    1    2    0    0  0.47697348434E-02 -0.23726500975E-01 -0.29069886249E-02  0.24375147217E-01  0.00000000000E+00 0. -1.
     999901    1    3    3    0    0  0.10996811900E+00  0.49129574124E-01 -0.49556658052E-01  0.88958561398E+00  0.88000000000E+00 0.  1.
        -11    1    4    4    0    0 -0.66080159068E-01 -0.22192015872E-01  0.36300241942E-01  0.78594158033E-01  0.51100000000E-03 0.  1.
         11    1    4    4    0    0 -0.48657694779E-01 -0.32110572771E-02  0.16163404734E-01  0.51375080765E-01  0.51100000000E-03 0. -1.
</event>
<event>
 8    1  0.1109294E+005  0.1043930E+01  0.7957747E-01            NaN
         13   -1    0    0    0    0  0.00000000000E+00  0.00000000000E+00  0.74505805969E-08  0.10566000000E+00  0.10566000000E+00 0.  1.
     999900   -1    0    0    0    0 -0.00000000000E+00 -0.00000000000E+00 -0.74505805969E-08  0.93827000000E+00  0.93827000000E+00 0.  1.
     999902    2    1    2    0    0 -0.95549571930E-02 -0.20631037944E-01  0.39467074219E-02  0.10208537474E+01  0.10205928964E+01 0.  0.
     999903    2    3    3    0    0  0.30359316709E-01  0.10180370219E+00 -0.68759661003E-01  0.12851433281E+00  0.22413408214E-01 0.  0.
         14    1    1    2    0    0  0.95549571930E-02  0.20631037944E-01 -0.39467074219E-02  0.23076252579E-01  0.00000000000E+00 0.  1.
     999901    1    3    3    0    0 -0.39914273902E-01 -0.12243474013E+00  0.72706368425E-01  0.89233941461E+00  0.88000000000E+00 0. -1.
        -11    1    4    4    0    0  0.31725716806E-01  0.77882993199E-01 -0.48156396283E-01  0.96910171605E-01  0.51100000000E-03 0. -1.
         11    1    4    4    0    0 -0.13664000970E-02  0.23920708986E-01 -0.20603264720E-01  0.31604161210E-01  0.51100000000E-03 0.  1.
</event>
<event>
 8    1  0.1109294E+005  0.1043930E+01  0.7957747E-01            NaN
         13   -1    0    0    0    0  0.00000000000E+00  0.00000000000E+00  0.74505805969E-08  0.10566000000E+00  0.10566000000E+00 0. -1.
     999900   -1    0    0    0    0 -0.00000000000E+00 -0.00000000000E+00 -0.74505805969E-08  0.93827000000E+00  0.93827000000E+00 0.  1.
     999902    2    1    2    0    0  0.15430471925E-01 -0.16425173102E-01  0.65037972056E-02  0.10204739741E+01  0.10202043651E+01 0.  0.
     999903    2    3    3    0    0  0.63430730201E-01 -0.56348426250E-01  0.10127869793E+00  0.13318587386E+00  0.16807726409E-01 0.  0.
         14    1    1    2    0    0 -0.15430471925E-01  0.16425173102E-01 -0.65037972056E-02  0.23456025950E-01  0.00000000000E+00 0.  1.
     999901    1    3    3    0    0 -0.48000258276E-01  0.39923253148E-01 -0.94774900721E-01  0.88728810019E+00  0.88000000000E+00 0.  1.
        -11    1    4    4    0    0  0.56268363669E-01 -0.52799529419E-01  0.83546674490E-01  0.11372874305E+00  0.51100000000E-03 0.  1.
         11    1    4    4    0    0  0.71623665317E-02 -0.35488968305E-02  0.17732023436E-01  0.19457130806E-01  0.51100000000E-03 0. -1.
</event>
<event>
 8    1  0.1109294E+005  0.1043930E+01  0.7957747E-01            NaN
         13   -1    0    0    0    0  0.00000000000E+00  0.00000000000E+00  0.74505805969E-08  0.10566000000E+00  0.10566000000E+00 0.  1.
     999900   -1    0    0    0    0 -0.00000000000E+00 -0.00000000000E+00 -0.74505805969E-08  0.93827000000E+00  0.93827000000E+00 0. -1.
     999902    2    1    2    0    0 -0.56327289439E-02  0.40741751676E-02 -0.19931866108E-01  0.10228206223E+01  0.10226027673E+01 0.  0.
     999903    2    3    3    0    0  0.84015421351E-02  0.65083617844E-01  0.11144955955E+00  0.13086760123E+00  0.19971517386E-01 0.  0.
         14    1    1    2    0    0  0.56327289439E-02 -0.40741751676E-02  0.19931866108E-01  0.21109377660E-01  0.00000000000E+00 0.  1.
     999901    1    3    3    0    0 -0.14034271079E-01 -0.61009442676E-01 -0.13138142565E+00  0.89195302111E+00  0.88000000000E+00 0. -1.
        -11    1    4    4    0    0 -0.36029386400E-03  0.55849569988E-01  0.90299608587E-01  0.10617713837E+00  0.51100000000E-03 0.  1.
         11    1    4    4    0    0  0.87618359991E-02  0.92340478559E-02  0.21149950960E-01  0.24690462865E-01  0.51100000000E-03 0. -1.
</event>
<event>
 8    1  0.1109294E+005  0.1043930E+01  0.7957747E-01            NaN
         13   -1    0    0    0    0  0.00000000000E+00  0.00000000000E+00  0.74505805969E-08  0.10566000000E+00  0.10566000000E+00 0. -1.
     999900   -1    0    0    0    0 -0.00000000000E+00 -0.00000000000E+00 -0.74505805969E-08  0.93827000000E+00  0.93827000000E+00 0.  1.
     999902    2    1    2    0    0  0.14004582380E-02 -0.17067314254E-01  0.17839639726E-01  0.10192013275E+01  0.10189012900E+01 0.  0.
     999903    2    3    3    0    0  0.12058543507E+00 -0.14679283008E-01 -0.39672107846E-01  0.12930337687E+00  0.19727103903E-01 0.  0.
         14    1    1    2    0    0 -0.14004582380E-02  0.17067314254E-01 -0.17839639726E-01  0.24728672522E-01  0.00000000000E+00 0.  1.
     999901    1    3    3    0    0 -0.11918497683E+00 -0.23880312463E-02  0.57511747572E-01  0.88989795061E+00  0.88000000000E+00 0. -1.
        -11    1    4    4    0    0  0.54371445262E-01 -0.11021536681E-01 -0.27337085158E-01  0.61849055583E-01  0.51100000000E-03 0.  1.
         11    1    4    4    0    0  0.66213989805E-01 -0.36577463268E-02 -0.12335022688E-01  0.67454321283E-01  0.51100000000E-03 0. -1.
</event>
<event>
 8    1  0.1109294E+005  0.1043930E+01  0.7957747E-01            NaN
         13   -1    0    0    0    0  0.00000000000E+00  0.00000000000E+00  0.74505805969E-08  0.10566000000E+00  0.10566000000E+00 0. -1.
     999900   -1    0    0    0    0 -0.00000000000E+00 -0.00000000000E+00 -0.74505805969E-08  0.93827000000E+00  0.93827000000E+00 0.  1.
     999902    2    1    2    0    0 -0.88466806850E-02  0.21096082506E-01 -0.10154855260E-01  0.10189014255E+01  0.10185939747E+01 0.  0.
     999903    2    3    3    0    0  0.12212873343E+00  0.34154190705E-01  0.10224671118E-01  0.12887873006E+00  0.20572965086E-01 0.  0.
         14    1    1    2    0    0  0.88466806850E-02 -0.21096082506E-01  0.10154855260E-01  0.25028574502E-01  0.00000000000E+00 0.  1.
     999901    1    3    3    0    0 -0.13097541411E+00 -0.13058108199E-01 -0.20379526378E-01  0.89002269543E+00  0.88000000000E+00 0.  1.
        -11    1    4    4    0    0  0.72639258765E-01  0.22240114799E-01  0.16032098338E-01  0.77642603758E-01  0.51100000000E-03 0.  1.
         11    1    4    4    0    0  0.49489474662E-01  0.11914075906E-01 -0.58074272195E-02  0.51236126306E-01  0.51100000000E-03 0. -1.
</event>
<event>
 8    1  0.1109294E+005  0.1043930E+01  0.7957747E-01            NaN
         13   -1    0    0    0    0  0.00000000000E+00  0.00000000000E+00  0.74505805969E-08  0.10566000000E+00  0.10566000000E+00 0. -1.
     999900   -1    0    0    0    0 -0.00000000000E+00 -0.00000000000E+00 -0.74505805969E-08  0.93827000000E+00  0.93827000000E+00 0.  1.
     999902    2    1    2    0    0  0.13265767731E-01 -0.18699789893E-01 -0.66179746729E-02  0.10200666322E+01  0.10197874650E+01 0.  0.
     999903    2    3    3    0    0 -0.12405267590E+00 -0.12147092228E-01  0.25110448393E-01  0.12882817606E+00  0.20725493543E-01 0.  0.
         14    1    1    2    0    0 -0.13265767731E-01  0.18699789893E-01  0.66179746729E-02  0.23863367832E-01  0.00000000000E+00 0. -1.
     999901    1    3    3    0    0  0.13731844363E+00 -0.65526976651E-02 -0.31728423066E-01  0.89123845610E+00  0.88000000000E+00 0.  1.
        -11    1    4    4    0    0 -0.27476245771E-01 -0.10615034752E-01  0.97059818069E-02  0.31017579666E-01  0.51100000000E-03 0.  1.
         11    1    4    4    0    0 -0.96576430126E-01 -0.15320574753E-02  0.15404466586E-01  0.97810596399E-01  0.51100000000E-03 0. -1.
</event>
<event>
 8    1  0.1109294E+005  0.1043930E+01  0.7957747E-01            NaN
         13   -1    0    0    0    0  0.00000000000E+00  0.00000000000E+00  0.74505805969E-08  0.10566000000E+00  0.10566000000E+00 0. -1.
     999900   -1    0    0    0    0 -0.00000000000E+00 -0.00000000000E+00 -0.74505805969E-08  0.93827000000E+00  0.93827000000E+00 0. -1.
     999902    2    1    2    0    0 -0.14868649985E-01  0.19074365768E-01  0.11094120716E-02  0.10197196928E+01  0.10194322502E+01 0.  0.
     999903    2    3    3    0    0 -0.84207679053E-01 -0.95566064782E-01 -0.12240635464E-01  0.12947896518E+00  0.19777849149E-01 0.  0.
         14    1    1    2    0    0  0.14868649985E-01 -0.19074365768E-01 -0.11094120716E-02  0.24210307247E-01  0.00000000000E+00 0.  1.
     999901    1    3    3    0    0  0.69339029068E-01  0.11464043055E+00  0.13350047535E-01  0.89024072758E+00  0.88000000000E+00 0. -1.
        -11    1    4    4    0    0 -0.65306124262E-01 -0.62225435067E-01 -0.41277688538E-02  0.90300577141E-01  0.51100000000E-03 0.  1.
         11    1    4    4    0    0 -0.18901554791E-01 -0.33340629715E-01 -0.81128666099E-02  0.39178388034E-01  0.51100000000E-03 0. -1.
</event>
<event>
 8    1  0.1191023E+005  0.1043930E+01  0.7957747E-01            NaN
         13   -1    0    0    0    0  0.00000000000E+00  0.00000000000E+00  0.74505805969E-08  0.10566000000E+00  0.10566000000E+00 0.  1.
     999900   -1    0    0    0    0 -0.00000000000E+00 -0.00000000000E+00 -0.74505805969E-08  0.93827000000E+00  0.93827000000E+00 0.  1.
     999902    2    1    2    0    0 -0.13584445398E-01 -0.19391453168E-01  0.34944387356E-02  0.10199972460E+01  0.10197164337E+01 0.  0.
     999903    2    3    3    0    0 -0.66238634369E-01  0.71272130346E-01 -0.83068369699E-01  0.12955608072E+00  0.20424268898E-01 0.  0.
         14    1    1    2    0    0  0.13584445398E-01  0.19391453168E-01 -0.34944387356E-02  0.23932754016E-01  0.00000000000E+00 0. -1.
     999901    1    3    3    0    0  0.52654188972E-01 -0.90663583513E-01  0.86562808435E-01  0.89044116526E+00  0.88000000000E+00 0. -1.
        -11    1    4    4    0    0 -0.16955255819E-01  0.30787339376E-01 -0.35767015987E-01  0.50148594390E-01  0.51100000000E-03 0. -1.
         11    1    4    4    0    0 -0.49283378551E-01  0.40484790970E-01 -0.47301353712E-01  0.79407486330E-01  0.51100000000E-03 0.  1.
</event>
<event>
 8    1  0.1109294E+005  0.1043930E+01  0.7957747E-01            NaN
         13   -1    0    0    0    0  0.00000000000E+00  0.00000000000E+00  0.74505805969E-08  0.10566000000E+00  0.10566000000E+00 0. -1.
     999900   -1    0    0    0    0 -0.00000000000E+00 -0.00000000000E+00 -0.74505805969E-08  0.93827000000E+00  0.93827000000E+00 0. -1.
     999902    2    1    2    0    0 -0.22825871754E-01 -0.10586741700E-01 -0.27025916005E-02  0.10186238047E+01  0.10183094087E+01 0.  0.
     999903    2    3    3    0    0  0.97752174004E-01  0.44747840478E-01 -0.63991419550E-01  0.12657150713E+00  0.19172581748E-01 0.  0.
         14    1    1    2    0    0  0.22825871754E-01  0.10586741700E-01  0.27025916005E-02  0.25306195338E-01  0.00000000000E+00 0. -1.
     999901    1    3    3    0    0 -0.12057804576E+00 -0.55334582178E-01  0.61288827949E-01  0.89205229753E+00  0.88000000000E+00 0.  1.
        -11    1    4    4    0    0  0.82994413021E-01  0.30651681037E-01 -0.48129559422E-01  0.10071898408E+00  0.51100000000E-03 0. -1.
         11    1    4    4    0    0  0.14757760982E-01  0.14096159441E-01 -0.15861860128E-01  0.25852523048E-01  0.51100000000E-03 0.  1.
</event>
<event>
 8    1  0.1109294E+005  0.1043930E+01  0.7957747E-01            NaN
         13   -1    0    0    0    0  0.00000000000E+00  0.00000000000E+00  0.74505805969E-08  0.10566000000E+00  0.10566000000E+00 0. -1.
     999900   -1    0    0    0    0 -0.00000000000E+00 -0.00000000000E+00 -0.74505805969E-08  0.93827000000E+00  0.93827000000E+00 0.  1.
     999902    2    1    2    0    0  0.22894948334E-01  0.56697653015E-02 -0.54864603406E-03  0.10203370792E+01  0.10200642771E+01 0.  0.
     999903    2    3    3    0    0  0.27909421912E-01 -0.57344387002E-01 -0.11249561309E+00  0.13099572083E+00  0.20911751725E-01 0.  0.
         14    1    1    2    0    0 -0.22894948334E-01 -0.56697653015E-02  0.54864603406E-03  0.23592920766E-01  0.00000000000E+00 0. -1.
     999901    1    3    3    0    0 -0.50144735781E-02  0.63014152303E-01  0.11194696705E+00  0.88934135840E+00  0.88000000000E+00 0. -1.
        -11    1    4    4    0    0  0.28072577725E-01 -0.46024327453E-01 -0.10280888827E+00  0.11608719553E+00  0.51100000000E-03 0. -1.
         11    1    4    4    0    0 -0.16315581282E-03 -0.11320059549E-01 -0.96867248198E-02  0.14908525304E-01  0.51100000000E-03 0.  1.
</event>
<event>
 8    1  0.1109294E+005  0.1043930E+01  0.7957747E-01            NaN
         13   -1    0    0    0    0  0.00000000000E+00  0.00000000000E+00  0.74505805969E-08  0.10566000000E+00  0.10566000000E+00 0. -1.
     999900   -1    0    0    0    0 -0.00000000000E+00 -0.00000000000E+00 -0.74505805969E-08  0.93827000000E+00  0.93827000000E+00 0.  1.
     999902    2    1    2    0    0 -0.22036556660E-01  0.10307886166E-01  0.57728710878E-02  0.10189262325E+01  0.10186193985E+01 0.  0.
     999903    2    3    3    0    0 -0.21109382664E-01 -0.24946202628E-01  0.12465032952E+00  0.13023305683E+00  0.18842117209E-01 0.  0.
         14    1    1    2    0    0  0.22036556660E-01 -0.10307886166E-01 -0.57728710878E-02  0.25003767461E-01  0.00000000000E+00 0.  1.
     999901    1    3    3    0    0 -0.92717399618E-03  0.35254088794E-01 -0.11887745843E+00  0.88869317571E+00  0.88000000000E+00 0.  1.
        -11    1    4    4    0    0 -0.12938522283E-01 -0.18465882906E-01  0.49938430726E-01  0.54795092615E-01  0.51100000000E-03 0.  1.
         11    1    4    4    0    0 -0.81708603806E-02 -0.64803197221E-02  0.74711898791E-01  0.75437964216E-01  0.51100000000E-03 0. -1.
</event>
<event>
 8    1  0.1109294E+005  0.1043930E+01  0.7957747E-01            NaN
         13   -1    0    0    0    0  0.00000000000E+00  0.00000000000E+00  0.74505805969E-08  0.10566000000E+00  0.10566000000E+00 0. -1.
     999900   -1    0    0    0    0 -0.00000000000E+00 -0.00000000000E+00 -0.74505805969E-08  0.93827000000E+00  0.93827000000E+00 0.  1.
     999902    2    1    2    0    0  0.23986197790E-01 -0.14622758595E-03 -0.19707866643E-02  0.10198625309E+01  0.10195785104E+01 0.  0.
     999903    2    3    3    0    0 -0.36584051932E-01  0.59139823917E-01  0.10696873815E+00  0.12910363476E+00  0.19736411457E-01 0.  0.
         14    1    1    2    0    0 -0.23986197790E-01  0.14622758595E-03  0.19707866643E-02  0.24067469061E-01  0.00000000000E+00 0. -1.
     999901    1    3    3    0    0  0.60570249723E-01 -0.59286051503E-01 -0.10893952482E+00  0.89075889618E+00  0.88000000000E+00 0.  1.
        -11    1    4    4    0    0 -0.31702511033E-01  0.54640733487E-01  0.83478633670E-01  0.10468811949E+00  0.51100000000E-03 0.  1.
         11    1    4    4    0    0 -0.48815408991E-02  0.44990904296E-02  0.23490104484E-01  0.24415515270E-01  0.51100000000E-03 0. -1.
</event>
<event>
 8    1  0.1109294E+005  0.1043930E+01  0.7957747E-01            NaN
         13   -1    0    0    0    0  0.00000000000E+00  0.00000000000E+00  0.74505805969E-08  0.10566000000E+00  0.10566000000E+00 0. -1.
     999900   -1    0    0    0    0 -0.00000000000E+00 -0.00000000000E+00 -0.74505805969E-08  0.93827000000E+00  0.93827000000E+00 0. -1.
     999902    2    1    2    0    0 -0.18175462526E-01  0.48728337456E-02 -0.14582024723E-01  0.10201239631E+01  0.10198461515E+01 0.  0.
     999903    2    3    3    0    0 -0.83288584194E-01 -0.93503077852E-01  0.33233179444E-01  0.13096490404E+00  0.19171542718E-01 0.  0.
         14    1    1    2    0    0  0.18175462526E-01 -0.48728337456E-02  0.14582024723E-01  0.23806036876E-01  0.00000000000E+00 0. -1.
     999901    1    3    3    0    0  0.65113121668E-01  0.98375911597E-01 -0.47815204166E-01  0.88915905908E+00  0.88000000000E+00 0. -1.
        -11    1    4    4    0    0 -0.61579724778E-01 -0.80530134209E-01  0.26102814036E-01  0.10468420626E+00  0.51100000000E-03 0.  1.
         11    1    4    4    0    0 -0.21708859416E-01 -0.12972943642E-01  0.71303654080E-02  0.26280697779E-01  0.51100000000E-03 0. -1.
</event>
<event>
 8    1  0.1109294E+005  0.1043930E+01  0.7957747E-01            NaN
         13   -1    0    0    0    0  0.00000000000E+00  0.00000000000E+00  0.74505805969E-08  0.10566000000E+00  0.10566000000E+00 0. -1.
     999900   -1    0    0    0    0 -0.00000000000E+00 -0.00000000000E+00 -0.74505805969E-08  0.93827000000E+00  0.93827000000E+00 0.  1.
     999902    2    1    2    0    0  0.14657949014E-01  0.17206111952E-01  0.16662019094E-02  0.10212654465E+01  0.10210139226E+01 0.  0.
     999903    2    3    3    0    0 -0.92199282487E-01  0.83920700904E-01 -0.37049528316E-01  0.13145186371E+00  0.19066546428E-01 0.  0.
         14    1    1    2    0    0 -0.14657949014E-01 -0.17206111952E-01 -0.16662019094E-02  0.22664553528E-01  0.00000000000E+00 0. -1.
     999901    1    3    3    0    0  0.10685723150E+00 -0.66714588952E-01  0.38715730226E-01  0.88981358276E+00  0.88000000000E+00 0. -1.
        -11    1    4    4    0    0 -0.72900976535E-01  0.59357080248E-01 -0.20997388563E-01  0.96327393834E-01  0.51100000000E-03 0. -1.
         11    1    4    4    0    0 -0.19298305952E-01  0.24563620656E-01 -0.16052139753E-01  0.35124469875E-01  0.51100000000E-03 0.  1.
</event>
<event>
 7    1  0.1109294E+005  0.1043930E+01  0.7957747E-01            NaN
         13   -1    0    0    0    0  0.00000000000E+00  0.00000000000E+00  0.74505805969E-08  0.10566000000E+00  0.10566000000E+00 0.  1.
     999900   -1    0    0    0    0 -0.00000000000E+00 -0.00000000000E+00 -0.74505805969E-08  0.93827000000E+00  0.93827000000E+00 0. -1.
     999903    2    1    2    0    0 -0.74236284294E-01 -0.56007259593E-01 -0.13655008413E-01  0.96164186384E-01  0.20328611737E-01 0.  0.
         14    1    1    2    0    0 -0.56337811547E-01  0.48704940862E-02  0.21393628328E-02  0.56588405136E-01  0.00000000000E+00 0. -1.
     999901    1    1    2    0    0  0.13057409584E+00  0.51136765507E-01  0.11515645580E-01  0.89117740848E+00  0.88000000000E+00 0. -1.
        -11    1    3    3    0    0 -0.64260532054E-01 -0.42149261103E-01 -0.50013883574E-02  0.77014616781E-01  0.51100000000E-03 0. -1.
         11    1    3    3    0    0 -0.99757522400E-02 -0.13857998490E-01 -0.86536200554E-02  0.19149569603E-01  0.51100000000E-03 0.  1.
</event>
<event>
 8    1  0.1109294E+005  0.1043930E+01  0.7957747E-01            NaN
         13   -1    0    0    0    0  0.00000000000E+00  0.00000000000E+00  0.74505805969E-08  0.10566000000E+00  0.10566000000E+00 0. -1.
     999900   -1    0    0    0    0 -0.00000000000E+00 -0.00000000000E+00 -0.74505805969E-08  0.93827000000E+00  0.93827000000E+00 0.  1.
     999902    2    1    2    0    0 -0.91920578255E-02 -0.17199081581E-01 -0.83871624509E-02  0.10227015562E+01  0.10224812106E+01 0.  0.
     999903    2    3    3    0    0  0.11437117571E+00 -0.63190996563E-01 -0.83465055946E-02  0.13287959049E+00  0.22659513044E-01 0.  0.
         14    1    1    2    0    0  0.91920578255E-02  0.17199081581E-01  0.83871624509E-02  0.21228443849E-01  0.00000000000E+00 0. -1.
     999901    1    3    3    0    0 -0.12356323354E+00  0.45991914982E-01 -0.40656856276E-04  0.88982196566E+00  0.88000000000E+00 0.  1.
        -11    1    4    4    0    0  0.29421124793E-01 -0.96251058142E-02 -0.96912463445E-02  0.32441125485E-01  0.51100000000E-03 0. -1.
         11    1    4    4    0    0  0.84950050921E-01 -0.53565890749E-01  0.13447407498E-02  0.10043846500E+00  0.51100000000E-03 0.  1.
</event>
<event>
 8    1  0.1109294E+005  0.1043930E+01  0.7957747E-01            NaN
         13   -1    0    0    0    0  0.00000000000E+00  0.00000000000E+00  0.74505805969E-08  0.10566000000E+00  0.10566000000E+00 0.  1.
     999900   -1    0    0    0    0 -0.00000000000E+00 -0.00000000000E+00 -0.74505805969E-08  0.93827000000E+00  0.93827000000E+00 0.  1.
     999902    2    1    2    0    0  0.23199555467E-01  0.79392800674E-02  0.28792309192E-03  0.10194078785E+01  0.10191128928E+01 0.  0.
     999903    2    3    3    0    0 -0.10683754050E+00 -0.64362459834E-01 -0.97788472153E-02  0.12686178572E+00  0.21011913941E-01 0.  0.
         14    1    1    2    0    0 -0.23199555467E-01 -0.79392800674E-02 -0.28792309192E-03  0.24522121473E-01  0.00000000000E+00 0. -1.
     999901    1    3    3    0    0  0.13003709597E+00  0.72301739901E-01  0.10066770307E-01  0.89254609281E+00  0.88000000000E+00 0. -1.
        -11    1    4    4    0    0 -0.78378034233E-02 -0.85501795325E-02  0.42198605729E-02  0.12353342738E-01  0.51100000000E-03 0.  1.
         11    1    4    4    0    0 -0.98999737076E-01 -0.55812280301E-01 -0.13998707788E-01  0.11450844298E+00  0.51100000000E-03 0. -1.
</event>
<event>
 8    1  0.1109294E+005  0.1043930E+01  0.7957747E-01            NaN
         13   -1    0    0    0    0  0.00000000000E+00  0.00000000000E+00  0.74505805969E-08  0.10566000000E+00  0.10566000000E+00 0. -1.
     999900   -1    0    0    0    0 -0.00000000000E+00 -0.00000000000E+00 -0.74505805969E-08  0.93827000000E+00  0.93827000000E+00 0.  1.
     999902    2    1    2    0    0 -0.41782859165E-02 -0.10169907727E-01 -0.19877309765E-01  0.10212145308E+01  0.10209618629E+01 0.  0.
     999903    2    3    3    0    0 -0.10752201877E+00  0.57264422906E-01 -0.47300361600E-01  0.13218171937E+00  0.19861623219E-01 0.  0.
         14    1    1    2    0    0  0.41782859165E-02  0.10169907727E-01  0.19877309765E-01  0.22715469175E-01  0.00000000000E+00 0. -1.
     999901    1    3    3    0    0  0.10334373286E+00 -0.67434330633E-01  0.27423051835E-01  0.88903281145E+00  0.88000000000E+00 0. -1.
        -11    1    4    4    0    0 -0.10027911323E-01  0.12774898781E-01 -0.55672484993E-02  0.17175925630E-01  0.51100000000E-03 0. -1.
         11    1    4    4    0    0 -0.97494107449E-01  0.44489524124E-01 -0.41733113101E-01  0.11500579374E+00  0.51100000000E-03 0.  1.
</event>
<event>
 8    1  0.1109294E+005  0.1043930E+01  0.7957747E-01            NaN
         13   -1    0    0    0    0  0.00000000000E+00  0.00000000000E+00  0.74505805969E-08  0.10566000000E+00  0.10566000000E+00 0.  1.
     999900   -1    0    0    0    0 -0.00000000000E+00 -0.00000000000E+00 -0.74505805969E-08  0.93827000000E+00  0.93827000000E+00 0.  1.
     999902    2    1    2    0    0 -0.13702961373E-02 -0.14050336939E-01  0.18792074401E-01  0.10204261335E+01  0.10201554108E+01 0.  0.
     999903    2    3    3    0    0 -0.40485088168E-01 -0.36824853517E-01 -0.11528086494E+00  0.12912136037E+00  0.19685925955E-01 0.  0.
         14    1    1    2    0    0  0.13702961373E-02  0.14050336939E-01 -0.18792074401E-01  0.23503866489E-01  0.00000000000E+00 0. -1.
     999901    1    3    3    0    0  0.39114792031E-01  0.22774516578E-01  0.13407293935E+00  0.89130477314E+00  0.88000000000E+00 0. -1.
        -11    1    4    4    0    0 -0.19914386425E-01 -0.30573753900E-01 -0.67770781226E-01  0.76970625067E-01  0.51100000000E-03 0.  1.
         11    1    4    4    0    0 -0.20570701743E-01 -0.62510996172E-02 -0.47510083719E-01  0.52150735302E-01  0.51100000000E-03 0. -1.
</event>
<event>
 8    1  0.1109294E+005  0.1043930E+01  0.7957747E-01            NaN
         13   -1    0    0    0    0  0.00000000000E+00  0.00000000000E+00  0.74505805969E-08  0.10566000000E+00  0.10566000000E+00 0. -1.
     999900   -1    0    0    0    0 -0.00000000000E+00 -0.00000000000E+00 -0.74505805969E-08  0.93827000000E+00  0.93827000000E+00 0. -1.
     999902    2    1    2    0    0 -0.16527781816E-01 -0.10842844787E-01 -0.12317820624E-01  0.10206391529E+01  0.10203733713E+01 0.  0.
     999903    2    3    3    0    0 -0.61270906270E-01 -0.20371867180E-01 -0.11502719173E+00  0.13348529679E+00  0.20443402228E-01 0.  0.
         14    1    1    2    0    0  0.16527781816E-01  0.10842844787E-01  0.12317820624E-01  0.23290847125E-01  0.00000000000E+00 0. -1.
     999901    1    3    3    0    0  0.44743124454E-01  0.95290223922E-02  0.10270937110E+00  0.88715385608E+00  0.88000000000E+00 0.  1.
        -11    1    4    4    0    0 -0.40380316443E-01 -0.29098546214E-02 -0.69732070428E-01  0.80634111746E-01  0.51100000000E-03 0. -1.
         11    1    4    4    0    0 -0.20890589827E-01 -0.17462012558E-01 -0.45295121301E-01  0.52851185044E-01  0.51100000000E-03 0.  1.
</event>
<event>
 8    1  0.1109294E+005  0.1043930E+01  0.7957747E-01            NaN
         13   -1    0    0    0    0  0.00000000000E+00  0.00000000000E+00  0.74505805969E-08  0.10566000000E+00  0.10566000000E+00 0. -1.
     999900   -1    0    0    0    0 -0.00000000000E+00 -0.00000000000E+00 -0.74505805969E-08  0.93827000000E+00  0.93827000000E+00 0.  1.
     999902    2    1    2    0    0  0.15659829596E-01 -0.17239999552E-01  0.36586408322E-02  0.10203538786E+01  0.10200814693E+01 0.  0.
     999903    2    3    3    0    0  0.10130486556E+00  0.43515005845E-01  0.69199472807E-01  0.13169092589E+00  0.19942452336E-01 0.  0.
         14    1    1    2    0    0 -0.15659829596E-01  0.17239999552E-01 -0.36586408322E-02  0.23576121400E-01  0.00000000000E+00 0. -1.
     999901    1    3    3    0    0 -0.85645035963E-01 -0.60755005397E-01 -0.65540831974E-01  0.88866295271E+00  0.88000000000E+00 0.  1.
        -11    1    4    4    0    0  0.83242759621E-01  0.42304360231E-01  0.62586270428E-01  0.11241137972E+00  0.51100000000E-03 0.  1.
         11    1    4    4    0    0  0.18062105938E-01  0.12106456143E-02  0.66132023789E-02  0.19279546168E-01  0.51100000000E-03 0. -1.
</event>
<event>
 8    1  0.1109294E+005  0.1043930E+01  0.7957747E-01            NaN
         13   -1    0    0    0    0  0.00000000000E+00  0.00000000000E+00  0.74505805969E-08  0.10566000000E+00  0.10566000000E+00 0. -1.
     999900   -1    0    0    0    0 -0.00000000000E+00 -0.00000000000E+00 -0.74505805969E-08  0.93827000000E+00  0.93827000000E+00 0. -1.
     999902    2    1    2    0    0 -0.13211429570E-01  0.29018786241E-02 -0.19559684151E-01  0.10201488307E+01  0.10198716060E+01 0.  0.
     999903    2    3    3    0    0 -0.10990576263E-01  0.58431347066E-01  0.11217062838E+00  0.12861008821E+00  0.20574008637E-01 0.  0.
         14    1    1    2    0    0  0.13211429570E-01 -0.29018786241E-02  0.19559684151E-01  0.23781169335E-01  0.00000000000E+00 0. -1.
     999901    1    3    3    0    0 -0.22208533071E-02 -0.55529468442E-01 -0.13173031253E+00  0.89153874245E+00  0.88000000000E+00 0.  1.
        -11    1    4    4    0    0 -0.89740734322E-02  0.39059904070E-01  0.53902515659E-01  0.67171068290E-01  0.51100000000E-03 0. -1.
         11    1    4    4    0    0 -0.20165028306E-02  0.19371442996E-01  0.58268112725E-01  0.61439019922E-01  0.51100000000E-03 0.  1.
</event>
<event>
 8    1  0.1109294E+005  0.1043930E+01  0.7957747E-01            NaN
         13   -1    0    0    0    0  0.00000000000E+00  0.00000000000E+00  0.74505805969E-08  0.10566000000E+00  0.10566000000E+00 0. -1.
     999900   -1    0    0    0    0 -0.00000000000E+00 -0.00000000000E+00 -0.74505805969E-08  0.93827000000E+00  0.93827000000E+00 0. -1.
     999902    2    1    2    0    0  0.14150678974E-01  0.90988726738E-02  0.17347701866E-01  0.10197644468E+01  0.10194780788E+01 0.  0.
     999903    2    3    3    0    0 -0.94737616080E-01  0.48847055036E-01  0.72569426042E-01  0.13044672093E+00  0.19717371001E-01 0.  0.
         14    1    1    2    0    0 -0.14150678974E-01 -0.90988726738E-02 -0.17347701866E-01  0.24165553157E-01  0.00000000000E+00 0.  1.
     999901    1    3    3    0    0  0.10888829505E+00 -0.39748182362E-01 -0.55221724176E-01  0.88931772591E+00  0.88000000000E+00 0. -1.
        -11    1    4    4    0    0 -0.38538187459E-01  0.92806212176E-02  0.25284727432E-01  0.47020212517E-01  0.51100000000E-03 0. -1.
         11    1    4    4    0    0 -0.56199428621E-01  0.39566433818E-01  0.47284698610E-01  0.83426508414E-01  0.51100000000E-03 0.  1.
</event>
<event>
 8    1  0.1109294E+005  0.1043930E+01  0.7957747E-01            NaN
         13   -1    0    0    0    0  0.00000000000E+00  0.00000000000E+00  0.74505805969E-08  0.10566000000E+00  0.10566000000E+00 0.  1.
     999900   -1    0    0    0    0 -0.00000000000E+00 -0.00000000000E+00 -0.74505805969E-08  0.93827000000E+00  0.93827000000E+00 0.  1.
     999902    2    1    2    0    0 -0.19195125962E-01  0.23814405768E-02 -0.12016176113E-01  0.10211591281E+01  0.10209052122E+01 0.  0.
     999903    2    3    3    0    0 -0.36508013679E-01  0.96165471496E-01 -0.82259249436E-01  0.13322373071E+00  0.20033605181E-01 0.  0.
         14    1    1    2    0    0  0.19195125962E-01 -0.23814405768E-02  0.12016176113E-01  0.22770871926E-01  0.00000000000E+00 0.  1.
     999901    1    3    3    0    0  0.17312887717E-01 -0.93784030919E-01  0.70243073323E-01  0.88793539736E+00  0.88000000000E+00 0. -1.
        -11    1    4    4    0    0 -0.19891028769E-01  0.71489172346E-01 -0.66033788217E-01  0.99333162114E-01  0.51100000000E-03 0. -1.
         11    1    4    4    0    0 -0.16616984910E-01  0.24676299149E-01 -0.16225461219E-01  0.33890568599E-01  0.51100000000E-03 0.  1.
</event>
<event>
 8    1  0.1109294E+005  0.1043930E+01  0.7957747E-01            NaN
         13   -1    0    0    0    0  0.00000000000E+00  0.00000000000E+00  0.74505805969E-08  0.10566000000E+00  0.10566000000E+00 0.  1.
     999900   -1    0    0    0    0 -0.00000000000E+00 -0.00000000000E+00 -0.74505805969E-08  0.93827000000E+00  0.93827000000E+00 0. -1.
     999902    2    1    2    0    0  0.18262361647E-01 -0.14371390227E-01 -0.43688211095E-02  0.10202839156E+01  0.10200098681E+01 0.  0.
     999903    2    3    3    0    0  0.65189366528E-01  0.55918245280E-01 -0.97383245138E-01  0.13135508845E+00  0.19853442126E-01 0.  0.
         14    1    1    2    0    0 -0.18262361647E-01  0.14371390227E-01  0.43688211095E-02  0.23646084409E-01  0.00000000000E+00 0. -1.
     999901    1    3    3    0    0 -0.46927004881E-01 -0.70289635507E-01  0.93014424029E-01  0.88892882714E+00  0.88000000000E+00 0.  1.
        -11    1    4    4    0    0  0.38674101384E-01  0.38329350364E-01 -0.47899726836E-01  0.72522204662E-01  0.51100000000E-03 0. -1.
         11    1    4    4    0    0  0.26515265145E-01  0.17588894916E-01 -0.49483518303E-01  0.58832883787E-01  0.51100000000E-03 0.  1.
</event>
<event>
 8    1  0.1203716E+005  0.1043930E+01  0.7957747E-01            NaN
         13   -1    0    0    0    0  0.00000000000E+00  0.00000000000E+00  0.74505805969E-08  0.10566000000E+00  0.10566000000E+00 0.  1.
     999900   -1    0    0    0    0 -0.00000000000E+00 -0.00000000000E+00 -0.74505805969E-08  0.93827000000E+00  0.93827000000E+00 0. -1.
     999902    2    1    2    0    0  0.27982385688E-01 -0.33674421278E-02  0.12395060663E-01  0.10131405358E+01  0.10126725800E+01 0.  0.
     999903    2    3    3    0    0  0.81951850589E-01 -0.94332571733E-01  0.40232233111E-02  0.12676733812E+00  0.20953085319E-01 0.  0.
         14    1    1    2    0    0 -0.27982385688E-01  0.33674421278E-02 -0.12395060663E-01  0.30789464174E-01  0.00000000000E+00 0. -1.
     999901    1    3    3    0    0 -0.53969464901E-01  0.90965129605E-01  0.83718373521E-02  0.88637319770E+00  0.88000000000E+00 0.  1.
        -11    1    4    4    0    0  0.32050124797E-01 -0.52828430220E-01  0.24020813435E-02  0.61839183814E-01  0.51100000000E-03 0. -1.
         11    1    4    4    0    0  0.49901725792E-01 -0.41504141512E-01  0.16211419676E-02  0.64928154309E-01  0.51100000000E-03 0.  1.
</event>
<event>
 8    1  0.1109294E+005  0.1043930E+01  0.7957747E-01            NaN
         13   -1    0    0    0    0  0.00000000000E+00  0.00000000000E+00  0.74505805969E-08  0.10566000000E+00  0.10566000000E+00 0.  1.
     999900   -1    0    0    0    0 -0.00000000000E+00 -0.00000000000E+00 -0.74505805969E-08  0.93827000000E+00  0.93827000000E+00 0.  1.
     999902    2    1    2    0    0 -0.20588571136E-01 -0.83702690825E-02  0.74868117871E-02  0.10204778569E+01  0.10202083382E+01 0.  0.
     999903    2    3    3    0    0 -0.11596139667E+00  0.25202744076E-01 -0.55241079477E-01  0.13247002392E+00  0.20359433941E-01 0.  0.
         14    1    1    2    0    0  0.20588571136E-01  0.83702690825E-02 -0.74868117871E-02  0.23452143114E-01  0.00000000000E+00 0.  1.
     999901    1    3    3    0    0  0.95372825531E-01 -0.33573013158E-01  0.62727891264E-01  0.88800783296E+00  0.88000000000E+00 0. -1.
        -11    1    4    4    0    0 -0.44601917578E-01  0.19901051170E-01 -0.22103443344E-01  0.53611623907E-01  0.51100000000E-03 0.  1.
         11    1    4    4    0    0 -0.71359479088E-01  0.53016929053E-02 -0.33137636133E-01  0.78858400015E-01  0.51100000000E-03 0. -1.
</event>
<event>
 8    1  0.1109294E+005  0.1043930E+01  0.7957747E-01            NaN
         13   -1    0    0    0    0  0.00000000000E+00  0.00000000000E+00  0.74505805969E-08  0.10566000000E+00  0.10566000000E+00 0.  1.
     999900   -1    0    0    0    0 -0.00000000000E+00 -0.00000000000E+00 -0.74505805969E-08  0.93827000000E+00  0.93827000000E+00 0.  1.
     999902    2    1    2    0    0 -0.18297483759E-01 -0.11279403128E-01 -0.10037853848E-01  0.10202069868E+01  0.10199311322E+01 0.  0.
     999903    2    3    3    0    0 -0.12270717920E+00  0.66253515300E-02  0.45118921688E-01  0.13213928967E+00  0.18003546069E-01 0.  0.
         14    1    1    2    0    0  0.18297483759E-01  0.11279403128E-01  0.10037853848E-01  0.23723013230E-01  0.00000000000E+00 0.  1.
     999901    1    3    3    0    0  0.10440969544E+00 -0.17904754658E-01 -0.55156775537E-01  0.88806769710E+00  0.88000000000E+00 0. -1.
        -11    1    4    4    0    0 -0.12313433663E-01 -0.42175116730E-03  0.10594191331E-01  0.16257199438E-01  0.51100000000E-03 0. -1.
         11    1    4    4    0    0 -0.11039374554E+00  0.70471026973E-02  0.34524730358E-01  0.11588209023E+00  0.51100000000E-03 0.  1.
</event>
<event>
 8    1  0.1109294E+005  0.1043930E+01  0.7957747E-01            NaN
         13   -1    0    0    0    0  0.00000000000E+00  0.00000000000E+00  0.74505805969E-08  0.10566000000E+00  0.10566000000E+00 0. -1.
     999900   -1    0    0    0    0 -0.00000000000E+00 -0.00000000000E+00 -0.74505805969E-08  0.93827000000E+00  0.93827000000E+00 0.  1.
     999902    2    1    2    0    0  0.11265255860E-01 -0.13305426339E-01 -0.15628430159E-01  0.10205165810E+01  0.10202479620E+01 0.  0.
     999903    2    3    3    0    0 -0.12659322317E+00  0.96275738985E-02 -0.16282748855E-01  0.12948834864E+00  0.19584948093E-01 0.  0.
         14    1    1    2    0    0 -0.11265255860E-01  0.13305426339E-01  0.15628430159E-01  0.23413418992E-01  0.00000000000E+00 0. -1.
     999901    1    3    3    0    0  0.13785847903E+00 -0.22933000237E-01  0.65431869670E-03  0.89102823237E+00  0.88000000000E+00 0. -1.
        -11    1    4    4    0    0 -0.68811636512E-01  0.14000268930E-01 -0.46031106219E-02  0.70373990920E-01  0.51100000000E-03 0. -1.
         11    1    4    4    0    0 -0.57781586659E-01 -0.43726950317E-02 -0.11679638233E-01  0.59114357722E-01  0.51100000000E-03 0.  1.
</event>
<event>
 8    1  0.1109294E+005  0.1043930E+01  0.7957747E-01            NaN
         13   -1    0    0    0    0  0.00000000000E+00  0.00000000000E+00  0.74505805969E-08  0.10566000000E+00  0.10566000000E+00 0.  1.
     999900   -1    0    0    0    0 -0.00000000000E+00 -0.00000000000E+00 -0.74505805969E-08  0.93827000000E+00  0.93827000000E+00 0. -1.
     999902    2    1    2    0    0 -0.14292802622E-03 -0.79450206866E-02  0.21297900334E-01  0.10211979886E+01  0.10209449484E+01 0.  0.
     999903    2    3    3    0    0 -0.20349773692E-01 -0.46338597989E-01  0.12290676884E+00  0.13428945584E+00  0.19136487910E-01 0.  0.
         14    1    1    2    0    0  0.14292802622E-03  0.79450206866E-02 -0.21297900334E-01  0.22732011366E-01  0.00000000000E+00 0. -1.
     999901    1    3    3    0    0  0.20206845666E-01  0.38393577303E-01 -0.10160886850E+00  0.88690853280E+00  0.88000000000E+00 0. -1.
        -11    1    4    4    0    0 -0.49597053193E-04 -0.22291386655E-01  0.43736130774E-01  0.49091940631E-01  0.51100000000E-03 0.  1.
         11    1    4    4    0    0 -0.20300176639E-01 -0.24047211334E-01  0.79170638065E-01  0.85197515205E-01  0.51100000000E-03 0. -1.
</event>
<event>
 8    1  0.1109294E+005  0.1043930E+01  0.7957747E-01            NaN
         13   -1    0    0    0    0  0.00000000000E+00  0.00000000000E+00  0.74505805969E-08  0.10566000000E+00  0.10566000000E+00 0. -1.
     999900   -1    0    0    0    0 -0.00000000000E+00 -0.00000000000E+00 -0.74505805969E-08  0.93827000000E+00  0.93827000000E+00 0. -1.
     999902    2    1    2    0    0  0.17820656336E-01 -0.12690033338E-01  0.79975423774E-02  0.10206367945E+01  0.10203709585E+01 0.  0.
     999903    2    3    3    0    0 -0.10448798981E+00  0.46065756913E-01 -0.54402611861E-01  0.12805322583E+00  0.19954711095E-01 0.  0.
         14    1    1    2    0    0 -0.17820656336E-01  0.12690033338E-01 -0.79975423774E-02  0.23293205500E-01  0.00000000000E+00 0.  1.
     999901    1    3    3    0    0  0.12230864614E+00 -0.58755790251E-01  0.62400154238E-01  0.89258356867E+00  0.88000000000E+00 0.  1.
        -11    1    4    4    0    0 -0.48225293378E-01  0.10522155994E-01 -0.22408417164E-01  0.54210635201E-01  0.51100000000E-03 0.  1.
         11    1    4    4    0    0 -0.56262696428E-01  0.35543600919E-01 -0.31994194697E-01  0.73842590630E-01  0.51100000000E-03 0. -1.
</event>
<event>
 8    1  0.1109294E+005  0.1043930E+01  0.7957747E-01            NaN
         13   -1    0    0    0    0  0.00000000000E+00  0.00000000000E+00  0.74505805969E-08  0.10566000000E+00  0.10566000000E+00 0. -1.
     999900   -1    0    0    0    0 -0.00000000000E+00 -0.00000000000E+00 -0.74505805969E-08  0.93827000000E+00  0.93827000000E+00 0. -1.
     999902    2    1    2    0    0  0.17921842142E-01 -0.11062435627E-02  0.15803827162E-01  0.10200097752E+01  0.10197292603E+01 0.  0.
     999903    2    3    3    0    0  0.50927228610E-01 -0.83012352797E-01  0.87962407326E-01  0.13265143331E+00  0.19349013563E-01 0.  0.
         14    1    1    2    0    0 -0.17921842142E-01  0.11062435627E-02 -0.15803827162E-01  0.23920224780E-01  0.00000000000E+00 0.  1.
     999901    1    3    3    0    0 -0.33005386468E-01  0.81906109234E-01 -0.72158580163E-01  0.88735834191E+00  0.88000000000E+00 0. -1.
        -11    1    4    4    0    0  0.28544255276E-01 -0.36194795781E-01  0.30774805551E-01  0.55427317531E-01  0.51100000000E-03 0. -1.
         11    1    4    4    0    0  0.22382973334E-01 -0.46817557016E-01  0.57187601774E-01  0.77224115779E-01  0.51100000000E-03 0.  1.
</event>
<event>
 8    1  0.1109294E+005  0.1043930E+01  0.7957747E-01            NaN
         13   -1    0    0    0    0  0.00000000000E+00  0.00000000000E+00  0.74505805969E-08  0.10566000000E+00  0.10566000000E+00 0.  1.
     999900   -1    0    0    0    0 -0.00000000000E+00 -0.00000000000E+00 -0.74505805969E-08  0.93827000000E+00  0.93827000000E+00 0. -1.
     999902    2    1    2    0    0 -0.23004824097E-01 -0.49533145416E-02  0.44333506958E-03  0.10203937768E+01  0.10201222995E+01 0.  0.
     999903    2    3    3    0    0  0.72378980883E-01 -0.85186273927E-01  0.62251898286E-01  0.12946409578E+00  0.19754369579E-01 0.  0.
         14    1    1    2    0    0  0.23004824097E-01  0.49533145416E-02 -0.44333506958E-03  0.23536223203E-01  0.00000000000E+00 0. -1.
     999901    1    3    3    0    0 -0.95383804980E-01  0.80232959386E-01 -0.61808563217E-01  0.89092968101E+00  0.88000000000E+00 0.  1.
        -11    1    4    4    0    0  0.17160084866E-01 -0.31272526627E-01  0.13303673642E-01  0.38074772325E-01  0.51100000000E-03 0. -1.
         11    1    4    4    0    0  0.55218896017E-01 -0.53913747300E-01  0.48948224644E-01  0.91389323458E-01  0.51100000000E-03 0.  1.
</event>
<event>
 8    1  0.1109294E+005  0.1043930E+01  0.7957747E-01            NaN
         13   -1    0    0    0    0  0.00000000000E+00  0.00000000000E+00  0.74505805969E-08  0.10566000000E+00  0.10566000000E+00 0. -1.
     999900   -1    0    0    0    0 -0.00000000000E+00 -0.00000000000E+00 -0.74505805969E-08  0.93827000000E+00  0.93827000000E+00 0. -1.
     999902    2    1    2    0    0  0.57077957581E-03 -0.23096642847E-01  0.71456608926E-02  0.10197465104E+01  0.10194597119E+01 0.  0.
     999903    2    3    3    0    0  0.70108455630E-01  0.10348022169E+00 -0.16729216731E-01  0.12765503481E+00  0.19813868580E-01 0.  0.
         14    1    1    2    0    0 -0.57077957581E-03  0.23096642847E-01 -0.71456608926E-02  0.24183489610E-01  0.00000000000E+00 0.  1.
     999901    1    3    3    0    0 -0.69537676055E-01 -0.12657686453E+00  0.23874877624E-01  0.89209147558E+00  0.88000000000E+00 0. -1.
        -11    1    4    4    0    0  0.48782632620E-01  0.75080756738E-01 -0.30411774954E-02  0.89590039397E-01  0.51100000000E-03 0. -1.
         11    1    4    4    0    0  0.21325823011E-01  0.28399464948E-01 -0.13688039236E-01  0.38064995410E-01  0.51100000000E-03 0.  1.
</event>
<event>
 8    1  0.1109294E+005  0.1043930E+01  0.7957747E-01            NaN
         13   -1    0    0    0    0  0.00000000000E+00  0.00000000000E+00  0.74505805969E-08  0.10566000000E+00  0.10566000000E+00 0. -1.
     999900   -1    0    0    0    0 -0.00000000000E+00 -0.00000000000E+00 -0.74505805969E-08  0.93827000000E+00  0.93827000000E+00 0.  1.
     999902    2    1    2    0    0 -0.17524788927E-01  0.15237828492E-01 -0.60348221697E-02  0.10199356523E+01  0.10196533754E+01 0.  0.
     999903    2    3    3    0    0  0.58720053146E-01  0.72511042509E-01  0.87971558048E-01  0.12980605693E+00  0.20117690313E-01 0.  0.
         14    1    1    2    0    0  0.17524788927E-01 -0.15237828492E-01  0.60348221697E-02  0.23994347724E-01  0.00000000000E+00 0.  1.
     999901    1    3    3    0    0 -0.76244842073E-01 -0.57273214017E-01 -0.94006380218E-01  0.89012959534E+00  0.88000000000E+00 0.  1.
        -11    1    4    4    0    0  0.47912727546E-01  0.51067251279E-01  0.74593612032E-01  0.10231305729E+00  0.51100000000E-03 0.  1.
         11    1    4    4    0    0  0.10807325600E-01  0.21443791230E-01  0.13377946016E-01  0.27492999646E-01  0.51100000000E-03 0. -1.
</event>
<event>
 8    1  0.1109294E+005  0.1043930E+01  0.7957747E-01            NaN
         13   -1    0    0    0    0  0.00000000000E+00  0.00000000000E+00  0.74505805969E-08  0.10566000000E+00  0.10566000000E+00 0. -1.
     999900   -1    0    0    0    0 -0.00000000000E+00 -0.00000000000E+00 -0.74505805969E-08  0.93827000000E+00  0.93827000000E+00 0.  1.
     999902    2    1    2    0    0  0.10149883789E-01  0.10534942885E-01  0.18302866168E-01  0.10204992494E+01  0.10202302279E+01 0.  0.
     999903    2    3    3    0    0 -0.90074488404E-01 -0.89552697799E-01  0.11243297120E-01  0.12914505601E+00  0.20467892369E-01 0.  0.
         14    1    1    2    0    0 -0.10149883789E-01 -0.10534942885E-01 -0.18302866168E-01  0.23430750575E-01  0.00000000000E+00 0.  1.
     999901    1    3    3    0    0  0.10022437219E+00  0.10008764068E+00  0.70595690481E-02  0.89135419341E+00  0.88000000000E+00 0. -1.
        -11    1    4    4    0    0 -0.59494878845E-01 -0.71725599629E-01  0.63265091787E-02  0.93404968231E-01  0.51100000000E-03 0.  1.
         11    1    4    4    0    0 -0.30579609559E-01 -0.17827098170E-01  0.49167879416E-02  0.35740087781E-01  0.51100000000E-03 0. -1.
</event>
<event>
 8    1  0.1109294E+005  0.1043930E+01  0.7957747E-01            NaN
         13   -1    0    0    0    0  0.00000000000E+00  0.00000000000E+00  0.74505805969E-08  0.10566000000E+00  0.10566000000E+00 0.  1.
     999900   -1    0    0    0    0 -0.00000000000E+00 -0.00000000000E+00 -0.74505805969E-08  0.93827000000E+00  0.93827000000E+00 0.  1.
     999902    2    1    2    0    0  0.18249232165E-01  0.14469208111E-01 -0.21639081889E-02  0.10205403665E+01  0.10202722993E+01 0.  0.
     999903    2    3    3    0    0  0.10755570469E+00 -0.18914892025E-01 -0.72426178636E-01  0.13260628625E+00  0.20319277783E-01 0.  0.
         14    1    1    2    0    0 -0.18249232165E-01 -0.14469208111E-01  0.21639081889E-02  0.23389633529E-01  0.00000000000E+00 0.  1.
     999901    1    3    3    0    0 -0.89306472520E-01  0.33384100135E-01  0.70262270448E-01  0.88793408022E+00  0.88000000000E+00 0. -1.
        -11    1    4    4    0    0  0.75564301922E-01 -0.41603329865E-02 -0.46000509283E-01  0.88563988567E-01  0.51100000000E-03 0. -1.
         11    1    4    4    0    0  0.31991402763E-01 -0.14754559038E-01 -0.26425669353E-01  0.44042297680E-01  0.51100000000E-03 0.  1.
</event>
<event>
 8    1  0.1109294E+005  0.1043930E+01  0.7957747E-01            NaN
         13   -1    0    0    0    0  0.00000000000E+00  0.00000000000E+00  0.74505805969E-08  0.10566000000E+00  0.10566000000E+00 0. -1.
     999900   -1    0    0    0    0 -0.00000000000E+00 -0.00000000000E+00 -0.74505805969E-08  0.93827000000E+00  0.93827000000E+00 0. -1.
     999902    2    1    2    0    0 -0.18301440638E-01 -0.13762976643E-02 -0.15309792326E-01  0.10200296513E+01  0.10197496080E+01 0.  0.
     999903    2    3    3    0    0 -0.52182625642E-01  0.11603366320E+00 -0.27138403659E-01  0.13150674807E+00  0.19253426149E-01 0.  0.
         14    1    1    2    0    0  0.18301440638E-01  0.13762976643E-02  0.15309792326E-01  0.23900348654E-01  0.00000000000E+00 0. -1.
     999901    1    3    3    0    0  0.33881185003E-01 -0.11740996087E+00  0.11828611333E-01  0.88852290328E+00  0.88000000000E+00 0.  1.
        -11    1    4    4    0    0 -0.19390342286E-01  0.23410093256E-01 -0.72865414115E-02  0.31262959664E-01  0.51100000000E-03 0. -1.
         11    1    4    4    0    0 -0.32792283356E-01  0.92623569947E-01 -0.19851862248E-01  0.10024378840E+00  0.51100000000E-03 0.  1.
</event>
<event>
 8    1  0.1109294E+005  0.1043930E+01  0.7957747E-01            NaN
         13   -1    0    0    0    0  0.00000000000E+00  0.00000000000E+00  0.74505805969E-08  0.10566000000E+00  0.10566000000E+00 0. -1.
     999900   -1    0    0    0    0 -0.00000000000E+00 -0.00000000000E+00 -0.74505805969E-08  0.93827000000E+00  0.93827000000E+00 0.  1.
     999902    2    1    2    0    0  0.77745190611E-02  0.21283057111E-01 -0.63357247160E-02  0.10204022914E+01  0.10201310127E+01 0.  0.
     999903    2    3    3    0    0  0.38909647337E-01 -0.11309230547E+00  0.44045699381E-01  0.12823390916E+00  0.14145020751E-01 0.  0.
         14    1    1    2    0    0 -0.77745190611E-02 -0.21283057111E-01  0.63357247160E-02  0.23527708650E-01  0.00000000000E+00 0. -1.
     999901    1    3    3    0    0 -0.31135128275E-01  0.13437536258E+00 -0.50381424097E-01  0.89216838219E+00  0.88000000000E+00 0.  1.
        -11    1    4    4    0    0  0.15530990336E-01 -0.61316884124E-01  0.28183010477E-01  0.69249658050E-01  0.51100000000E-03 0. -1.
         11    1    4    4    0    0  0.23378657000E-01 -0.51775421349E-01  0.15862688903E-01  0.58984251112E-01  0.51100000000E-03 0.  1.
</event>
<event>
 8    1  0.1109294E+005  0.1043930E+01  0.7957747E-01            NaN
         13   -1    0    0    0    0  0.00000000000E+00  0.00000000000E+00  0.74505805969E-08  0.10566000000E+00  0.10566000000E+00 0.  1.
     999900   -1    0    0    0    0 -0.00000000000E+00 -0.00000000000E+00 -0.74505805969E-08  0.93827000000E+00  0.93827000000E+00 0. -1.
     999902    2    1    2    0    0  0.59227687878E-02 -0.68335224411E-02  0.20948930422E-01  0.10211125964E+01  0.10208576300E+01 0.  0.
     999903    2    3    3    0    0  0.12377202458E+00 -0.91969134649E-02 -0.37854798872E-01  0.13130817339E+00  0.20118481957E-01 0.  0.
         14    1    1    2    0    0 -0.59227687878E-02  0.68335224411E-02 -0.20948930422E-01  0.22817403553E-01  0.00000000000E+00 0. -1.
     999901    1    3    3    0    0 -0.11784925579E+00  0.23633910238E-02  0.58803729295E-01  0.88980442305E+00  0.88000000000E+00 0. -1.
        -11    1    4    4    0    0  0.39813390625E-01 -0.13362685967E-02 -0.21977781765E-01  0.45499183499E-01  0.51100000000E-03 0. -1.
         11    1    4    4    0    0  0.83958633954E-01 -0.78606448682E-02 -0.15877017108E-01  0.85808989893E-01  0.51100000000E-03 0.  1.
</event>
<event>
 8    1  0.1109294E+005  0.1043930E+01  0.7957747E-01            NaN
         13   -1    0    0    0    0  0.00000000000E+00  0.00000000000E+00  0.74505805969E-08  0.10566000000E+00  0.10566000000E+00 0.  1.
     999900   -1    0    0    0    0 -0.00000000000E+00 -0.00000000000E+00 -0.74505805969E-08  0.93827000000E+00  0.93827000000E+00 0.  1.
     999902    2    1    2    0    0  0.23961353441E-01  0.56154725495E-03 -0.54352960289E-02  0.10193535023E+01  0.10190571910E+01 0.  0.
     999903    2    3    3    0    0 -0.11475932823E+00  0.50666149850E-01 -0.27060857753E-02  0.12707476377E+00  0.20097525514E-01 0.  0.
         14    1    1    2    0    0 -0.23961353441E-01 -0.56154725495E-03  0.54352960289E-02  0.24576497655E-01  0.00000000000E+00 0.  1.
     999901    1    3    3    0    0  0.13872068167E+00 -0.50104602595E-01 -0.27292102536E-02  0.89227873857E+00  0.88000000000E+00 0.  1.
        -11    1    4    4    0    0 -0.59541260559E-01  0.18784196756E-01 -0.86612297912E-02  0.63034004944E-01  0.51100000000E-03 0.  1.
         11    1    4    4    0    0 -0.55218067666E-01  0.31881953095E-01  0.59551440158E-02  0.64040758827E-01  0.51100000000E-03 0. -1.
</event>
<event>
 8    1  0.1109294E+005  0.1043930E+01  0.7957747E-01            NaN
         13   -1    0    0    0    0  0.00000000000E+00  0.00000000000E+00  0.74505805969E-08  0.10566000000E+00  0.10566000000E+00 0. -1.
     999900   -1    0    0    0    0 -0.00000000000E+00 -0.00000000000E+00 -0.74505805969E-08  0.93827000000E+00  0.93827000000E+00 0. -1.
     999902    2    1    2    0    0 -0.10215487437E-01  0.61503632970E-02 -0.20962939362E-01  0.10198130355E+01  0.10195278315E+01 0.  0.
     999903    2    3    3    0    0  0.12218730013E+00 -0.12127936277E-01 -0.36522024592E-01  0.12958459313E+00  0.19531649826E-01 0.  0.
         14    1    1    2    0    0  0.10215487437E-01 -0.61503632970E-02  0.20962939362E-01  0.24116964547E-01  0.00000000000E+00 0. -1.
     999901    1    3    3    0    0 -0.13240278757E+00  0.18278299574E-01  0.15559085230E-01  0.89022844232E+00  0.88000000000E+00 0. -1.
        -11    1    4    4    0    0  0.74344876111E-01 -0.13326969462E-01 -0.30045744152E-01  0.81288231507E-01  0.51100000000E-03 0. -1.
         11    1    4    4    0    0  0.47842424019E-01  0.11990331850E-02 -0.64762804399E-02  0.48296361622E-01  0.51100000000E-03 0.  1.
</event>
<event>
 8    1  0.1109294E+005  0.1043930E+01  0.7957747E-01            NaN
         13   -1    0    0    0    0  0.00000000000E+00  0.00000000000E+00  0.74505805969E-08  0.10566000000E+00  0.10566000000E+00 0.  1.
     999900   -1    0    0    0    0 -0.00000000000E+00 -0.00000000000E+00 -0.74505805969E-08  0.93827000000E+00  0.93827000000E+00 0.  1.
     999902    2    1    2    0    0 -0.16749944727E-01  0.12726812854E-01 -0.98687043839E-02  0.10206937408E+01  0.10204292179E+01 0.  0.
     999903    2    3    3    0    0 -0.46038817261E-01 -0.69669831918E-01  0.97019643138E-01  0.12992319577E+00  0.22220879132E-01 0.  0.
         14    1    1    2    0    0  0.16749944727E-01 -0.12726812854E-01  0.98687043839E-02  0.23236259165E-01  0.00000000000E+00 0.  1.
     999901    1    3    3    0    0  0.29288872534E-01  0.82396644772E-01 -0.10688834752E+00  0.89077054507E+00  0.88000000000E+00 0.  1.
        -11    1    4    4    0    0 -0.25818267145E-01 -0.42545993724E-01  0.73308629285E-01  0.88606775977E-01  0.51100000000E-03 0.  1.
         11    1    4    4    0    0 -0.20220550115E-01 -0.27123838194E-01  0.23711013853E-01  0.41316419790E-01  0.51100000000E-03 0. -1.
</event>
<event>
 8    1  0.1109294E+005  0.1043930E+01  0.7957747E-01            NaN
         13   -1    0    0    0    0  0.00000000000E+00  0.00000000000E+00  0.74505805969E-08  0.10566000000E+00  0.10566000000E+00 0. -1.
     999900   -1    0    0    0    0 -0.00000000000E+00 -0.00000000000E+00 -0.74505805969E-08  0.93827000000E+00  0.93827000000E+00 0. -1.
     999902    2    1    2    0    0  0.77973873294E-02 -0.22550000210E-01  0.58707185581E-02  0.10193583274E+01  0.10190621338E+01 0.  0.
     999903    2    3    3    0    0 -0.78865461283E-02 -0.13091116893E+00  0.46748807988E-02  0.13257224344E+00  0.18804612688E-01 0.  0.
         14    1    1    2    0    0 -0.77973873294E-02  0.22550000210E-01 -0.58707185581E-02  0.24571672613E-01  0.00000000000E+00 0. -1.
     999901    1    3    3    0    0  0.15683933458E-01  0.10836116872E+00  0.11958377593E-02  0.88678608395E+00  0.88000000000E+00 0. -1.
        -11    1    4    4    0    0  0.13923902138E-02 -0.85410228031E-01 -0.31314361552E-02  0.85480482078E-01  0.51100000000E-03 0. -1.
         11    1    4    4    0    0 -0.92789363421E-02 -0.45500940903E-01  0.78063169540E-02  0.47091761361E-01  0.51100000000E-03 0.  1.
</event>
<event>
 8    1  0.1109294E+005  0.1043930E+01  0.7957747E-01            NaN
         13   -1    0    0    0    0  0.00000000000E+00  0.00000000000E+00  0.74505805969E-08  0.10566000000E+00  0.10566000000E+00 0. -1.
     999900   -1    0    0    0    0 -0.00000000000E+00 -0.00000000000E+00 -0.74505805969E-08  0.93827000000E+00  0.93827000000E+00 0.  1.
     999902    2    1    2    0    0  0.22995231453E-01  0.20286543584E-01 -0.50715720414E-02  0.10128487297E+01  0.10123717222E+01 0.  0.
     999903    2    3    3    0    0 -0.73571520253E-01 -0.53200749131E-01  0.77526593347E-01  0.12068956417E+00  0.17677950185E-01 0.  0.
         14    1    1    2    0    0 -0.22995231453E-01 -0.20286543584E-01  0.50715720414E-02  0.31081270295E-01  0.00000000000E+00 0.  1.
     999901    1    3    3    0    0  0.96566751706E-01  0.73487292715E-01 -0.82598165388E-01  0.89215916554E+00  0.88000000000E+00 0.  1.
        -11    1    4    4    0    0 -0.57134314222E-01 -0.49584766997E-01  0.63956322897E-01  0.99063875047E-01  0.51100000000E-03 0.  1.
         11    1    4    4    0    0 -0.16437206031E-01 -0.36159821333E-02  0.13570270450E-01  0.21625689121E-01  0.51100000000E-03 0. -1.
</event>
<event>
 8    1  0.1478595E+005  0.1043930E+01  0.7957747E-01            NaN
         13   -1    0    0    0    0  0.00000000000E+00  0.00000000000E+00  0.74505805969E-08  0.10566000000E+00  0.10566000000E+00 0.  1.
     999900   -1    0    0    0    0 -0.00000000000E+00 -0.00000000000E+00 -0.74505805969E-08  0.93827000000E+00  0.93827000000E+00 0. -1.
     999902    2    1    2    0    0 -0.21085021744E-01  0.11073591688E-01  0.38453365209E-02  0.10198055479E+01  0.10195201648E+01 0.  0.
     999903    2    3    3    0    0  0.89129397197E-01  0.88355802235E-01  0.24276416060E-01  0.12933534224E+00  0.19684743889E-01 0.  0.
         14    1    1    2    0    0  0.21085021744E-01 -0.11073591688E-01 -0.38453365209E-02  0.24124452072E-01  0.00000000000E+00 0. -1.
     999901    1    3    3    0    0 -0.11021441894E+00 -0.77282210546E-01 -0.20431079539E-01  0.89047020569E+00  0.88000000000E+00 0. -1.
        -11    1    4    4    0    0  0.53735898311E-01  0.49678728315E-01  0.23623361764E-01  0.76901541963E-01  0.51100000000E-03 0.  1.
         11    1    4    4    0    0  0.35393498885E-01  0.38677073920E-01  0.65305429570E-03  0.52433800275E-01  0.51100000000E-03 0. -1.
</event>
<event>
 8    1  0.1109294E+005  0.1043930E+01  0.7957747E-01            NaN
         13   -1    0    0    0    0  0.00000000000E+00  0.00000000000E+00  0.74505805969E-08  0.10566000000E+00  0.10566000000E+00 0. -1.
     999900   -1    0    0    0    0 -0.00000000000E+00 -0.00000000000E+00 -0.74505805969E-08  0.93827000000E+00  0.93827000000E+00 0.  1.
     999902    2    1    2    0    0 -0.17571597737E-02 -0.22808417734E-01  0.54370455094E-02  0.10204167485E+01  0.10201458071E+01 0.  0.
     999903    2    3    3    0    0  0.80345962792E-01  0.64035593034E-01  0.76211867447E-01  0.12952288261E+00  0.20295257282E-01 0.  0.
         14    1    1    2    0    0  0.17571597737E-02  0.22808417734E-01 -0.54370455094E-02  0.23513251452E-01  0.00000000000E+00 0.  1.
     999901    1    3    3    0    0 -0.82103122566E-01 -0.86844010767E-01 -0.70774821938E-01  0.89089386594E+00  0.88000000000E+00 0.  1.
        -11    1    4    4    0    0  0.47067304884E-01  0.43833326755E-01  0.57719044119E-01  0.86420141741E-01  0.51100000000E-03 0.  1.
         11    1    4    4    0    0  0.33278657908E-01  0.20202266279E-01  0.18492823328E-01  0.43102740871E-01  0.51100000000E-03 0. -1.
</event>
<event>
 8    1  0.1109294E+005  0.1043930E+01  0.7957747E-01            NaN
         13   -1    0    0    0    0  0.00000000000E+00  0.00000000000E+00  0.74505805969E-08  0.10566000000E+00  0.10566000000E+00 0.  1.
     999900   -1    0    0    0    0 -0.00000000000E+00 -0.00000000000E+00 -0.74505805969E-08  0.93827000000E+00  0.93827000000E+00 0. -1.
     999902    2    1    2    0    0 -0.19727896471E-01 -0.77257982373E-02 -0.16106840896E-01  0.10173159402E+01  0.10169677546E+01 0.  0.
     999903    2    3    3    0    0 -0.31535015741E-02  0.31374557097E-02  0.12401720393E+00  0.12600933254E+00  0.21869998075E-01 0.  0.
         14    1    1    2    0    0  0.19727896471E-01  0.77257982373E-02  0.16106840896E-01  0.26614059841E-01  0.00000000000E+00 0.  1.
     999901    1    3    3    0    0 -0.16574394896E-01 -0.10863253947E-01 -0.14012404482E+00  0.89130660762E+00  0.88000000000E+00 0. -1.
        -11    1    4    4    0    0 -0.63041836661E-02  0.11626958603E-01  0.75622147479E-01  0.76771734436E-01  0.51100000000E-03 0. -1.
         11    1    4    4    0    0  0.31506820920E-02 -0.84895028930E-02  0.48395056450E-01  0.49237598101E-01  0.51100000000E-03 0.  1.
</event>
<event>
 8    1  0.1109294E+005  0.1043930E+01  0.7957747E-01            NaN
         13   -1    0    0    0    0  0.00000000000E+00  0.00000000000E+00  0.74505805969E-08  0.10566000000E+00  0.10566000000E+00 0. -1.
     999900   -1    0    0    0    0 -0.00000000000E+00 -0.00000000000E+00 -0.74505805969E-08  0.93827000000E+00  0.93827000000E+00 0.  1.
     999902    2    1    2    0    0 -0.17021766255E-01 -0.15634347680E-01  0.45857392809E-02  0.10203672676E+01  0.10200951713E+01 0.  0.
     999903    2    3    3    0    0  0.72190719867E-01 -0.58806469571E-01  0.89587302206E-01  0.13073365453E+00  0.19892280206E-01 0.  0.
         14    1    1    2    0    0  0.17021766255E-01  0.15634347680E-01 -0.45857392809E-02  0.23562732409E-01  0.00000000000E+00 0. -1.
     999901    1    3    3    0    0 -0.89212486122E-01  0.43172121892E-01 -0.85001562926E-01  0.88963361306E+00  0.88000000000E+00 0.  1.
        -11    1    4    4    0    0  0.48394212467E-01 -0.28071804704E-01  0.58607632420E-01  0.81025562131E-01  0.51100000000E-03 0. -1.
         11    1    4    4    0    0  0.23796507400E-01 -0.30734664867E-01  0.30979669786E-01  0.49708092399E-01  0.51100000000E-03 0.  1.
</event>
<event>
 8    1  0.1109294E+005  0.1043930E+01  0.7957747E-01            NaN
         13   -1    0    0    0    0  0.00000000000E+00  0.00000000000E+00  0.74505805969E-08  0.10566000000E+00  0.10566000000E+00 0. -1.
     999900   -1    0    0    0    0 -0.00000000000E+00 -0.00000000000E+00 -0.74505805969E-08  0.93827000000E+00  0.93827000000E+00 0. -1.
     999902    2    1    2    0    0 -0.16917236577E-01  0.20727557744E-02 -0.14864211087E-01  0.10213150938E+01  0.10210646830E+01 0.  0.
     999903    2    3    3    0    0  0.12385058133E+00 -0.20092462337E-01  0.23397697140E-01  0.12903103083E+00  0.18944158663E-01 0.  0.
         14    1    1    2    0    0  0.16917236577E-01 -0.20727557744E-02  0.14864211087E-01  0.22614906171E-01  0.00000000000E+00 0. -1.
     999901    1    3    3    0    0 -0.14076781791E+00  0.22165218111E-01 -0.38261908227E-01  0.89228406299E+00  0.88000000000E+00 0.  1.
        -11    1    4    4    0    0  0.41615341103E-01 -0.24065399675E-03  0.14004284753E-01  0.43912135475E-01  0.51100000000E-03 0.  1.
         11    1    4    4    0    0  0.82235240229E-01 -0.19851808340E-01  0.93934123866E-02  0.85118895359E-01  0.51100000000E-03 0. -1.
</event>
<event>
 8    1  0.1109294E+005  0.1043930E+01  0.7957747E-01            NaN
         13   -1    0    0    0    0  0.00000000000E+00  0.00000000000E+00  0.74505805969E-08  0.10566000000E+00  0.10566000000E+00 0.  1.
     999900   -1    0    0    0    0 -0.00000000000E+00 -0.00000000000E+00 -0.74505805969E-08  0.93827000000E+00  0.93827000000E+00 0. -1.
     999902    2    1    2    0    0  0.18555878169E-03  0.15222041344E-01 -0.20060928792E-01  0.10187469533E+01  0.10184356480E+01 0.  0.
     999903    2    3    3    0    0  0.41724180877E-01  0.95813776022E-01  0.73281445045E-01  0.12917779719E+00  0.19888342176E-01 0.  0.
         14    1    1    2    0    0 -0.18555878169E-03 -0.15222041344E-01  0.20060928792E-01  0.25183046653E-01  0.00000000000E+00 0.  1.
     999901    1    3    3    0    0 -0.41538622095E-01 -0.80591734679E-01 -0.93342373838E-01  0.88956915615E+00  0.88000000000E+00 0.  1.
        -11    1    4    4    0    0  0.40806978484E-01  0.75462073335E-01  0.55919746076E-01  0.10240611860E+00  0.51100000000E-03 0. -1.
         11    1    4    4    0    0  0.91720239236E-03  0.20351702687E-01  0.17361698970E-01  0.26771678592E-01  0.51100000000E-03 0.  1.
</event>
<event>
 8    1  0.1109294E+005  0.1043930E+01  0.7957747E-01            NaN
         13   -1    0    0    0    0  0.00000000000E+00  0.00000000000E+00  0.74505805969E-08  0.10566000000E+00  0.10566000000E+00 0. -1.
     999900   -1    0    0    0    0 -0.00000000000E+00 -0.00000000000E+00 -0.74505805969E-08  0.93827000000E+00  0.93827000000E+00 0.  1.
     999902    2    1    2    0    0  0.71678693130E-03  0.21300329134E-01 -0.93251889070E-02  0.10206667897E+01  0.10204016458E+01 0.  0.
     999903    2    3    3    0    0 -0.51029723203E-01 -0.75267421123E-01 -0.90924898354E-01  0.13012676013E+00  0.19910279491E-01 0.  0.
         14    1    1    2    0    0 -0.71678693130E-03 -0.21300329134E-01  0.93251889070E-02  0.23263210287E-01  0.00000000000E+00 0. -1.
     999901    1    3    3    0    0  0.51746510134E-01  0.96567750257E-01  0.81599709447E-01  0.89054002958E+00  0.88000000000E+00 0. -1.
        -11    1    4    4    0    0 -0.10833599396E-01 -0.12362704491E-01 -0.71982329717E-02  0.17952131270E-01  0.51100000000E-03 0.  1.
         11    1    4    4    0    0 -0.40196123807E-01 -0.62904716632E-01 -0.83726665382E-01  0.11217462886E+00  0.51100000000E-03 0. -1.
</event>
<event>
 8    1  0.1109294E+005  0.1043930E+01  0.7957747E-01            NaN
         13   -1    0    0    0    0  0.00000000000E+00  0.00000000000E+00  0.74505805969E-08  0.10566000000E+00  0.10566000000E+00 0.  1.
     999900   -1    0    0    0    0 -0.00000000000E+00 -0.00000000000E+00 -0.74505805969E-08  0.93827000000E+00  0.93827000000E+00 0. -1.
     999902    2    1    2    0    0  0.20694574928E-01  0.11110760634E-01  0.82074704729E-03  0.10204270628E+01  0.10201563617E+01 0.  0.
     999903    2    3    3    0    0  0.90911044041E-01  0.52434004540E-01 -0.79332631654E-01  0.13303620911E+00  0.19769262208E-01 0.  0.
         14    1    1    2    0    0 -0.20694574928E-01 -0.11110760634E-01 -0.82074704729E-03  0.23502937242E-01  0.00000000000E+00 0. -1.
     999901    1    3    3    0    0 -0.70216469113E-01 -0.41323243906E-01  0.80153378701E-01  0.88739085365E+00  0.88000000000E+00 0.  1.
        -11    1    4    4    0    0  0.18841184075E-01  0.20663246932E-01 -0.22807313230E-01  0.36088705281E-01  0.51100000000E-03 0.  1.
         11    1    4    4    0    0  0.72069859966E-01  0.31770757609E-01 -0.56525318424E-01  0.96947503828E-01  0.51100000000E-03 0. -1.
</event>
<event>
 8    1  0.1109294E+005  0.1043930E+01  0.7957747E-01            NaN
         13   -1    0    0    0    0  0.00000000000E+00  0.00000000000E+00  0.74505805969E-08  0.10566000000E+00  0.10566000000E+00 0.  1.
     999900   -1    0    0    0    0 -0.00000000000E+00 -0.00000000000E+00 -0.74505805969E-08  0.93827000000E+00  0.93827000000E+00 0.  1.
     999902    2    1    2    0    0  0.26791726979E-02  0.83216592863E-02  0.21339124949E-01  0.10208695093E+01  0.10206090185E+01 0.  0.
     999903    2    3    3    0    0  0.56815099918E-01 -0.87774832978E-01  0.78406938673E-01  0.13215022298E+00  0.19587151873E-01 0.  0.
         14    1    1    2    0    0 -0.26791726979E-02 -0.83216592863E-02 -0.21339124949E-01  0.23060490741E-01  0.00000000000E+00 0.  1.
     999901    1    3    3    0    0 -0.54135927220E-01  0.96096492264E-01 -0.57067813725E-01  0.88871928628E+00  0.88000000000E+00 0. -1.
        -11    1    4    4    0    0  0.36539599420E-01 -0.42772441238E-01  0.49583381786E-01  0.74989312075E-01  0.51100000000E-03 0. -1.
         11    1    4    4    0    0  0.20275500498E-01 -0.45002391740E-01  0.28823556887E-01  0.57160910905E-01  0.51100000000E-03 0.  1.
</event>
<event>
 8    1  0.1109294E+005  0.1043930E+01  0.7957747E-01            NaN
         13   -1    0    0    0    0  0.00000000000E+00  0.00000000000E+00  0.74505805969E-08  0.10566000000E+00  0.10566000000E+00 0.  1.
     999900   -1    0    0    0    0 -0.00000000000E+00 -0.00000000000E+00 -0.74505805969E-08  0.93827000000E+00  0.93827000000E+00 0.  1.
     999902    2    1    2    0    0  0.10142206046E-01 -0.11049954897E-01  0.17395497736E-01  0.10209611257E+01  0.10207027241E+01 0.  0.
     999903    2    3    3    0    0 -0.42544704551E-01  0.33826424883E-01  0.11872520367E+00  0.13244691120E+00  0.22186288412E-01 0.  0.
         14    1    1    2    0    0 -0.10142206046E-01  0.11049954897E-01 -0.17395497736E-01  0.22968874335E-01  0.00000000000E+00 0. -1.
     999901    1    3    3    0    0  0.52686910597E-01 -0.44876379780E-01 -0.10132970593E+00  0.88851421447E+00  0.88000000000E+00 0.  1.
        -11    1    4    4    0    0 -0.97308816538E-02 -0.20272368954E-02  0.23921161580E-01  0.25909126568E-01  0.51100000000E-03 0. -1.
         11    1    4    4    0    0 -0.32813822897E-01  0.35853661779E-01  0.94804042088E-01  0.10653778463E+00  0.51100000000E-03 0.  1.
</event>
<event>
 8    1  0.1109294E+005  0.1043930E+01  0.7957747E-01            NaN
         13   -1    0    0    0    0  0.00000000000E+00  0.00000000000E+00  0.74505805969E-08  0.10566000000E+00  0.10566000000E+00 0.  1.
     999900   -1    0    0    0    0 -0.00000000000E+00 -0.00000000000E+00 -0.74505805969E-08  0.93827000000E+00  0.93827000000E+00 0.  1.
     999902    2    1    2    0    0  0.73530835903E-02  0.13431988085E-01 -0.17104386317E-01  0.10209725138E+01  0.10207143713E+01 0.  0.
     999903    2    3    3    0    0 -0.30780289811E-01 -0.28823971440E-01  0.11979116617E+00  0.12857119567E+00  0.20059443958E-01 0.  0.
         14    1    1    2    0    0 -0.73530835903E-02 -0.13431988085E-01  0.17104386317E-01  0.22957486219E-01  0.00000000000E+00 0.  1.
     999901    1    3    3    0    0  0.38133373402E-01  0.42255959525E-01 -0.13689555249E+00  0.89240131812E+00  0.88000000000E+00 0.  1.
        -11    1    4    4    0    0 -0.13282238787E-01 -0.24875859310E-01  0.63323732362E-01  0.69320865869E-01  0.51100000000E-03 0.  1.
         11    1    4    4    0    0 -0.17498051024E-01 -0.39481121299E-02  0.56467433809E-01  0.59250329797E-01  0.51100000000E-03 0. -1.
</event>
<event>
 8    1  0.1109294E+005  0.1043930E+01  0.7957747E-01            NaN
         13   -1    0    0    0    0  0.00000000000E+00  0.00000000000E+00  0.74505805969E-08  0.10566000000E+00  0.10566000000E+00 0.  1.
     999900   -1    0    0    0    0 -0.00000000000E+00 -0.00000000000E+00 -0.74505805969E-08  0.93827000000E+00  0.93827000000E+00 0. -1.
     999902    2    1    2    0    0 -0.14709514016E-01 -0.16254314691E-01 -0.92969062176E-02  0.10201181329E+01  0.10198401836E+01 0.  0.
     999903    2    3    3    0    0  0.11652113687E+00 -0.29678854546E-01 -0.43341838252E-01  0.12963469152E+00  0.21647830357E-01 0.  0.
         14    1    1    2    0    0  0.14709514016E-01  0.16254314691E-01  0.92969062176E-02  0.23811867081E-01  0.00000000000E+00 0.  1.
     999901    1    3    3    0    0 -0.13123065088E+00  0.13424539854E-01  0.34044932034E-01  0.89048344140E+00  0.88000000000E+00 0. -1.
        -11    1    4    4    0    0  0.53414021316E-01 -0.14311602384E-01 -0.31398635908E-01  0.63592571058E-01  0.51100000000E-03 0.  1.
         11    1    4    4    0    0  0.63107115553E-01 -0.15367252162E-01 -0.11943202344E-01  0.66042120466E-01  0.51100000000E-03 0. -1.
</event>
<event>
 8    1  0.1109294E+005  0.1043930E+01  0.7957747E-01            NaN
         13   -1    0    0    0    0  0.00000000000E+00  0.00000000000E+00  0.74505805969E-08  0.10566000000E+00  0.10566000000E+00 0. -1.
     999900   -1    0    0    0    0 -0.00000000000E+00 -0.00000000000E+00 -0.74505805969E-08  0.93827000000E+00  0.93827000000E+00 0.  1.
     999902    2    1    2    0    0  0.14016602916E-01 -0.17713868689E-01 -0.35663546437E-02  0.10210615679E+01  0.10208054468E+01 0.  0.
     999903    2    3    3    0    0 -0.98662737337E-01  0.60774646888E-01  0.53745400690E-01  0.12856970906E+00  0.14618773868E-01 0.  0.
         14    1    1    2    0    0 -0.14016602916E-01  0.17713868689E-01  0.35663546437E-02  0.22868432099E-01  0.00000000000E+00 0. -1.
     999901    1    3    3    0    0  0.11267934025E+00 -0.78488515577E-01 -0.57311755333E-01  0.89249185884E+00  0.88000000000E+00 0.  1.
        -11    1    4    4    0    0 -0.39107542061E-01  0.32352967106E-01  0.25192277402E-01  0.56665918226E-01  0.51100000000E-03 0. -1.
         11    1    4    4    0    0 -0.59555195276E-01  0.28421679782E-01  0.28553123287E-01  0.71903790835E-01  0.51100000000E-03 0.  1.
</event>
<event>
 8    1  0.1109294E+005  0.1043930E+01  0.7957747E-01            NaN
         13   -1    0    0    0    0  0.00000000000E+00  0.00000000000E+00  0.74505805969E-08  0.10566000000E+00  0.10566000000E+00 0. -1.
     999900   -1    0    0    0    0 -0.00000000000E+00 -0.00000000000E+00 -0.74505805969E-08  0.93827000000E+00  0.93827000000E+00 0. -1.
     999902    2    1    2    0    0 -0.19692414516E-01  0.53001341074E-02 -0.16539171762E-01  0.10176730616E+01  0.10173342782E+01 0.  0.
     999903    2    3    3    0    0 -0.47998411240E-01  0.11491905718E+00 -0.32155453928E-01  0.13028283966E+00  0.20722159853E-01 0.  0.
         14    1    1    2    0    0  0.19692414516E-01 -0.53001341074E-02  0.16539171762E-01  0.26256938389E-01  0.00000000000E+00 0. -1.
     999901    1    3    3    0    0  0.28305996724E-01 -0.10961892307E+00  0.15616282166E-01  0.88739022195E+00  0.88000000000E+00 0. -1.
        -11    1    4    4    0    0 -0.18238534940E-01  0.22198467499E-01 -0.47999872420E-02  0.29132749863E-01  0.51100000000E-03 0. -1.
         11    1    4    4    0    0 -0.29759876300E-01  0.92720589676E-01 -0.27355466686E-01  0.10115008980E+00  0.51100000000E-03 0.  1.
</event>
<event>
 8    1  0.1109294E+005  0.1043930E+01  0.7957747E-01            NaN
         13   -1    0    0    0    0  0.00000000000E+00  0.00000000000E+00  0.74505805969E-08  0.10566000000E+00  0.10566000000E+00 0. -1.
     999900   -1    0    0    0    0 -0.00000000000E+00 -0.00000000000E+00 -0.74505805969E-08  0.93827000000E+00  0.93827000000E+00 0. -1.
     999902    2    1    2    0    0  0.10112708917E-01  0.58073948535E-03  0.21417804327E-01  0.10202376704E+01  0.10199625374E+01 0.  0.
     999903    2    3    3    0    0 -0.12656007006E+00 -0.74399090883E-02  0.20922883237E-01  0.12965133305E+00  0.17288653408E-01 0.  0.
         14    1    1    2    0    0 -0.10112708917E-01 -0.58073948535E-03 -0.21417804327E-01  0.23692329606E-01  0.00000000000E+00 0.  1.
     999901    1    3    3    0    0  0.13667277898E+00  0.80206485737E-02  0.49492108992E-03  0.89058633734E+00  0.88000000000E+00 0. -1.
        -11    1    4    4    0    0 -0.65041898546E-01 -0.84508469083E-02  0.34111689048E-02  0.65679240056E-01  0.51100000000E-03 0.  1.
         11    1    4    4    0    0 -0.61518171517E-01  0.10109378200E-02  0.17511714332E-01  0.63972092993E-01  0.51100000000E-03 0. -1.
</event>
<event>
 8    1  0.1109294E+005  0.1043930E+01  0.7957747E-01            NaN
         13   -1    0    0    0    0  0.00000000000E+00  0.00000000000E+00  0.74505805969E-08  0.10566000000E+00  0.10566000000E+00 0.  1.
     999900   -1    0    0    0    0 -0.00000000000E+00 -0.00000000000E+00 -0.74505805969E-08  0.93827000000E+00  0.93827000000E+00 0. -1.
     999902    2    1    2    0    0  0.60556364234E-03 -0.18996702723E-01  0.13763312763E-01  0.10204636368E+01  0.10201937874E+01 0.  0.
     999903    2    3    3    0    0  0.37279034926E-01  0.11997113803E+00  0.20230486003E-01  0.12878049324E+00  0.19807636645E-01 0.  0.
         14    1    1    2    0    0 -0.60556364234E-03  0.18996702723E-01 -0.13763312763E-01  0.23466363159E-01  0.00000000000E+00 0. -1.
     999901    1    3    3    0    0 -0.36673471283E-01 -0.13896784075E+00 -0.64671732399E-02  0.89168314360E+00  0.88000000000E+00 0. -1.
        -11    1    4    4    0    0  0.26157868758E-01  0.62961257207E-01  0.32306311017E-02  0.68257249471E-01  0.51100000000E-03 0. -1.
         11    1    4    4    0    0  0.11121166168E-01  0.57009880821E-01  0.16999854902E-01  0.60523243765E-01  0.51100000000E-03 0.  1.
</event>
<event>
 8    1  0.1109294E+005  0.1043930E+01  0.7957747E-01            NaN
         13   -1    0    0    0    0  0.00000000000E+00  0.00000000000E+00  0.74505805969E-08  0.10566000000E+00  0.10566000000E+00 0. -1.
     999900   -1    0    0    0    0 -0.00000000000E+00 -0.00000000000E+00 -0.74505805969E-08  0.93827000000E+00  0.93827000000E+00 0.  1.
     999902    2    1    2    0    0 -0.13588323018E-01  0.11730086729E-01  0.19726881196E-01  0.10172581553E+01  0.10169084360E+01 0.  0.
     999903    2    3    3    0    0 -0.64866268031E-01  0.45842602950E-01  0.10253479590E+00  0.13122754515E+00  0.19952625481E-01 0.  0.
         14    1    1    2    0    0  0.13588323018E-01 -0.11730086729E-01 -0.19726881196E-01  0.26671844684E-01  0.00000000000E+00 0. -1.
     999901    1    3    3    0    0  0.51277945013E-01 -0.34112516221E-01 -0.82807914703E-01  0.88603061016E+00  0.88000000000E+00 0.  1.
        -11    1    4    4    0    0 -0.30665574629E-01  0.10132911369E-01  0.44425781014E-01  0.54926901422E-01  0.51100000000E-03 0. -1.
         11    1    4    4    0    0 -0.34200693401E-01  0.35709691581E-01  0.58109014885E-01  0.76300643731E-01  0.51100000000E-03 0.  1.
</event>
<event>
 8    1  0.1109294E+005  0.1043930E+01  0.7957747E-01            NaN
         13   -1    0    0    0    0  0.00000000000E+00  0.00000000000E+00  0.74505805969E-08  0.10566000000E+00  0.10566000000E+00 0.  1.
     999900   -1    0    0    0    0 -0.00000000000E+00 -0.00000000000E+00 -0.74505805969E-08  0.93827000000E+00  0.93827000000E+00 0. -1.
     999902    2    1    2    0    0 -0.25207850412E-01  0.19188092074E-02  0.11423730484E-01  0.10161879891E+01  0.10158092390E+01 0.  0.
     999903    2    3    3    0    0  0.15524238317E-01  0.12411055377E+00 -0.49197159518E-02  0.12666169171E+00  0.19353268659E-01 0.  0.
         14    1    1    2    0    0  0.25207850412E-01 -0.19188092074E-02 -0.11423730484E-01  0.27742010910E-01  0.00000000000E+00 0.  1.
     999901    1    3    3    0    0 -0.40732088729E-01 -0.12219174457E+00  0.16343446436E-01  0.88952629738E+00  0.88000000000E+00 0.  1.
        -11    1    4    4    0    0  0.11689011380E-01  0.78804084161E-01 -0.12246906550E-01  0.80603749966E-01  0.51100000000E-03 0.  1.
         11    1    4    4    0    0  0.38352269366E-02  0.45306469613E-01  0.73271905978E-02  0.46057941742E-01  0.51100000000E-03 0. -1.
</event>
<event>
 8    1  0.1109294E+005  0.1043930E+01  0.7957747E-01            NaN
         13   -1    0    0    0    0  0.00000000000E+00  0.00000000000E+00  0.74505805969E-08  0.10566000000E+00  0.10566000000E+00 0.  1.
     999900   -1    0    0    0    0 -0.00000000000E+00 -0.00000000000E+00 -0.74505805969E-08  0.93827000000E+00  0.93827000000E+00 0.  1.
     999902    2    1    2    0    0 -0.48131318678E-02  0.17883817957E-01  0.15063401737E-01  0.10200573534E+01  0.10197779665E+01 0.  0.
     999903    2    3    3    0    0  0.94974663901E-03 -0.60392155454E-01 -0.11027402901E+00  0.12771783825E+00  0.22435914794E-01 0.  0.
         14    1    1    2    0    0  0.48131318678E-02 -0.17883817957E-01 -0.15063401737E-01  0.23872646585E-01  0.00000000000E+00 0. -1.
     999901    1    3    3    0    0 -0.57628785068E-02  0.78275973411E-01  0.12533743075E+00  0.89233951517E+00  0.88000000000E+00 0. -1.
        -11    1    4    4    0    0  0.95579127017E-02 -0.46937762069E-01 -0.75006178020E-01  0.88998286868E-01  0.51100000000E-03 0.  1.
         11    1    4    4    0    0 -0.86081660627E-02 -0.13454393385E-01 -0.35267850994E-01  0.38719551380E-01  0.51100000000E-03 0. -1.
</event>
<event>
 8    1  0.1109294E+005  0.1043930E+01  0.7957747E-01            NaN
         13   -1    0    0    0    0  0.00000000000E+00  0.00000000000E+00  0.74505805969E-08  0.10566000000E+00  0.10566000000E+00 0.  1.
     999900   -1    0    0    0    0 -0.00000000000E+00 -0.00000000000E+00 -0.74505805969E-08  0.93827000000E+00  0.93827000000E+00 0. -1.
     999902    2    1    2    0    0  0.14429219927E-01  0.80183056349E-02  0.16853976780E-01  0.10203386426E+01  0.10200658770E+01 0.  0.
     999903    2    3    3    0    0  0.11454202100E+00  0.12664685463E-01 -0.59789309733E-01  0.13134013009E+00  0.19879622312E-01 0.  0.
         14    1    1    2    0    0 -0.14429219927E-01 -0.80183056349E-02 -0.16853976780E-01  0.23591357448E-01  0.00000000000E+00 0. -1.
     999901    1    3    3    0    0 -0.10011280107E+00 -0.46463798281E-02  0.76643286513E-01  0.88899851246E+00  0.88000000000E+00 0. -1.
        -11    1    4    4    0    0  0.23639313725E-01  0.10088346195E-01 -0.17125898173E-01  0.30889308694E-01  0.51100000000E-03 0. -1.
         11    1    4    4    0    0  0.90902707270E-01  0.25763392676E-02 -0.42663411560E-01  0.10045082140E+00  0.51100000000E-03 0.  1.
</event>
<event>
 8    1  0.1109294E+005  0.1043930E+01  0.7957747E-01            NaN
         13   -1    0    0    0    0  0.00000000000E+00  0.00000000000E+00  0.74505805969E-08  0.10566000000E+00  0.10566000000E+00 0. -1.
     999900   -1    0    0    0    0 -0.00000000000E+00 -0.00000000000E+00 -0.74505805969E-08  0.93827000000E+00  0.93827000000E+00 0. -1.
     999902    2    1    2    0    0 -0.84958094202E-02  0.68384585705E-02 -0.21742291449E-01  0.10196057214E+01  0.10193155333E+01 0.  0.
     999903    2    3    3    0    0 -0.64773736925E-01 -0.90154335780E-01  0.61714463954E-01  0.12857270442E+00  0.19970578482E-01 0.  0.
         14    1    1    2    0    0  0.84958094202E-02 -0.68384585705E-02  0.21742291449E-01  0.24324278628E-01  0.00000000000E+00 0. -1.
     999901    1    3    3    0    0  0.56277927505E-01  0.96992794350E-01 -0.83456755403E-01  0.89103301695E+00  0.88000000000E+00 0.  1.
        -11    1    4    4    0    0 -0.27904876069E-01 -0.53907830913E-01  0.28027113262E-01  0.66861921458E-01  0.51100000000E-03 0.  1.
         11    1    4    4    0    0 -0.36868860856E-01 -0.36246504867E-01  0.33687350692E-01  0.61710782960E-01  0.51100000000E-03 0. -1.
</event>
<event>
 8    1  0.1109294E+005  0.1043930E+01  0.7957747E-01            NaN
         13   -1    0    0    0    0  0.00000000000E+00  0.00000000000E+00  0.74505805969E-08  0.10566000000E+00  0.10566000000E+00 0. -1.
     999900   -1    0    0    0    0 -0.00000000000E+00 -0.00000000000E+00 -0.74505805969E-08  0.93827000000E+00  0.93827000000E+00 0.  1.
     999902    2    1    2    0    0  0.44889159742E-02  0.54094703051E-02  0.26165670745E-01  0.10168365495E+01  0.10164755350E+01 0.  0.
     999903    2    3    3    0    0  0.19476911950E-01  0.11377370205E+00 -0.47603878338E-01  0.12699982675E+00  0.23216834067E-01 0.  0.
         14    1    1    2    0    0 -0.44889159742E-02 -0.54094703051E-02 -0.26165670745E-01  0.27093450521E-01  0.00000000000E+00 0.  1.
     999901    1    3    3    0    0 -0.14987995976E-01 -0.10836423175E+00  0.73769549083E-01  0.88983672273E+00  0.88000000000E+00 0. -1.
        -11    1    4    4    0    0  0.81532015217E-02  0.97871566206E-01 -0.39684197038E-01  0.10592645931E+00  0.51100000000E-03 0. -1.
         11    1    4    4    0    0  0.11323710429E-01  0.15902135846E-01 -0.79196813005E-02  0.21073367439E-01  0.51100000000E-03 0.  1.
</event>
<event>
 8    1  0.1109294E+005  0.1043930E+01  0.7957747E-01            NaN
         13   -1    0    0    0    0  0.00000000000E+00  0.00000000000E+00  0.74505805969E-08  0.10566000000E+00  0.10566000000E+00 0. -1.
     999900   -1    0    0    0    0 -0.00000000000E+00 -0.00000000000E+00 -0.74505805969E-08  0.93827000000E+00  0.93827000000E+00 0.  1.
     999902    2    1    2    0    0  0.20305011905E-01 -0.11051690651E-01 -0.13825800986E-02  0.10207708786E+01  0.10205081292E+01 0.  0.
     999903    2    3    3    0    0 -0.33247375291E-01  0.10865549922E+00 -0.58252694246E-01  0.12923743598E+00  0.19938229568E-01 0.  0.
         14    1    1    2    0    0 -0.20305011905E-01  0.11051690651E-01  0.13825800986E-02  0.23159121366E-01  0.00000000000E+00 0.  1.
     999901    1    3    3    0    0  0.53552387197E-01 -0.11970718987E+00  0.56870114148E-01  0.89153344265E+00  0.88000000000E+00 0. -1.
        -11    1    4    4    0    0 -0.67300859553E-02  0.33996723253E-01 -0.85193268104E-02  0.35691894026E-01  0.51100000000E-03 0. -1.
         11    1    4    4    0    0 -0.26517289336E-01  0.74658775966E-01 -0.49733367436E-01  0.93545541957E-01  0.51100000000E-03 0.  1.
</event>
<event>
 8    1  0.1109294E+005  0.1043930E+01  0.7957747E-01            NaN
         13   -1    0    0    0    0  0.00000000000E+00  0.00000000000E+00  0.74505805969E-08  0.10566000000E+00  0.10566000000E+00 0. -1.
     999900   -1    0    0    0    0 -0.00000000000E+00 -0.00000000000E+00 -0.74505805969E-08  0.93827000000E+00  0.93827000000E+00 0.  1.
     999902    2    1    2    0    0 -0.16207834802E-01 -0.17499879363E-01 -0.27216351131E-02  0.10199227722E+01  0.10196401887E+01 0.  0.
     999903    2    3    3    0    0  0.10626449506E+00 -0.71590061958E-01 -0.67344727907E-02  0.12978720825E+00  0.19547030948E-01 0.  0.
         14    1    1    2    0    0  0.16207834802E-01  0.17499879363E-01  0.27216351131E-02  0.24007227753E-01  0.00000000000E+00 0.  1.
     999901    1    3    3    0    0 -0.12247232986E+00  0.54090182595E-01  0.40128376776E-02  0.89013556400E+00  0.88000000000E+00 0.  1.
        -11    1    4    4    0    0  0.92402075114E-01 -0.56915500458E-01 -0.79438104188E-04  0.10852550442E+00  0.51100000000E-03 0.  1.
         11    1    4    4    0    0  0.13862419946E-01 -0.14674561499E-01 -0.66550346865E-02  0.21261703828E-01  0.51100000000E-03 0. -1.
</event>
<event>
 8    1  0.1109294E+005  0.1043930E+01  0.7957747E-01            NaN
         13   -1    0    0    0    0  0.00000000000E+00  0.00000000000E+00  0.74505805969E-08  0.10566000000E+00  0.10566000000E+00 0. -1.
     999900   -1    0    0    0    0 -0.00000000000E+00 -0.00000000000E+00 -0.74505805969E-08  0.93827000000E+00  0.93827000000E+00 0. -1.
     999902    2    1    2    0    0 -0.18789155205E-01  0.21699293782E-03  0.14621817387E-01  0.10201208215E+01  0.10198429356E+01 0.  0.
     999903    2    3    3    0    0 -0.24912796966E-01  0.71024568082E-01  0.10711443282E+00  0.13242374723E+00  0.19935154569E-01 0.  0.
         14    1    1    2    0    0  0.18789155205E-01 -0.21699293782E-03 -0.14621817387E-01  0.23809178544E-01  0.00000000000E+00 0.  1.
     999901    1    3    3    0    0  0.61236417611E-02 -0.70807575144E-01 -0.92492615430E-01  0.88769707423E+00  0.88000000000E+00 0. -1.
        -11    1    4    4    0    0 -0.24640790025E-01  0.42633940784E-01  0.63057296406E-01  0.80008157027E-01  0.51100000000E-03 0.  1.
         11    1    4    4    0    0 -0.27200694114E-03  0.28390627298E-01  0.44057136411E-01  0.52415590199E-01  0.51100000000E-03 0. -1.
</event>
<event>
 8    1  0.1109294E+005  0.1043930E+01  0.7957747E-01            NaN
         13   -1    0    0    0    0  0.00000000000E+00  0.00000000000E+00  0.74505805969E-08  0.10566000000E+00  0.10566000000E+00 0. -1.
     999900   -1    0    0    0    0 -0.00000000000E+00 -0.00000000000E+00 -0.74505805969E-08  0.93827000000E+00  0.93827000000E+00 0.  1.
     999902    2    1    2    0    0  0.15606352293E-01  0.17047676744E-01 -0.35255466368E-02  0.10205502867E+01  0.10202824495E+01 0.  0.
     999903    2    3    3    0    0  0.65923397114E-01 -0.56113051214E-02  0.11181319523E+00  0.13131001556E+00  0.19045958280E-01 0.  0.
         14    1    1    2    0    0 -0.15606352293E-01 -0.17047676744E-01  0.35255466368E-02  0.23379713286E-01  0.00000000000E+00 0. -1.
     999901    1    3    3    0    0 -0.50317044821E-01  0.22658981865E-01 -0.11533874187E+00  0.88924027115E+00  0.88000000000E+00 0.  1.
        -11    1    4    4    0    0  0.17267174239E-01  0.49028424622E-02  0.40891391120E-01  0.44660498867E-01  0.51100000000E-03 0.  1.
         11    1    4    4    0    0  0.48656222876E-01 -0.10514147584E-01  0.70921804114E-01  0.86649516696E-01  0.51100000000E-03 0. -1.
</event>
<event>
 8    1  0.1109294E+005  0.1043930E+01  0.7957747E-01            NaN
         13   -1    0    0    0    0  0.00000000000E+00  0.00000000000E+00  0.74505805969E-08  0.10566000000E+00  0.10566000000E+00 0.  1.
     999900   -1    0    0    0    0 -0.00000000000E+00 -0.00000000000E+00 -0.74505805969E-08  0.93827000000E+00  0.93827000000E+00 0.  1.
     999902    2    1    2    0    0 -0.31927074444E-02 -0.25015267516E-01 -0.83819131365E-02  0.10173553230E+01  0.10170081808E+01 0.  0.
     999903    2    3    3    0    0 -0.15646428220E-01 -0.86584601595E-02 -0.12653318058E+00  0.12922112013E+00  0.19174786911E-01 0.  0.
         14    1    1    2    0    0  0.31927074444E-02  0.25015267516E-01  0.83819131365E-02  0.26574676998E-01  0.00000000000E+00 0.  1.
     999901    1    3    3    0    0  0.12453720776E-01 -0.16356807357E-01  0.11815126744E+00  0.88813420287E+00  0.88000000000E+00 0. -1.
        -11    1    4    4    0    0 -0.17381997847E-01 -0.88691639100E-02 -0.70340447515E-01  0.72998873931E-01  0.51100000000E-03 0. -1.
         11    1    4    4    0    0  0.17355696262E-02  0.21070375047E-03 -0.56192733062E-01  0.56222246202E-01  0.51100000000E-03 0.  1.
</event>
<event>
 8    1  0.1109294E+005  0.1043930E+01  0.7957747E-01            NaN
         13   -1    0    0    0    0  0.00000000000E+00  0.00000000000E+00  0.74505805969E-08  0.10566000000E+00  0.10566000000E+00 0.  1.
     999900   -1    0    0    0    0 -0.00000000000E+00 -0.00000000000E+00 -0.74505805969E-08  0.93827000000E+00  0.93827000000E+00 0. -1.
     999902    2    1    2    0    0 -0.11230081396E-01 -0.18812548329E-01  0.83214582413E-02  0.10204934181E+01  0.10202242612E+01 0.  0.
     999903    2    3    3    0    0  0.10911008456E+00  0.64595107873E-01  0.31293120221E-02  0.12838044824E+00  0.19854681633E-01 0.  0.
         14    1    1    2    0    0  0.11230081396E-01  0.18812548329E-01 -0.83214582413E-02  0.23436581877E-01  0.00000000000E+00 0. -1.
     999901    1    3    3    0    0 -0.12034016595E+00 -0.83407656203E-01  0.51921462193E-02  0.89211296989E+00  0.88000000000E+00 0. -1.
        -11    1    4    4    0    0  0.37649630297E-01  0.19383366414E-01  0.10078231463E-01  0.43532073526E-01  0.51100000000E-03 0.  1.
         11    1    4    4    0    0  0.71460454260E-01  0.45211741459E-01 -0.69489194405E-02  0.84848374712E-01  0.51100000000E-03 0. -1.
</event>
<event>
 8    1  0.1109294E+005  0.1043930E+01  0.7957747E-01            NaN
         13   -1    0    0    0    0  0.00000000000E+00  0.00000000000E+00  0.74505805969E-08  0.10566000000E+00  0.10566000000E+00 0. -1.
     999900   -1    0    0    0    0 -0.00000000000E+00 -0.00000000000E+00 -0.74505805969E-08  0.93827000000E+00  0.93827000000E+00 0. -1.
     999902    2    1    2    0    0 -0.17995577987E-01  0.38490993538E-02  0.15964423626E-01  0.10195677502E+01  0.10192766445E+01 0.  0.
     999903    2    3    3    0    0 -0.95993695556E-01  0.71911796525E-01 -0.48777412540E-01  0.13113781913E+00  0.20779691211E-01 0.  0.
         14    1    1    2    0    0  0.17995577987E-01 -0.38490993538E-02 -0.15964423626E-01  0.24362249786E-01  0.00000000000E+00 0.  1.
     999901    1    3    3    0    0  0.77998117569E-01 -0.68062697172E-01  0.64741836166E-01  0.88842993108E+00  0.88000000000E+00 0.  1.
        -11    1    4    4    0    0 -0.43434386867E-01  0.24686760654E-01 -0.28967975186E-01  0.57752807910E-01  0.51100000000E-03 0.  1.
         11    1    4    4    0    0 -0.52559308689E-01  0.47225035871E-01 -0.19809437354E-01  0.73385011223E-01  0.51100000000E-03 0. -1.
</event>
<event>
 8    1  0.1109294E+005  0.1043930E+01  0.7957747E-01            NaN
         13   -1    0    0    0    0  0.00000000000E+00  0.00000000000E+00  0.74505805969E-08  0.10566000000E+00  0.10566000000E+00 0. -1.
     999900   -1    0    0    0    0 -0.00000000000E+00 -0.00000000000E+00 -0.74505805969E-08  0.93827000000E+00  0.93827000000E+00 0.  1.
     999902    2    1    2    0    0  0.69741658201E-02  0.19689330931E-01 -0.11526368360E-01  0.10200728017E+01  0.10197937806E+01 0.  0.
     999903    2    3    3    0    0  0.59401633986E-01 -0.96874948614E-01  0.55755346000E-01  0.12829777418E+00  0.20936820753E-01 0.  0.
         14    1    1    2    0    0 -0.69741658201E-02 -0.19689330931E-01  0.11526368360E-01  0.23857198263E-01  0.00000000000E+00 0. -1.
     999901    1    3    3    0    0 -0.52427468166E-01  0.11656427954E+00 -0.67281714360E-01  0.89177502756E+00  0.88000000000E+00 0.  1.
        -11    1    4    4    0    0  0.21158274271E-01 -0.29457150698E-01  0.76428378792E-02  0.37068455447E-01  0.51100000000E-03 0. -1.
         11    1    4    4    0    0  0.38243359715E-01 -0.67417797916E-01  0.48112508121E-01  0.91229318735E-01  0.51100000000E-03 0.  1.
</event>
<event>
 8    1  0.1109294E+005  0.1043930E+01  0.7957747E-01            NaN
         13   -1    0    0    0    0  0.00000000000E+00  0.00000000000E+00  0.74505805969E-08  0.10566000000E+00  0.10566000000E+00 0.  1.
     999900   -1    0    0    0    0 -0.00000000000E+00 -0.00000000000E+00 -0.74505805969E-08  0.93827000000E+00  0.93827000000E+00 0.  1.
     999902    2    1    2    0    0 -0.63007601650E-02 -0.23203628117E-01 -0.33501658018E-02  0.10196538482E+01  0.10193648211E+01 0.  0.
     999903    2    3    3    0    0 -0.11992622888E+00  0.11952038140E-02  0.48019150193E-01  0.13052795340E+00  0.18654193848E-01 0.  0.
         14    1    1    2    0    0  0.63007601650E-02  0.23203628117E-01  0.33501658018E-02  0.24276151823E-01  0.00000000000E+00 0.  1.
     999901    1    3    3    0    0  0.11362546871E+00 -0.24398831931E-01 -0.51369315995E-01  0.88912589478E+00  0.88000000000E+00 0.  1.
        -11    1    4    4    0    0 -0.55103266013E-01 -0.87332152656E-02  0.22086793381E-01  0.60006054170E-01  0.51100000000E-03 0. -1.
         11    1    4    4    0    0 -0.64822962865E-01  0.99284190795E-02  0.25932356812E-01  0.70521899228E-01  0.51100000000E-03 0.  1.
</event>
<event>
 8    1  0.1109294E+005  0.1043930E+01  0.7957747E-01            NaN
         13   -1    0    0    0    0  0.00000000000E+00  0.00000000000E+00  0.74505805969E-08  0.10566000000E+00  0.10566000000E+00 0. -1.
     999900   -1    0    0    0    0 -0.00000000000E+00 -0.00000000000E+00 -0.74505805969E-08  0.93827000000E+00  0.93827000000E+00 0. -1.
     999902    2    1    2    0    0 -0.84014100255E-02  0.12413109367E-01  0.15151581393E-01  0.10226171073E+01  0.10223949867E+01 0.  0.
     999903    2    3    3    0    0 -0.12112858616E+00  0.38558924553E-01 -0.35905817110E-01  0.13357387002E+00  0.19845049823E-01 0.  0.
         14    1    1    2    0    0  0.84014100255E-02 -0.12413109367E-01 -0.15151581393E-01  0.21312892654E-01  0.00000000000E+00 0.  1.
     999901    1    3    3    0    0  0.11272717613E+00 -0.26145815185E-01  0.51057398503E-01  0.88904323732E+00  0.88000000000E+00 0. -1.
        -11    1    4    4    0    0 -0.70101367006E-01  0.29144439865E-01 -0.13770014795E-01  0.77158761393E-01  0.51100000000E-03 0. -1.
         11    1    4    4    0    0 -0.51027219153E-01  0.94144846874E-02 -0.22135802315E-01  0.56415108629E-01  0.51100000000E-03 0.  1.
</event>
<event>
 8    1  0.1109294E+005  0.1043930E+01  0.7957747E-01            NaN
         13   -1    0    0    0    0  0.00000000000E+00  0.00000000000E+00  0.74505805969E-08  0.10566000000E+00  0.10566000000E+00 0.  1.
     999900   -1    0    0    0    0 -0.00000000000E+00 -0.00000000000E+00 -0.74505805969E-08  0.93827000000E+00  0.93827000000E+00 0.  1.
     999902    2    1    2    0    0  0.72419092521E-02 -0.19647000579E-01 -0.10940137582E-01  0.10203050875E+01  0.10200315363E+01 0.  0.
     999903    2    3    3    0    0 -0.86018819433E-01 -0.68161627830E-01  0.68596246167E-01  0.13048641555E+00  0.16613694641E-01 0.  0.
         14    1    1    2    0    0 -0.72419092521E-02  0.19647000579E-01  0.10940137582E-01  0.23624912522E-01  0.00000000000E+00 0.  1.
     999901    1    3    3    0    0  0.93260728685E-01  0.48514627251E-01 -0.79536383749E-01  0.88981867193E+00  0.88000000000E+00 0.  1.
        -11    1    4    4    0    0 -0.70580197278E-01 -0.61839194429E-01  0.53720921188E-01  0.10812885235E+00  0.51100000000E-03 0. -1.
         11    1    4    4    0    0 -0.15438622155E-01 -0.63224334014E-02  0.14875324979E-01  0.22357563203E-01  0.51100000000E-03 0.  1.
</event>
<event>
 8    1  0.1109294E+005  0.1043930E+01  0.7957747E-01            NaN
         13   -1    0    0    0    0  0.00000000000E+00  0.00000000000E+00  0.74505805969E-08  0.10566000000E+00  0.10566000000E+00 0.  1.
     999900   -1    0    0    0    0 -0.00000000000E+00 -0.00000000000E+00 -0.74505805969E-08  0.93827000000E+00  0.93827000000E+00 0.  1.
     999902    2    1    2    0    0 -0.19715162929E-01  0.67689453953E-02 -0.10482989799E-01  0.10205976331E+01  0.10203308921E+01 0.  0.
     999903    2    3    3    0    0 -0.85252857974E-01 -0.34927197683E-01 -0.93870359992E-01  0.13324921711E+00  0.21348312431E-01 0.  0.
         14    1    1    2    0    0  0.19715162929E-01 -0.67689453953E-02  0.10482989799E-01  0.23332366922E-01  0.00000000000E+00 0. -1.
     999901    1    3    3    0    0  0.65537695045E-01  0.41696143078E-01  0.83387370193E-01  0.88734841597E+00  0.88000000000E+00 0. -1.
        -11    1    4    4    0    0 -0.48879006226E-01 -0.31215342706E-01 -0.56813293759E-01  0.81188461857E-01  0.51100000000E-03 0.  1.
         11    1    4    4    0    0 -0.36373851748E-01 -0.37118549767E-02 -0.37057066232E-01  0.52060755249E-01  0.51100000000E-03 0. -1.
</event>
<event>
 8    1  0.1109294E+005  0.1043930E+01  0.7957747E-01            NaN
         13   -1    0    0    0    0  0.00000000000E+00  0.00000000000E+00  0.74505805969E-08  0.10566000000E+00  0.10566000000E+00 0. -1.
     999900   -1    0    0    0    0 -0.00000000000E+00 -0.00000000000E+00 -0.74505805969E-08  0.93827000000E+00  0.93827000000E+00 0.  1.
     999902    2    1    2    0    0  0.92805733616E-02  0.12619356283E-01  0.10703871272E-01  0.10249576502E+01  0.10247820426E+01 0.  0.
     999903    2    3    3    0    0 -0.51795746880E-01  0.18727435956E-01  0.12233315791E+00  0.13578459444E+00  0.20941306371E-01 0.  0.
         14    1    1    2    0    0 -0.92805733616E-02 -0.12619356283E-01 -0.10703871272E-01  0.18972349752E-01  0.00000000000E+00 0.  1.
     999901    1    3    3    0    0  0.61076320242E-01 -0.61080796733E-02 -0.11162928664E+00  0.88917305580E+00  0.88000000000E+00 0.  1.
        -11    1    4    4    0    0 -0.24607551101E-01 -0.16815425890E-02  0.57742885703E-01  0.62792205941E-01  0.51100000000E-03 0.  1.
         11    1    4    4    0    0 -0.27188195779E-01  0.20408978545E-01  0.64590272204E-01  0.72992388503E-01  0.51100000000E-03 0. -1.
</event>
<event>
 8    1  0.1109294E+005  0.1043930E+01  0.7957747E-01            NaN
         13   -1    0    0    0    0  0.00000000000E+00  0.00000000000E+00  0.74505805969E-08  0.10566000000E+00  0.10566000000E+00 0.  1.
     999900   -1    0    0    0    0 -0.00000000000E+00 -0.00000000000E+00 -0.74505805969E-08  0.93827000000E+00  0.93827000000E+00 0.  1.
     999902    2    1    2    0    0 -0.21814869280E-01 -0.91530736899E-02  0.71462150498E-03  0.10202619210E+01  0.10199873575E+01 0.  0.
     999903    2    3    3    0    0 -0.10768780259E+00 -0.65036450884E-01  0.39876517027E-01  0.13345260295E+00  0.19825686723E-01 0.  0.
         14    1    1    2    0    0  0.21814869280E-01  0.91530736899E-02 -0.71462150498E-03  0.23668079000E-01  0.00000000000E+00 0.  1.
     999901    1    3    3    0    0  0.85872933307E-01  0.55883377194E-01 -0.39161895522E-01  0.88680931805E+00  0.88000000000E+00 0.  1.
        -11    1    4    4    0    0 -0.60941092370E-01 -0.28012714640E-01  0.14385079027E-01  0.68598254645E-01  0.51100000000E-03 0.  1.
         11    1    4    4    0    0 -0.46746710216E-01 -0.37023736244E-01  0.25491438000E-01  0.64854348303E-01  0.51100000000E-03 0. -1.
</event>
<event>
 8    1  0.1109294E+005  0.1043930E+01  0.7957747E-01            NaN
         13   -1    0    0    0    0  0.00000000000E+00  0.00000000000E+00  0.74505805969E-08  0.10566000000E+00  0.10566000000E+00 0.  1.
     999900   -1    0    0    0    0 -0.00000000000E+00 -0.00000000000E+00 -0.74505805969E-08  0.93827000000E+00  0.93827000000E+00 0.  1.
     999902    2    1    2    0    0  0.18164838806E-01  0.15356874818E-01  0.27729002126E-03  0.10201419386E+01  0.10198645514E+01 0.  0.
     999903    2    3    3    0    0  0.62781992021E-01  0.59204287096E-01  0.98430147129E-01  0.13247799927E+00  0.20376464190E-01 0.  0.
         14    1    1    2    0    0 -0.18164838806E-01 -0.15356874818E-01 -0.27729002126E-03  0.23788061350E-01  0.00000000000E+00 0.  1.
     999901    1    3    3    0    0 -0.44617153215E-01 -0.43847412278E-01 -0.98152857108E-01  0.88766393938E+00  0.88000000000E+00 0.  1.
        -11    1    4    4    0    0  0.75346044121E-02  0.18332616804E-01  0.19283949379E-01  0.27658397047E-01  0.51100000000E-03 0.  1.
         11    1    4    4    0    0  0.55247387609E-01  0.40871670292E-01  0.79146197750E-01  0.10481960222E+00  0.51100000000E-03 0. -1.
</event>
<event>
 8    1  0.1109294E+005  0.1043930E+01  0.7957747E-01            NaN
         13   -1    0    0    0    0  0.00000000000E+00  0.00000000000E+00  0.74505805969E-08  0.10566000000E+00  0.10566000000E+00 0. -1.
     999900   -1    0    0    0    0 -0.00000000000E+00 -0.00000000000E+00 -0.74505805969E-08  0.93827000000E+00  0.93827000000E+00 0.  1.
     999902    2    1    2    0    0 -0.18664116001E-01  0.50720944911E-04 -0.14622437467E-01  0.10202199288E+01  0.10199443787E+01 0.  0.
     999903    2    3    3    0    0 -0.55969542740E-01 -0.65139132333E-01 -0.99387072061E-01  0.13296209981E+00  0.20626042201E-01 0.  0.
         14    1    1    2    0    0  0.18664116001E-01 -0.50720944911E-04  0.14622437467E-01  0.23710071198E-01  0.00000000000E+00 0. -1.
     999901    1    3    3    0    0  0.37305426738E-01  0.65189853277E-01  0.84764634593E-01  0.88725782899E+00  0.88000000000E+00 0. -1.
        -11    1    4    4    0    0 -0.21596395144E-01 -0.30813670667E-01 -0.29340119114E-01  0.47717819458E-01  0.51100000000E-03 0.  1.
         11    1    4    4    0    0 -0.34373147595E-01 -0.34325461666E-01 -0.70046952947E-01  0.85244280350E-01  0.51100000000E-03 0. -1.
</event>
<event>
 8    1  0.1109294E+005  0.1043930E+01  0.7957747E-01            NaN
         13   -1    0    0    0    0  0.00000000000E+00  0.00000000000E+00  0.74505805969E-08  0.10566000000E+00  0.10566000000E+00 0.  1.
     999900   -1    0    0    0    0 -0.00000000000E+00 -0.00000000000E+00 -0.74505805969E-08  0.93827000000E+00  0.93827000000E+00 0. -1.
     999902    2    1    2    0    0 -0.13368981114E-01  0.63310009359E-02  0.17733991970E-01  0.10208365875E+01  0.10205753440E+01 0.  0.
     999903    2    3    3    0    0 -0.57256204826E-03 -0.11939520800E+00 -0.45787039878E-01  0.12954216397E+00  0.20716556290E-01 0.  0.
         14    1    1    2    0    0  0.13368981114E-01 -0.63310009359E-02 -0.17733991970E-01  0.23093412482E-01  0.00000000000E+00 0. -1.
     999901    1    3    3    0    0 -0.12796419065E-01  0.12572620894E+00  0.63521031848E-01  0.89129442354E+00  0.88000000000E+00 0.  1.
        -11    1    4    4    0    0  0.85764617374E-02 -0.42424196357E-01 -0.21367534543E-01  0.48272153318E-01  0.51100000000E-03 0.  1.
         11    1    4    4    0    0 -0.91490237857E-02 -0.76971011646E-01 -0.24419505335E-01  0.81270010655E-01  0.51100000000E-03 0. -1.
</event>
<event>
 8    1  0.1109294E+005  0.1043930E+01  0.7957747E-01            NaN
         13   -1    0    0    0    0  0.00000000000E+00  0.00000000000E+00  0.74505805969E-08  0.10566000000E+00  0.10566000000E+00 0.  1.
     999900   -1    0    0    0    0 -0.00000000000E+00 -0.00000000000E+00 -0.74505805969E-08  0.93827000000E+00  0.93827000000E+00 0.  1.
     999902    2    1    2    0    0 -0.20219153759E-01 -0.74675969028E-02  0.99022281141E-02  0.10202101074E+01  0.10199343263E+01 0.  0.
     999903    2    3    3    0    0  0.33847731879E-02  0.47886962147E-02  0.12997611257E+00  0.13165785808E+00  0.20139847432E-01 0.  0.
         14    1    1    2    0    0  0.20219153759E-01  0.74675969028E-02 -0.99022281141E-02  0.23719892577E-01  0.00000000000E+00 0.  1.
     999901    1    3    3    0    0 -0.23603926947E-01 -0.12256293117E-01 -0.12007388445E+00  0.88855224934E+00  0.88000000000E+00 0.  1.
        -11    1    4    4    0    0  0.80121012648E-02  0.10590054103E-01  0.73196164485E-01  0.74392759251E-01  0.51100000000E-03 0.  1.
         11    1    4    4    0    0 -0.46273280769E-02 -0.58013578885E-02  0.56779948082E-01  0.57265098827E-01  0.51100000000E-03 0. -1.
</event>
<event>
 8    1  0.1109294E+005  0.1043930E+01  0.7957747E-01            NaN
         13   -1    0    0    0    0  0.00000000000E+00  0.00000000000E+00  0.74505805969E-08  0.10566000000E+00  0.10566000000E+00 0.  1.
     999900   -1    0    0    0    0 -0.00000000000E+00 -0.00000000000E+00 -0.74505805969E-08  0.93827000000E+00  0.93827000000E+00 0.  1.
     999902    2    1    2    0    0 -0.21250594322E-02  0.13953455640E-01 -0.19347783911E-01  0.10199810638E+01  0.10196998671E+01 0.  0.
     999903    2    3    3    0    0 -0.83533025378E-01 -0.87036907896E-01  0.39585120055E-01  0.12852192420E+00  0.19942758207E-01 0.  0.
         14    1    1    2    0    0  0.21250594322E-02 -0.13953455640E-01  0.19347783911E-01  0.23948936180E-01  0.00000000000E+00 0.  1.
     999901    1    3    3    0    0  0.81407965946E-01  0.10099036354E+00 -0.58932903965E-01  0.89145913962E+00  0.88000000000E+00 0.  1.
        -11    1    4    4    0    0 -0.45241701356E-01 -0.32816645275E-01  0.17843338291E-01  0.58671880752E-01  0.51100000000E-03 0.  1.
         11    1    4    4    0    0 -0.38291324022E-01 -0.54220262621E-01  0.21741781764E-01  0.69850043445E-01  0.51100000000E-03 0. -1.
</event>
<event>
 8    1  0.1109294E+005  0.1043930E+01  0.7957747E-01            NaN
         13   -1    0    0    0    0  0.00000000000E+00  0.00000000000E+00  0.74505805969E-08  0.10566000000E+00  0.10566000000E+00 0.  1.
     999900   -1    0    0    0    0 -0.00000000000E+00 -0.00000000000E+00 -0.74505805969E-08  0.93827000000E+00  0.93827000000E+00 0. -1.
     999902    2    1    2    0    0  0.76202888509E-03 -0.25187369841E-01  0.51428624803E-02  0.10182116540E+01  0.10178868007E+01 0.  0.
     999903    2    3    3    0    0  0.15616260687E-01 -0.12180304288E+00  0.45292355834E-01  0.13188935465E+00  0.16234393071E-01 0.  0.
         14    1    1    2    0    0 -0.76202888509E-03  0.25187369841E-01 -0.51428624803E-02  0.25718346021E-01  0.00000000000E+00 0. -1.
     999901    1    3    3    0    0 -0.14854231802E-01  0.96615673042E-01 -0.40149493354E-01  0.88632229933E+00  0.88000000000E+00 0. -1.
        -11    1    4    4    0    0  0.79589707052E-02 -0.26624975575E-01  0.15702394889E-01  0.31922732736E-01  0.51100000000E-03 0. -1.
         11    1    4    4    0    0  0.76572899822E-02 -0.95178067308E-01  0.29589960945E-01  0.99966621910E-01  0.51100000000E-03 0.  1.
</event>
<event>
 8    1  0.1109294E+005  0.1043930E+01  0.7957747E-01            NaN
         13   -1    0    0    0    0  0.00000000000E+00  0.00000000000E+00  0.74505805969E-08  0.10566000000E+00  0.10566000000E+00 0.  1.
     999900   -1    0    0    0    0 -0.00000000000E+00 -0.00000000000E+00 -0.74505805969E-08  0.93827000000E+00  0.93827000000E+00 0.  1.
     999902    2    1    2    0    0  0.13064056531E-02 -0.84237102845E-02 -0.21073686673E-01  0.10211975153E+01  0.10209444644E+01 0.  0.
     999903    2    3    3    0    0  0.10854857998E+00 -0.11672285927E-01 -0.73463606596E-01  0.13313437514E+00  0.20219393547E-01 0.  0.
         14    1    1    2    0    0 -0.13064056531E-02  0.84237102845E-02  0.21073686673E-01  0.22732484701E-01  0.00000000000E+00 0.  1.
     999901    1    3    3    0    0 -0.10724217433E+00  0.32485756422E-02  0.52389919922E-01  0.88806314016E+00  0.88000000000E+00 0.  1.
        -11    1    4    4    0    0  0.56065430025E-01  0.22821601052E-02 -0.30371552295E-01  0.63806214497E-01  0.51100000000E-03 0.  1.
         11    1    4    4    0    0  0.52483149955E-01 -0.13954446032E-01 -0.43092054301E-01  0.69328160643E-01  0.51100000000E-03 0. -1.
</event>
<event>
 8    1  0.1239226E+005  0.1043930E+01  0.7957747E-01            NaN
         13   -1    0    0    0    0  0.00000000000E+00  0.00000000000E+00  0.74505805969E-08  0.10566000000E+00  0.10566000000E+00 0. -1.
     999900   -1    0    0    0    0 -0.00000000000E+00 -0.00000000000E+00 -0.74505805969E-08  0.93827000000E+00  0.93827000000E+00 0. -1.
     999902    2    1    2    0    0  0.30722704745E-02 -0.16559429853E-01  0.14466985723E-01  0.10217275848E+01  0.10214863241E+01 0.  0.
     999903    2    3    3    0    0 -0.77186336896E-01 -0.10083873300E+00  0.36266124278E-01  0.13379760594E+00  0.21456628533E-01 0.  0.
         14    1    1    2    0    0 -0.30722704745E-02  0.16559429853E-01 -0.14466985723E-01  0.22202415158E-01  0.00000000000E+00 0.  1.
     999901    1    3    3    0    0  0.80258607370E-01  0.84279303147E-01 -0.21799138555E-01  0.88792997890E+00  0.88000000000E+00 0. -1.
        -11    1    4    4    0    0 -0.27453844064E-01 -0.32457283574E-01  0.22591008881E-01  0.48143572926E-01  0.51100000000E-03 0.  1.
         11    1    4    4    0    0 -0.49732492832E-01 -0.68381449427E-01  0.13675115397E-01  0.85654033011E-01  0.51100000000E-03 0. -1.
</event>
<event>
 8    1  0.1109294E+005  0.1043930E+01  0.7957747E-01            NaN
         13   -1    0    0    0    0  0.00000000000E+00  0.00000000000E+00  0.74505805969E-08  0.10566000000E+00  0.10566000000E+00 0. -1.
     999900   -1    0    0    0    0 -0.00000000000E+00 -0.00000000000E+00 -0.74505805969E-08  0.93827000000E+00  0.93827000000E+00 0. -1.
     999902    2    1    2    0    0 -0.65022817452E-02 -0.19414366259E-01  0.12613668617E-01  0.10198820911E+01  0.10195985376E+01 0.  0.
     999903    2    3    3    0    0  0.87084096145E-01  0.10489205050E-02 -0.92237780609E-01  0.12849497958E+00  0.20455111091E-01 0.  0.
         14    1    1    2    0    0  0.65022817452E-02  0.19414366259E-01 -0.12613668617E-01  0.24047908872E-01  0.00000000000E+00 0. -1.
     999901    1    3    3    0    0 -0.93586377890E-01 -0.20463286764E-01  0.10485144923E+00  0.89138711155E+00  0.88000000000E+00 0.  1.
        -11    1    4    4    0    0  0.61596573619E-01  0.71144065786E-02 -0.74118891091E-01  0.96636555196E-01  0.51100000000E-03 0.  1.
         11    1    4    4    0    0  0.25487522526E-01 -0.60654860736E-02 -0.18118889518E-01  0.31858424383E-01  0.51100000000E-03 0. -1.
</event>
<event>
 8    1  0.1109294E+005  0.1043930E+01  0.7957747E-01            NaN
         13   -1    0    0    0    0  0.00000000000E+00  0.00000000000E+00  0.74505805969E-08  0.10566000000E+00  0.10566000000E+00 0.  1.
     999900   -1    0    0    0    0 -0.00000000000E+00 -0.00000000000E+00 -0.74505805969E-08  0.93827000000E+00  0.93827000000E+00 0. -1.
     999902    2    1    2    0    0 -0.12079520399E-01  0.13883545808E-01  0.15145887922E-01  0.10200958737E+01  0.10198173983E+01 0.  0.
     999903    2    3    3    0    0  0.14549775650E-01 -0.35104943282E-01  0.12439438087E+00  0.13158913498E+00  0.19942052005E-01 0.  0.
         14    1    1    2    0    0  0.12079520399E-01 -0.13883545808E-01 -0.15145887922E-01  0.23834126336E-01  0.00000000000E+00 0. -1.
     999901    1    3    3    0    0 -0.26629296048E-01  0.48988489090E-01 -0.10924849295E+00  0.88850673868E+00  0.88000000000E+00 0. -1.
        -11    1    4    4    0    0  0.16135981536E-01 -0.22999097370E-01  0.10475542141E+00  0.10845869175E+00  0.51100000000E-03 0. -1.
         11    1    4    4    0    0 -0.15862058863E-02 -0.12105845912E-01  0.19638959460E-01  0.23130443230E-01  0.51100000000E-03 0.  1.
</event>
<event>
 8    1  0.1109294E+005  0.1043930E+01  0.7957747E-01            NaN
         13   -1    0    0    0    0  0.00000000000E+00  0.00000000000E+00  0.74505805969E-08  0.10566000000E+00  0.10566000000E+00 0. -1.
     999900   -1    0    0    0    0 -0.00000000000E+00 -0.00000000000E+00 -0.74505805969E-08  0.93827000000E+00  0.93827000000E+00 0.  1.
     999902    2    1    2    0    0  0.99778000862E-02  0.65552954247E-02 -0.20286283105E-01  0.10203914853E+01  0.10201199545E+01 0.  0.
     999903    2    3    3    0    0 -0.34195774189E-01  0.32956768650E-01  0.11732833024E+00  0.12821094063E+00  0.20410993357E-01 0.  0.
         14    1    1    2    0    0 -0.99778000862E-02 -0.65552954247E-02  0.20286283105E-01  0.23538514712E-01  0.00000000000E+00 0.  1.
     999901    1    3    3    0    0  0.44173574275E-01 -0.26401473225E-01 -0.13761461334E+00  0.89218054465E+00  0.88000000000E+00 0.  1.
        -11    1    4    4    0    0 -0.55172359048E-02  0.39378822126E-02  0.41957603835E-01  0.42504687376E-01  0.51100000000E-03 0.  1.
         11    1    4    4    0    0 -0.28678538284E-01  0.29018886438E-01  0.75370726403E-01  0.85706253259E-01  0.51100000000E-03 0. -1.
</event>
<event>
 8    1  0.1109294E+005  0.1043930E+01  0.7957747E-01            NaN
         13   -1    0    0    0    0  0.00000000000E+00  0.00000000000E+00  0.74505805969E-08  0.10566000000E+00  0.10566000000E+00 0.  1.
     999900   -1    0    0    0    0 -0.00000000000E+00 -0.00000000000E+00 -0.74505805969E-08  0.93827000000E+00  0.93827000000E+00 0.  1.
     999902    2    1    2    0    0  0.11477520527E-01  0.11319958799E-01  0.21972874067E-01  0.10166778049E+01  0.10163124897E+01 0.  0.
     999903    2    3    3    0    0  0.90963606258E-02  0.17763319172E-01  0.12715268857E+00  0.13038779579E+00  0.20854059437E-01 0.  0.
         14    1    1    2    0    0 -0.11477520527E-01 -0.11319958799E-01 -0.21972874067E-01  0.27252195130E-01  0.00000000000E+00 0. -1.
     999901    1    3    3    0    0  0.23811599009E-02 -0.64433603722E-02 -0.10517981451E+00  0.88629000908E+00  0.88000000000E+00 0.  1.
        -11    1    4    4    0    0 -0.21307670199E-03  0.18991732212E-01  0.95317733716E-01  0.97192915255E-01  0.51100000000E-03 0.  1.
         11    1    4    4    0    0  0.93094373278E-02 -0.12284130403E-02  0.31834954857E-01  0.33194880534E-01  0.51100000000E-03 0. -1.
</event>
<event>
 8    1  0.1109294E+005  0.1043930E+01  0.7957747E-01            NaN
         13   -1    0    0    0    0  0.00000000000E+00  0.00000000000E+00  0.74505805969E-08  0.10566000000E+00  0.10566000000E+00 0.  1.
     999900   -1    0    0    0    0 -0.00000000000E+00 -0.00000000000E+00 -0.74505805969E-08  0.93827000000E+00  0.93827000000E+00 0.  1.
     999902    2    1    2    0    0  0.12963613966E-01  0.12268557916E-01  0.17957953375E-01  0.10186108197E+01  0.10182960970E+01 0.  0.
     999903    2    3    3    0    0 -0.21742028882E-02 -0.60915303760E-01 -0.10877978660E+00  0.12639588719E+00  0.20675515347E-01 0.  0.
         14    1    1    2    0    0 -0.12963613966E-01 -0.12268557916E-01 -0.17957953375E-01  0.25319180276E-01  0.00000000000E+00 0. -1.
     999901    1    3    3    0    0  0.15137816854E-01  0.73183861676E-01  0.12673773997E+00  0.89221493254E+00  0.88000000000E+00 0. -1.
        -11    1    4    4    0    0  0.12887067712E-02 -0.35021977403E-01 -0.42104516015E-01  0.54783675089E-01  0.51100000000E-03 0. -1.
         11    1    4    4    0    0 -0.34629096594E-02 -0.25893326356E-01 -0.66675270584E-01  0.71612212098E-01  0.51100000000E-03 0.  1.
</event>
<event>
 8    1  0.1109294E+005  0.1043930E+01  0.7957747E-01            NaN
         13   -1    0    0    0    0  0.00000000000E+00  0.00000000000E+00  0.74505805969E-08  0.10566000000E+00  0.10566000000E+00 0.  1.
     999900   -1    0    0    0    0 -0.00000000000E+00 -0.00000000000E+00 -0.74505805969E-08  0.93827000000E+00  0.93827000000E+00 0.  1.
     999902    2    1    2    0    0 -0.10041727458E-01  0.21642613116E-01 -0.23262919362E-02  0.10199581284E+01  0.10196763865E+01 0.  0.
     999903    2    3    3    0    0  0.84833904912E-01 -0.88548807276E-01 -0.30377609071E-01  0.12758465776E+00  0.17814686923E-01 0.  0.
         14    1    1    2    0    0  0.10041727458E-01 -0.21642613116E-01  0.23262919362E-02  0.23971871579E-01  0.00000000000E+00 0. -1.
     999901    1    3    3    0    0 -0.94875632370E-01  0.11019142039E+00  0.28051317135E-01  0.89237347066E+00  0.88000000000E+00 0.  1.
        -11    1    4    4    0    0  0.45404400695E-01 -0.53429767925E-01 -0.25274709032E-01  0.74534366172E-01  0.51100000000E-03 0.  1.
         11    1    4    4    0    0  0.39429504218E-01 -0.35119039351E-01 -0.51029000390E-02  0.53050291588E-01  0.51100000000E-03 0. -1.
</event>
<event>
 8    1  0.1109294E+005  0.1043930E+01  0.7957747E-01            NaN
         13   -1    0    0    0    0  0.00000000000E+00  0.00000000000E+00  0.74505805969E-08  0.10566000000E+00  0.10566000000E+00 0.  1.
     999900   -1    0    0    0    0 -0.00000000000E+00 -0.00000000000E+00 -0.74505805969E-08  0.93827000000E+00  0.93827000000E+00 0. -1.
     999902    2    1    2    0    0 -0.27449201516E-01  0.63913063695E-02 -0.67628701606E-02  0.10149464896E+01  0.10145325687E+01 0.  0.
     999903    2    3    3    0    0  0.29811122083E-01 -0.11859928583E+00 -0.99979321791E-02  0.12426593049E+00  0.19686778081E-01 0.  0.
         14    1    1    2    0    0  0.27449201516E-01 -0.63913063695E-02  0.67628701606E-02  0.28983510378E-01  0.00000000000E+00 0.  1.
     999901    1    3    3    0    0 -0.57260323599E-01  0.12499059220E+00  0.32350620185E-02  0.89068055914E+00  0.88000000000E+00 0. -1.
        -11    1    4    4    0    0  0.95764202319E-02 -0.61635725993E-01 -0.13082208441E-01  0.63734416462E-01  0.51100000000E-03 0. -1.
         11    1    4    4    0    0  0.20234701851E-01 -0.56963559842E-01  0.30842762617E-02  0.60531514023E-01  0.51100000000E-03 0.  1.
</event>
<event>
 8    1  0.1109294E+005  0.1043930E+01  0.7957747E-01            NaN
         13   -1    0    0    0    0  0.00000000000E+00  0.00000000000E+00  0.74505805969E-08  0.10566000000E+00  0.10566000000E+00 0.  1.
     999900   -1    0    0    0    0 -0.00000000000E+00 -0.00000000000E+00 -0.74505805969E-08  0.93827000000E+00  0.93827000000E+00 0.  1.
     999902    2    1    2    0    0  0.62602722088E-02 -0.16002358777E-01  0.14580600975E-01  0.10213942413E+01  0.10211455997E+01 0.  0.
     999903    2    3    3    0    0  0.74597466244E-01  0.10385761326E+00 -0.14238758477E-01  0.13017769049E+00  0.19806641766E-01 0.  0.
         14    1    1    2    0    0 -0.62602722088E-02  0.16002358777E-01 -0.14580600975E-01  0.22535758681E-01  0.00000000000E+00 0. -1.
     999901    1    3    3    0    0 -0.68337194035E-01 -0.11985997203E+00  0.28819359452E-01  0.89121655082E+00  0.88000000000E+00 0. -1.
        -11    1    4    4    0    0  0.41525094292E-01  0.49766204300E-01 -0.15953436122E-01  0.66751642613E-01  0.51100000000E-03 0.  1.
         11    1    4    4    0    0  0.33072371952E-01  0.54091408957E-01  0.17146776449E-02  0.63426047881E-01  0.51100000000E-03 0. -1.
</event>
<event>
 8    1  0.1109294E+005  0.1043930E+01  0.7957747E-01            NaN
         13   -1    0    0    0    0  0.00000000000E+00  0.00000000000E+00  0.74505805969E-08  0.10566000000E+00  0.10566000000E+00 0.  1.
     999900   -1    0    0    0    0 -0.00000000000E+00 -0.00000000000E+00 -0.74505805969E-08  0.93827000000E+00  0.93827000000E+00 0.  1.
     999902    2    1    2    0    0  0.23389089148E-01  0.55624457727E-02 -0.53421743344E-02  0.10193021881E+01  0.10190046229E+01 0.  0.
     999903    2    3    3    0    0  0.30186946436E-01  0.12092632579E+00  0.34173079570E-01  0.13086733341E+00  0.20592027172E-01 0.  0.
         14    1    1    2    0    0 -0.23389089148E-01 -0.55624457727E-02  0.53421743344E-02  0.24627811936E-01  0.00000000000E+00 0.  1.
     999901    1    3    3    0    0 -0.67978572881E-02 -0.11536388001E+00 -0.39515253904E-01  0.88843485466E+00  0.88000000000E+00 0. -1.
        -11    1    4    4    0    0  0.48626691399E-02  0.48790271139E-01  0.60562460652E-02  0.49407239818E-01  0.51100000000E-03 0.  1.
         11    1    4    4    0    0  0.25324277296E-01  0.72136054647E-01  0.28116833504E-01  0.81460093591E-01  0.51100000000E-03 0. -1.
</event>
<event>
 8    1  0.1109294E+005  0.1043930E+01  0.7957747E-01            NaN
         13   -1    0    0    0    0  0.00000000000E+00  0.00000000000E+00  0.74505805969E-08  0.10566000000E+00  0.10566000000E+00 0.  1.
     999900   -1    0    0    0    0 -0.00000000000E+00 -0.00000000000E+00 -0.74505805969E-08  0.93827000000E+00  0.93827000000E+00 0. -1.
     999902    2    1    2    0    0 -0.21439733207E-01  0.37988054478E-02  0.84561337340E-02  0.10205719333E+01  0.10203045975E+01 0.  0.
     999903    2    3    3    0    0 -0.38002234480E-01  0.11710872378E+00 -0.42339361137E-01  0.13169981856E+00  0.19839296766E-01 0.  0.
         14    1    1    2    0    0  0.21439733207E-01 -0.37988054478E-02 -0.84561337340E-02  0.23358066712E-01  0.00000000000E+00 0.  1.
     999901    1    3    3    0    0  0.16562501274E-01 -0.11330991833E+00  0.50795494871E-01  0.88887211473E+00  0.88000000000E+00 0.  1.
        -11    1    4    4    0    0 -0.35746777436E-01  0.97427208956E-01 -0.41783814142E-01  0.11187511514E+00  0.51100000000E-03 0. -1.
         11    1    4    4    0    0 -0.22554570446E-02  0.19681514825E-01 -0.55554699448E-03  0.19824703422E-01  0.51100000000E-03 0.  1.
</event>
<event>
 8    1  0.1109294E+005  0.1043930E+01  0.7957747E-01            NaN
         13   -1    0    0    0    0  0.00000000000E+00  0.00000000000E+00  0.74505805969E-08  0.10566000000E+00  0.10566000000E+00 0. -1.
     999900   -1    0    0    0    0 -0.00000000000E+00 -0.00000000000E+00 -0.74505805969E-08  0.93827000000E+00  0.93827000000E+00 0.  1.
     999902    2    1    2    0    0  0.45808305897E-02  0.17413614474E-01  0.14290163471E-01  0.10209424653E+01  0.10206836389E+01 0.  0.
     999903    2    3    3    0    0 -0.12386385797E+00  0.26997833920E-01  0.28521617933E-01  0.13145248249E+00  0.19877980655E-01 0.  0.
         14    1    1    2    0    0 -0.45808305897E-02 -0.17413614474E-01 -0.14290163471E-01  0.22987534665E-01  0.00000000000E+00 0.  1.
     999901    1    3    3    0    0  0.12844468856E+00 -0.95842194457E-02 -0.14231454463E-01  0.88948998284E+00  0.88000000000E+00 0. -1.
        -11    1    4    4    0    0 -0.90524703772E-01  0.16225024368E-01  0.28924925145E-01  0.96409988198E-01  0.51100000000E-03 0.  1.
         11    1    4    4    0    0 -0.33339154203E-01  0.10772809551E-01 -0.40330721152E-03  0.35042494294E-01  0.51100000000E-03 0. -1.
</event>
<event>
 8    1  0.1109294E+005  0.1043930E+01  0.7957747E-01            NaN
         13   -1    0    0    0    0  0.00000000000E+00  0.00000000000E+00  0.74505805969E-08  0.10566000000E+00  0.10566000000E+00 0. -1.
     999900   -1    0    0    0    0 -0.00000000000E+00 -0.00000000000E+00 -0.74505805969E-08  0.93827000000E+00  0.93827000000E+00 0.  1.
     999902    2    1    2    0    0 -0.13385549755E-02 -0.22851365564E-01 -0.64639391761E-02  0.10201443079E+01  0.10198669765E+01 0.  0.
     999903    2    3    3    0    0 -0.37700245046E-01 -0.97892414872E-01 -0.79433810974E-01  0.13319564325E+00  0.20666777425E-01 0.  0.
         14    1    1    2    0    0  0.13385549755E-02  0.22851365564E-01  0.64639391761E-02  0.23785692070E-01  0.00000000000E+00 0. -1.
     999901    1    3    3    0    0  0.36361690071E-01  0.75041049308E-01  0.72969871798E-01  0.88694866468E+00  0.88000000000E+00 0. -1.
        -11    1    4    4    0    0 -0.19935058242E-01 -0.64778983678E-01 -0.61634726565E-01  0.91612356772E-01  0.51100000000E-03 0. -1.
         11    1    4    4    0    0 -0.17765186804E-01 -0.33113431193E-01 -0.17799084409E-01  0.41583286479E-01  0.51100000000E-03 0.  1.
</event>
<event>
 8    1  0.1109294E+005  0.1043930E+01  0.7957747E-01            NaN
         13   -1    0    0    0    0  0.00000000000E+00  0.00000000000E+00  0.74505805969E-08  0.10566000000E+00  0.10566000000E+00 0.  1.
     999900   -1    0    0    0    0 -0.00000000000E+00 -0.00000000000E+00 -0.74505805969E-08  0.93827000000E+00  0.93827000000E+00 0.  1.
     999902    2    1    2    0    0 -0.11445585212E-01 -0.31340643678E-01 -0.61141545653E-02  0.10100092062E+01  0.10094394367E+01 0.  0.
     999903    2    3    3    0    0  0.98072608534E-01 -0.70320541102E-01  0.87708135370E-03  0.12233666265E+00  0.20056787163E-01 0.  0.
         14    1    1    2    0    0  0.11445585212E-01  0.31340643678E-01  0.61141545653E-02  0.33920793815E-01  0.00000000000E+00 0. -1.
     999901    1    3    3    0    0 -0.10951819375E+00  0.38979897424E-01 -0.69912359190E-02  0.88767254353E+00  0.88000000000E+00 0.  1.
        -11    1    4    4    0    0  0.60987380114E-01 -0.55231436672E-01 -0.19399796727E-03  0.82281655831E-01  0.51100000000E-03 0.  1.
         11    1    4    4    0    0  0.37085228420E-01 -0.15089104430E-01  0.10710793210E-02  0.40055006820E-01  0.51100000000E-03 0. -1.
</event>
<event>
 8    1  0.1109294E+005  0.1043930E+01  0.7957747E-01            NaN
         13   -1    0    0    0    0  0.00000000000E+00  0.00000000000E+00  0.74505805969E-08  0.10566000000E+00  0.10566000000E+00 0.  1.
     999900   -1    0    0    0    0 -0.00000000000E+00 -0.00000000000E+00 -0.74505805969E-08  0.93827000000E+00  0.93827000000E+00 0.  1.
     999902    2    1    2    0    0  0.79339648495E-03 -0.22801477049E-01 -0.72291558016E-02  0.10199968112E+01  0.10197159885E+01 0.  0.
     999903    2    3    3    0    0 -0.11080300050E+00  0.80825426700E-02  0.63564959485E-01  0.12959275388E+00  0.20276719830E-01 0.  0.
         14    1    1    2    0    0 -0.79339648495E-03  0.22801477049E-01  0.72291558016E-02  0.23933188822E-01  0.00000000000E+00 0.  1.
     999901    1    3    3    0    0  0.11159639699E+00 -0.30884019719E-01 -0.70794115286E-01  0.89040405730E+00  0.88000000000E+00 0.  1.
        -11    1    4    4    0    0 -0.78503593070E-01 -0.12520353478E-02  0.51357783128E-01  0.93820385451E-01  0.51100000000E-03 0. -1.
         11    1    4    4    0    0 -0.32299407434E-01  0.93345780178E-02  0.12207176357E-01  0.35772368428E-01  0.51100000000E-03 0.  1.
</event>
<event>
 8    1  0.1109294E+005  0.1043930E+01  0.7957747E-01            NaN
         13   -1    0    0    0    0  0.00000000000E+00  0.00000000000E+00  0.74505805969E-08  0.10566000000E+00  0.10566000000E+00 0. -1.
     999900   -1    0    0    0    0 -0.00000000000E+00 -0.00000000000E+00 -0.74505805969E-08  0.93827000000E+00  0.93827000000E+00 0. -1.
     999902    2    1    2    0    0 -0.15001299336E-01  0.96122489916E-02  0.29603139643E-01  0.10093788757E+01  0.10087873584E+01 0.  0.
     999903    2    3    3    0    0  0.10376771570E+00  0.38887969145E-01 -0.36492910393E-01  0.11846258641E+00  0.20533847751E-01 0.  0.
         14    1    1    2    0    0  0.15001299336E-01 -0.96122489916E-02 -0.29603139643E-01  0.34551124283E-01  0.00000000000E+00 0.  1.
     999901    1    3    3    0    0 -0.11876901504E+00 -0.29275720154E-01  0.66096050036E-01  0.89091628931E+00  0.88000000000E+00 0.  1.
        -11    1    4    4    0    0  0.35616304436E-01  0.81367458826E-02 -0.33955706251E-02  0.36694942377E-01  0.51100000000E-03 0.  1.
         11    1    4    4    0    0  0.68151411267E-01  0.30751223263E-01 -0.33097339768E-01  0.81767644032E-01  0.51100000000E-03 0. -1.
</event>
<event>
 8    1  0.1109294E+005  0.1043930E+01  0.7957747E-01            NaN
         13   -1    0    0    0    0  0.00000000000E+00  0.00000000000E+00  0.74505805969E-08  0.10566000000E+00  0.10566000000E+00 0.  1.
     999900   -1    0    0    0    0 -0.00000000000E+00 -0.00000000000E+00 -0.74505805969E-08  0.93827000000E+00  0.93827000000E+00 0.  1.
     999902    2    1    2    0    0 -0.19766464028E-01 -0.34068053450E-02  0.13013200808E-01  0.10200205287E+01  0.10197402690E+01 0.  0.
     999903    2    3    3    0    0 -0.56150735804E-01 -0.39417121505E-01  0.11213534814E+00  0.13297726132E+00  0.20049965735E-01 0.  0.
         14    1    1    2    0    0  0.19766464028E-01  0.34068053450E-02 -0.13013200808E-01  0.23909471306E-01  0.00000000000E+00 0. -1.
     999901    1    3    3    0    0  0.36384271776E-01  0.36010316160E-01 -0.99122147334E-01  0.88704326737E+00  0.88000000000E+00 0.  1.
        -11    1    4    4    0    0 -0.29550519892E-01 -0.22823579780E-01  0.42291814040E-01  0.56418150233E-01  0.51100000000E-03 0.  1.
         11    1    4    4    0    0 -0.26600215912E-01 -0.16593541725E-01  0.69843534102E-01  0.76559111087E-01  0.51100000000E-03 0. -1.
</event>
<event>
 8    1  0.1109294E+005  0.1043930E+01  0.7957747E-01            NaN
         13   -1    0    0    0    0  0.00000000000E+00  0.00000000000E+00  0.74505805969E-08  0.10566000000E+00  0.10566000000E+00 0. -1.
     999900   -1    0    0    0    0 -0.00000000000E+00 -0.00000000000E+00 -0.74505805969E-08  0.93827000000E+00  0.93827000000E+00 0.  1.
     999902    2    1    2    0    0  0.17186817809E-01 -0.10617216783E-01 -0.11939675502E-01  0.10204636869E+01  0.10201938387E+01 0.  0.
     999903    2    3    3    0    0 -0.80756972535E-01  0.86254562875E-01 -0.48001132486E-01  0.12901679762E+00  0.19485561782E-01 0.  0.
         14    1    1    2    0    0 -0.17186817809E-01  0.10617216783E-01  0.11939675502E-01  0.23466313083E-01  0.00000000000E+00 0. -1.
     999901    1    3    3    0    0  0.97943790343E-01 -0.96871779659E-01  0.36061456985E-01  0.89144688930E+00  0.88000000000E+00 0. -1.
        -11    1    4    4    0    0 -0.60498678553E-01  0.75393176309E-01 -0.36717754341E-01  0.10340539515E+00  0.51100000000E-03 0. -1.
         11    1    4    4    0    0 -0.20258293981E-01  0.10861386566E-01 -0.11283378145E-01  0.25611402471E-01  0.51100000000E-03 0.  1.
</event>
<event>
 8    1  0.1109294E+005  0.1043930E+01  0.7957747E-01            NaN
         13   -1    0    0    0    0  0.00000000000E+00  0.00000000000E+00  0.74505805969E-08  0.10566000000E+00  0.10566000000E+00 0.  1.
     999900   -1    0    0    0    0 -0.00000000000E+00 -0.00000000000E+00 -0.74505805969E-08  0.93827000000E+00  0.93827000000E+00 0. -1.
     999902    2    1    2    0    0 -0.89510235618E-02 -0.10569681669E-01 -0.18644223483E-01  0.10207040218E+01  0.10204397356E+01 0.  0.
     999903    2    3    3    0    0  0.69684762860E-01  0.68468448567E-01  0.80516602027E-01  0.12814394974E+00  0.19850794197E-01 0.  0.
         14    1    1    2    0    0  0.89510235618E-02  0.10569681669E-01  0.18644223483E-01  0.23225978185E-01  0.00000000000E+00 0.  1.
     999901    1    3    3    0    0 -0.78635786422E-01 -0.79038130236E-01 -0.99160825510E-01  0.89256007207E+00  0.88000000000E+00 0.  1.
        -11    1    4    4    0    0  0.42427866507E-01  0.31918279447E-01  0.52265846013E-01  0.74504229408E-01  0.51100000000E-03 0.  1.
         11    1    4    4    0    0  0.27256896353E-01  0.36550169120E-01  0.28250756015E-01  0.53639720337E-01  0.51100000000E-03 0. -1.
</event>
<event>
 8    1  0.1109294E+005  0.1043930E+01  0.7957747E-01            NaN
         13   -1    0    0    0    0  0.00000000000E+00  0.00000000000E+00  0.74505805969E-08  0.10566000000E+00  0.10566000000E+00 0. -1.
     999900   -1    0    0    0    0 -0.00000000000E+00 -0.00000000000E+00 -0.74505805969E-08  0.93827000000E+00  0.93827000000E+00 0.  1.
     999902    2    1    2    0    0 -0.33155826535E-02  0.21230609614E-02  0.23397900417E-01  0.10202031751E+01  0.10199272309E+01 0.  0.
     999903    2    3    3    0    0  0.51143833794E-01  0.10313961800E+00  0.61223273022E-01  0.13194593102E+00  0.20198193395E-01 0.  0.
         14    1    1    2    0    0  0.33155826535E-02 -0.21230609614E-02 -0.23397900417E-01  0.23726824906E-01  0.00000000000E+00 0.  1.
     999901    1    3    3    0    0 -0.54459416448E-01 -0.10101655704E+00 -0.37825372605E-01  0.88825724407E+00  0.88000000000E+00 0.  1.
        -11    1    4    4    0    0  0.48006815626E-01  0.89147198423E-01  0.59634952962E-01  0.11750942970E+00  0.51100000000E-03 0. -1.
         11    1    4    4    0    0  0.31370181678E-02  0.13992419581E-01  0.15883200599E-02  0.14436501319E-01  0.51100000000E-03 0.  1.
</event>
<event>
 8    1  0.1109294E+005  0.1043930E+01  0.7957747E-01            NaN
         13   -1    0    0    0    0  0.00000000000E+00  0.00000000000E+00  0.74505805969E-08  0.10566000000E+00  0.10566000000E+00 0.  1.
     999900   -1    0    0    0    0 -0.00000000000E+00 -0.00000000000E+00 -0.74505805969E-08  0.93827000000E+00  0.93827000000E+00 0. -1.
     999902    2    1    2    0    0 -0.14854440502E-01 -0.17781417782E-01 -0.34460174226E-02  0.10205054774E+01  0.10202366006E+01 0.  0.
     999903    2    3    3    0    0 -0.11213945474E+00  0.19686444432E-01 -0.64241219130E-01  0.13226886975E+00  0.20132219583E-01 0.  0.
         14    1    1    2    0    0  0.14854440502E-01  0.17781417782E-01  0.34460174226E-02  0.23424522557E-01  0.00000000000E+00 0.  1.
     999901    1    3    3    0    0  0.97285014240E-01 -0.37467862214E-01  0.60795201708E-01  0.88823660769E+00  0.88000000000E+00 0. -1.
        -11    1    4    4    0    0 -0.96602799062E-02  0.13485367226E-02 -0.12924880146E-01  0.16200407617E-01  0.51100000000E-03 0. -1.
         11    1    4    4    0    0 -0.10247917484E+00  0.18337907710E-01 -0.51316338984E-01  0.11606846213E+00  0.51100000000E-03 0.  1.
</event>
<event>
 8    1  0.1109294E+005  0.1043930E+01  0.7957747E-01            NaN
         13   -1    0    0    0    0  0.00000000000E+00  0.00000000000E+00  0.74505805969E-08  0.10566000000E+00  0.10566000000E+00 0. -1.
     999900   -1    0    0    0    0 -0.00000000000E+00 -0.00000000000E+00 -0.74505805969E-08  0.93827000000E+00  0.93827000000E+00 0. -1.
     999902    2    1    2    0    0  0.91561476310E-02  0.84851722902E-02 -0.20318770039E-01  0.10200828701E+01  0.10198040872E+01 0.  0.
     999903    2    3    3    0    0  0.93018425866E-01  0.91536704419E-01  0.66286397371E-03  0.13195525109E+00  0.19502643266E-01 0.  0.
         14    1    1    2    0    0 -0.91561476310E-02 -0.84851722902E-02  0.20318770039E-01  0.23847129893E-01  0.00000000000E+00 0. -1.
     999901    1    3    3    0    0 -0.83862278235E-01 -0.83051532129E-01 -0.20981634013E-01  0.88812761902E+00  0.88000000000E+00 0.  1.
        -11    1    4    4    0    0  0.29865918342E-01  0.21203568188E-01 -0.63162671235E-02  0.37171504324E-01  0.51100000000E-03 0. -1.
         11    1    4    4    0    0  0.63152507524E-01  0.70333136231E-01  0.69791310972E-02  0.94783746764E-01  0.51100000000E-03 0.  1.
</event>
<event>
 8    1  0.1109294E+005  0.1043930E+01  0.7957747E-01            NaN
         13   -1    0    0    0    0  0.00000000000E+00  0.00000000000E+00  0.74505805969E-08  0.10566000000E+00  0.10566000000E+00 0. -1.
     999900   -1    0    0    0    0 -0.00000000000E+00 -0.00000000000E+00 -0.74505805969E-08  0.93827000000E+00  0.93827000000E+00 0.  1.
     999902    2    1    2    0    0 -0.14920346352E-01  0.15215132996E-01  0.65946813584E-02  0.10216228973E+01  0.10213793309E+01 0.  0.
     999903    2    3    3    0    0 -0.36139917265E-01 -0.48684845595E-01 -0.11435782293E+00  0.13080137438E+00  0.18840914659E-01 0.  0.
         14    1    1    2    0    0  0.14920346352E-01 -0.15215132996E-01 -0.65946813584E-02  0.22307102671E-01  0.00000000000E+00 0.  1.
     999901    1    3    3    0    0  0.21219570913E-01  0.63899978591E-01  0.12095250429E+00  0.89082152295E+00  0.88000000000E+00 0. -1.
        -11    1    4    4    0    0 -0.27579781653E-01 -0.40789460613E-01 -0.74727796812E-01  0.89492620872E-01  0.51100000000E-03 0.  1.
         11    1    4    4    0    0 -0.85601356119E-02 -0.78953849813E-02 -0.39630026114E-01  0.41308753510E-01  0.51100000000E-03 0. -1.
</event>
<event>
 8    1  0.1109294E+005  0.1043930E+01  0.7957747E-01            NaN
         13   -1    0    0    0    0  0.00000000000E+00  0.00000000000E+00  0.74505805969E-08  0.10566000000E+00  0.10566000000E+00 0.  1.
     999900   -1    0    0    0    0 -0.00000000000E+00 -0.00000000000E+00 -0.74505805969E-08  0.93827000000E+00  0.93827000000E+00 0. -1.
     999902    2    1    2    0    0 -0.33727804443E-02 -0.19107059465E-01 -0.12218237612E-01  0.10210009638E+01  0.10207434680E+01 0.  0.
     999903    2    3    3    0    0  0.40367151788E-01 -0.12124871234E+00  0.30384062875E-01  0.13299136088E+00  0.20802730716E-01 0.  0.
         14    1    1    2    0    0  0.33727804443E-02  0.19107059465E-01  0.12218237612E-01  0.22929036170E-01  0.00000000000E+00 0.  1.
     999901    1    3    3    0    0 -0.43739932233E-01  0.10214165287E+00 -0.42602300486E-01  0.88800960295E+00  0.88000000000E+00 0. -1.
        -11    1    4    4    0    0 -0.72499473381E-04 -0.14367134561E-02  0.33481943291E-02  0.36797999937E-02  0.51100000000E-03 0.  1.
         11    1    4    4    0    0  0.40439651262E-01 -0.11981199888E+00  0.27035868546E-01  0.12931156089E+00  0.51100000000E-03 0. -1.
</event>
<event>
 8    1  0.1109294E+005  0.1043930E+01  0.7957747E-01            NaN
         13   -1    0    0    0    0  0.00000000000E+00  0.00000000000E+00  0.74505805969E-08  0.10566000000E+00  0.10566000000E+00 0. -1.
     999900   -1    0    0    0    0 -0.00000000000E+00 -0.00000000000E+00 -0.74505805969E-08  0.93827000000E+00  0.93827000000E+00 0.  1.
     999902    2    1    2    0    0 -0.47302862564E-02 -0.21514977497E-01  0.99878573764E-02  0.10197426653E+01  0.10194557746E+01 0.  0.
     999903    2    3    3    0    0 -0.49561373102E-01 -0.20579977172E-02  0.11908112189E+00  0.13166060785E+00  0.26336989370E-01 0.  0.
         14    1    1    2    0    0  0.47302862564E-02  0.21514977497E-01 -0.99878573764E-02  0.24187334697E-01  0.00000000000E+00 0.  1.
     999901    1    3    3    0    0  0.44831086845E-01 -0.19456979780E-01 -0.10909326452E+00  0.88808205745E+00  0.88000000000E+00 0. -1.
        -11    1    4    4    0    0 -0.40640197214E-01 -0.45857318863E-02  0.65071286177E-01  0.76858232950E-01  0.51100000000E-03 0. -1.
         11    1    4    4    0    0 -0.89211758874E-02  0.25277341691E-02  0.54009835717E-01  0.54802374898E-01  0.51100000000E-03 0.  1.
</event>
<event>
 8    1  0.1109294E+005  0.1043930E+01  0.7957747E-01            NaN
         13   -1    0    0    0    0  0.00000000000E+00  0.00000000000E+00  0.74505805969E-08  0.10566000000E+00  0.10566000000E+00 0. -1.
     999900   -1    0    0    0    0 -0.00000000000E+00 -0.00000000000E+00 -0.74505805969E-08  0.93827000000E+00  0.93827000000E+00 0.  1.
     999902    2    1    2    0    0  0.11672266865E-01  0.86624681557E-03 -0.21282977893E-01  0.10196409624E+01  0.10193516248E+01 0.  0.
     999903    2    3    3    0    0 -0.74279459874E-01 -0.14987503507E-01 -0.10552456300E+00  0.13130786873E+00  0.19085585515E-01 0.  0.
         14    1    1    2    0    0 -0.11672266865E-01 -0.86624681557E-03  0.21282977893E-01  0.24289037554E-01  0.00000000000E+00 0.  1.
     999901    1    3    3    0    0  0.85951726739E-01  0.15853750323E-01  0.84241585104E-01  0.88833309372E+00  0.88000000000E+00 0. -1.
        -11    1    4    4    0    0 -0.55364990569E-01 -0.16938868463E-01 -0.68576013584E-01  0.89750421757E-01  0.51100000000E-03 0.  1.
         11    1    4    4    0    0 -0.18914469305E-01  0.19513649556E-02 -0.36948549413E-01  0.41557446974E-01  0.51100000000E-03 0. -1.
</event>
<event>
 8    1  0.1109294E+005  0.1043930E+01  0.7957747E-01            NaN
         13   -1    0    0    0    0  0.00000000000E+00  0.00000000000E+00  0.74505805969E-08  0.10566000000E+00  0.10566000000E+00 0. -1.
     999900   -1    0    0    0    0 -0.00000000000E+00 -0.00000000000E+00 -0.74505805969E-08  0.93827000000E+00  0.93827000000E+00 0. -1.
     999902    2    1    2    0    0 -0.21304511004E-01 -0.27444254566E-02  0.78914113116E-02  0.10210457602E+01  0.10207892809E+01 0.  0.
     999903    2    3    3    0    0  0.36035120019E-01  0.25867218041E-02  0.12506358356E+00  0.13141349211E+00  0.17982907775E-01 0.  0.
         14    1    1    2    0    0  0.21304511004E-01  0.27444254566E-02 -0.78914113116E-02  0.22884239832E-01  0.00000000000E+00 0.  1.
     999901    1    3    3    0    0 -0.57339631024E-01 -0.53311472607E-02 -0.11717217225E+00  0.88963226806E+00  0.88000000000E+00 0. -1.
        -11    1    4    4    0    0  0.25782009785E-01  0.99391647881E-02  0.89864385219E-01  0.94017912533E-01  0.51100000000E-03 0.  1.
         11    1    4    4    0    0  0.10253110234E-01 -0.73524429840E-02  0.35199198339E-01  0.37395579579E-01  0.51100000000E-03 0. -1.
</event>
<event>
 8    1  0.1109294E+005  0.1043930E+01  0.7957747E-01            NaN
         13   -1    0    0    0    0  0.00000000000E+00  0.00000000000E+00  0.74505805969E-08  0.10566000000E+00  0.10566000000E+00 0.  1.
     999900   -1    0    0    0    0 -0.00000000000E+00 -0.00000000000E+00 -0.74505805969E-08  0.93827000000E+00  0.93827000000E+00 0. -1.
     999902    2    1    2    0    0  0.52697178449E-03 -0.20093598825E-01  0.10922519210E-01  0.10210535527E+01  0.10207972501E+01 0.  0.
     999903    2    3    3    0    0  0.68127060096E-01  0.10201169484E+00  0.36652295550E-01  0.12968298106E+00  0.20654360456E-01 0.  0.
         14    1    1    2    0    0 -0.52697178449E-03  0.20093598825E-01 -0.10922519210E-01  0.22876447253E-01  0.00000000000E+00 0. -1.
     999901    1    3    3    0    0 -0.67600088311E-01 -0.12210529367E+00 -0.25729776340E-01  0.89137057169E+00  0.88000000000E+00 0. -1.
        -11    1    4    4    0    0  0.36617245008E-01  0.36749717519E-01  0.13625005017E-01  0.53640155224E-01  0.51100000000E-03 0.  1.
         11    1    4    4    0    0  0.31509815087E-01  0.65261977322E-01  0.23027290534E-01  0.76042825836E-01  0.51100000000E-03 0. -1.
</event>
<event>
 8    1  0.1109294E+005  0.1043930E+01  0.7957747E-01            NaN
         13   -1    0    0    0    0  0.00000000000E+00  0.00000000000E+00  0.74505805969E-08  0.10566000000E+00  0.10566000000E+00 0. -1.
     999900   -1    0    0    0    0 -0.00000000000E+00 -0.00000000000E+00 -0.74505805969E-08  0.93827000000E+00  0.93827000000E+00 0. -1.
     999902    2    1    2    0    0 -0.15480883204E-01 -0.18125098716E-01  0.18773110281E-02  0.10200197251E+01  0.10197394463E+01 0.  0.
     999903    2    3    3    0    0  0.79638989810E-01  0.28244437153E-01  0.95027398992E-01  0.12879872952E+00  0.20464340694E-01 0.  0.
         14    1    1    2    0    0  0.15480883204E-01  0.18125098716E-01 -0.18773110281E-02  0.23910274882E-01  0.00000000000E+00 0.  1.
     999901    1    3    3    0    0 -0.95119873014E-01 -0.46369535869E-01 -0.93150087964E-01  0.89122099559E+00  0.88000000000E+00 0. -1.
        -11    1    4    4    0    0  0.24754657414E-01 -0.56091352664E-03  0.31056848538E-01  0.39722747259E-01  0.51100000000E-03 0. -1.
         11    1    4    4    0    0  0.54884332395E-01  0.28805350680E-01  0.63970550454E-01  0.89075982266E-01  0.51100000000E-03 0.  1.
</event>
<event>
 8    1  0.1109294E+005  0.1043930E+01  0.7957747E-01            NaN
         13   -1    0    0    0    0  0.00000000000E+00  0.00000000000E+00  0.74505805969E-08  0.10566000000E+00  0.10566000000E+00 0. -1.
     999900   -1    0    0    0    0 -0.00000000000E+00 -0.00000000000E+00 -0.74505805969E-08  0.93827000000E+00  0.93827000000E+00 0. -1.
     999902    2    1    2    0    0  0.11049187439E-01  0.20423924965E-01 -0.44551823734E-02  0.10202853409E+01  0.10200113269E+01 0.  0.
     999903    2    3    3    0    0 -0.32053392243E-01  0.91783038629E-02 -0.12510903287E+00  0.13093633853E+00  0.19503677229E-01 0.  0.
         14    1    1    2    0    0 -0.11049187439E-01 -0.20423924965E-01  0.44551823734E-02  0.23644659101E-01  0.00000000000E+00 0. -1.
     999901    1    3    3    0    0  0.43102579682E-01  0.11245621102E-01  0.12065385050E+00  0.88934900237E+00  0.88000000000E+00 0.  1.
        -11    1    4    4    0    0 -0.31100136939E-01  0.10492145938E-01 -0.90228311568E-01  0.96014129030E-01  0.51100000000E-03 0.  1.
         11    1    4    4    0    0 -0.95325530393E-03 -0.13138420751E-02 -0.34880721306E-01  0.34922209502E-01  0.51100000000E-03 0. -1.
</event>
<event>
 8    1  0.1109294E+005  0.1043930E+01  0.7957747E-01            NaN
         13   -1    0    0    0    0  0.00000000000E+00  0.00000000000E+00  0.74505805969E-08  0.10566000000E+00  0.10566000000E+00 0.  1.
     999900   -1    0    0    0    0 -0.00000000000E+00 -0.00000000000E+00 -0.74505805969E-08  0.93827000000E+00  0.93827000000E+00 0.  1.
     999902    2    1    2    0    0 -0.11626370169E-02 -0.12155530906E-01  0.19444863809E-01  0.10209689159E+01  0.10207106915E+01 0.  0.
     999903    2    3    3    0    0  0.79683934713E-01 -0.10125909061E+00  0.24677998657E-01  0.13276680023E+00  0.20373677665E-01 0.  0.
         14    1    1    2    0    0  0.11626370169E-02  0.12155530906E-01 -0.19444863809E-01  0.22961084142E-01  0.00000000000E+00 0. -1.
     999901    1    3    3    0    0 -0.80846571729E-01  0.89103559706E-01 -0.52331348484E-02  0.88820211563E+00  0.88000000000E+00 0. -1.
        -11    1    4    4    0    0  0.59159277177E-01 -0.59858155555E-01  0.13702616816E-01  0.85269230623E-01  0.51100000000E-03 0.  1.
         11    1    4    4    0    0  0.20524657536E-01 -0.41400935057E-01  0.10975381841E-01  0.47497569603E-01  0.51100000000E-03 0. -1.
</event>
<event>
 8    1  0.1109294E+005  0.1043930E+01  0.7957747E-01            NaN
         13   -1    0    0    0    0  0.00000000000E+00  0.00000000000E+00  0.74505805969E-08  0.10566000000E+00  0.10566000000E+00 0. -1.
     999900   -1    0    0    0    0 -0.00000000000E+00 -0.00000000000E+00 -0.74505805969E-08  0.93827000000E+00  0.93827000000E+00 0.  1.
     999902    2    1    2    0    0 -0.17826679461E-01  0.11952322996E-01  0.10624041941E-01  0.10199817476E+01  0.10197005672E+01 0.  0.
     999903    2    3    3    0    0  0.82818826072E-01  0.11960287140E-01 -0.94863289675E-01  0.12798561814E+00  0.19474812008E-01 0.  0.
         14    1    1    2    0    0  0.17826679461E-01 -0.11952322996E-01 -0.10624041941E-01  0.23948252395E-01  0.00000000000E+00 0.  1.
     999901    1    3    3    0    0 -0.10064550553E+00 -0.79641437451E-05  0.10548733162E+00  0.89199612946E+00  0.88000000000E+00 0. -1.
        -11    1    4    4    0    0  0.32828209732E-01 -0.11396796163E-02 -0.26052446369E-01  0.41928287666E-01  0.51100000000E-03 0.  1.
         11    1    4    4    0    0  0.49990616340E-01  0.13099966756E-01 -0.68810843305E-01  0.86057330475E-01  0.51100000000E-03 0. -1.
</event>
<event>
 8    1  0.1109294E+005  0.1043930E+01  0.7957747E-01            NaN
         13   -1    0    0    0    0  0.00000000000E+00  0.00000000000E+00  0.74505805969E-08  0.10566000000E+00  0.10566000000E+00 0. -1.
     999900   -1    0    0    0    0 -0.00000000000E+00 -0.00000000000E+00 -0.74505805969E-08  0.93827000000E+00  0.93827000000E+00 0.  1.
     999902    2    1    2    0    0 -0.12195482697E-01 -0.16360241105E-01  0.16451981176E-02  0.10234582154E+01  0.10232534509E+01 0.  0.
     999903    2    3    3    0    0 -0.64359323549E-01  0.11255932957E+00  0.17584879105E-01  0.13239402276E+00  0.20179794093E-01 0.  0.
         14    1    1    2    0    0  0.12195482697E-01  0.16360241105E-01 -0.16451981176E-02  0.20471784584E-01  0.00000000000E+00 0. -1.
     999901    1    3    3    0    0  0.52163840852E-01 -0.12891957067E+00 -0.15939680988E-01  0.89106419265E+00  0.88000000000E+00 0.  1.
        -11    1    4    4    0    0 -0.16407875435E-02  0.95386103962E-02  0.55870571009E-02  0.11187206984E-01  0.51100000000E-03 0.  1.
         11    1    4    4    0    0 -0.62718536005E-01  0.10302071917E+00  0.11997822004E-01  0.12120681578E+00  0.51100000000E-03 0. -1.
</event>
<event>
 8    1  0.1109294E+005  0.1043930E+01  0.7957747E-01            NaN
         13   -1    0    0    0    0  0.00000000000E+00  0.00000000000E+00  0.74505805969E-08  0.10566000000E+00  0.10566000000E+00 0. -1.
     999900   -1    0    0    0    0 -0.00000000000E+00 -0.00000000000E+00 -0.74505805969E-08  0.93827000000E+00  0.93827000000E+00 0. -1.
     999902    2    1    2    0    0  0.30165991938E-02  0.73897472787E-02  0.22405180446E-01  0.10201455440E+01  0.10198682418E+01 0.  0.
     999903    2    3    3    0    0 -0.44201830911E-01 -0.32551430769E-02  0.12372922551E+00  0.13301000987E+00  0.20453451301E-01 0.  0.
         14    1    1    2    0    0 -0.30165991938E-02 -0.73897472787E-02 -0.22405180446E-01  0.23784455982E-01  0.00000000000E+00 0.  1.
     999901    1    3    3    0    0  0.47218430105E-01  0.10644890356E-01 -0.10132404506E+00  0.88713553414E+00  0.88000000000E+00 0. -1.
        -11    1    4    4    0    0 -0.15693499813E-01 -0.10845784669E-01  0.42500393895E-01  0.46588212927E-01  0.51100000000E-03 0. -1.
         11    1    4    4    0    0 -0.28508331098E-01  0.75906415921E-02  0.81228831611E-01  0.86421796947E-01  0.51100000000E-03 0.  1.
</event>
<event>
 8    1  0.1109294E+005  0.1043930E+01  0.7957747E-01            NaN
         13   -1    0    0    0    0  0.00000000000E+00  0.00000000000E+00  0.74505805969E-08  0.10566000000E+00  0.10566000000E+00 0. -1.
     999900   -1    0    0    0    0 -0.00000000000E+00 -0.00000000000E+00 -0.74505805969E-08  0.93827000000E+00  0.93827000000E+00 0.  1.
     999902    2    1    2    0    0 -0.16040180948E-01 -0.17500553334E-01  0.52319754048E-02  0.10196209412E+01  0.10193311206E+01 0.  0.
     999903    2    3    3    0    0 -0.10461503746E+00 -0.33601100993E-01  0.71265597312E-01  0.13256673090E+00  0.20538079996E-01 0.  0.
         14    1    1    2    0    0  0.16040180948E-01  0.17500553334E-01 -0.52319754048E-02  0.24309058774E-01  0.00000000000E+00 0. -1.
     999901    1    3    3    0    0  0.88574856511E-01  0.16100547659E-01 -0.66033621908E-01  0.88705421033E+00  0.88000000000E+00 0.  1.
        -11    1    4    4    0    0 -0.60605044234E-01 -0.88068044182E-02  0.37751899318E-01  0.71944410580E-01  0.51100000000E-03 0.  1.
         11    1    4    4    0    0 -0.44009993226E-01 -0.24794296574E-01  0.33513697994E-01  0.60622320317E-01  0.51100000000E-03 0. -1.
</event>
<event>
 8    1  0.1109294E+005  0.1043930E+01  0.7957747E-01            NaN
         13   -1    0    0    0    0  0.00000000000E+00  0.00000000000E+00  0.74505805969E-08  0.10566000000E+00  0.10566000000E+00 0. -1.
     999900   -1    0    0    0    0 -0.00000000000E+00 -0.00000000000E+00 -0.74505805969E-08  0.93827000000E+00  0.93827000000E+00 0.  1.
     999902    2    1    2    0    0  0.18176962735E-01  0.14998132109E-01 -0.33281349049E-02  0.10201303693E+01  0.10198527089E+01 0.  0.
     999903    2    3    3    0    0  0.80109381643E-01  0.69893264671E-01 -0.77432615283E-01  0.13314639303E+00  0.20726084861E-01 0.  0.
         14    1    1    2    0    0 -0.18176962735E-01 -0.14998132109E-01  0.33281349049E-02  0.23799630732E-01  0.00000000000E+00 0. -1.
     999901    1    3    3    0    0 -0.61932418907E-01 -0.54895132562E-01  0.74104480378E-01  0.88698397624E+00  0.88000000000E+00 0. -1.
        -11    1    4    4    0    0  0.28301714253E-01  0.26062414248E-01 -0.40582671073E-01  0.55923615571E-01  0.51100000000E-03 0.  1.
         11    1    4    4    0    0  0.51807667389E-01  0.43830850423E-01 -0.36849944210E-01  0.77222777459E-01  0.51100000000E-03 0. -1.
</event>
<event>
 8    1  0.1109294E+005  0.1043930E+01  0.7957747E-01            NaN
         13   -1    0    0    0    0  0.00000000000E+00  0.00000000000E+00  0.74505805969E-08  0.10566000000E+00  0.10566000000E+00 0. -1.
     999900   -1    0    0    0    0 -0.00000000000E+00 -0.00000000000E+00 -0.74505805969E-08  0.93827000000E+00  0.93827000000E+00 0. -1.
     999902    2    1    2    0    0 -0.93223540049E-02 -0.21538484575E-01 -0.25916303280E-02  0.10203179448E+01  0.10200446948E+01 0.  0.
     999903    2    3    3    0    0 -0.75509765392E-01 -0.21457782574E-01 -0.10428892689E+00  0.13199192355E+00  0.19583832819E-01 0.  0.
         14    1    1    2    0    0  0.93223540049E-02  0.21538484575E-01  0.25916303280E-02  0.23612055179E-01  0.00000000000E+00 0. -1.
     999901    1    3    3    0    0  0.66187411387E-01 -0.80702001311E-04  0.10169729656E+00  0.88832602127E+00  0.88000000000E+00 0.  1.
        -11    1    4    4    0    0 -0.33976024779E-01 -0.12248094298E-01 -0.32744764276E-01  0.48753120743E-01  0.51100000000E-03 0. -1.
         11    1    4    4    0    0 -0.41533740613E-01 -0.92096882763E-02 -0.71544162616E-01  0.83238802808E-01  0.51100000000E-03 0.  1.
</event>
<event>
 8    1  0.1109294E+005  0.1043930E+01  0.7957747E-01            NaN
         13   -1    0    0    0    0  0.00000000000E+00  0.00000000000E+00  0.74505805969E-08  0.10566000000E+00  0.10566000000E+00 0. -1.
     999900   -1    0    0    0    0 -0.00000000000E+00 -0.00000000000E+00 -0.74505805969E-08  0.93827000000E+00  0.93827000000E+00 0. -1.
     999902    2    1    2    0    0  0.97367948138E-02 -0.14928561848E-01  0.14337086236E-01  0.10210560153E+01  0.10207997685E+01 0.  0.
     999903    2    3    3    0    0  0.50460729867E-01  0.51851616813E-01 -0.10553250590E+00  0.12949179990E+00  0.19903291558E-01 0.  0.
         14    1    1    2    0    0 -0.97367948138E-02  0.14928561848E-01 -0.14337086236E-01  0.22873984651E-01  0.00000000000E+00 0. -1.
     999901    1    3    3    0    0 -0.40723935053E-01 -0.66780178661E-01  0.11986959214E+00  0.89156421545E+00  0.88000000000E+00 0.  1.
        -11    1    4    4    0    0  0.42636025990E-01  0.44364652948E-01 -0.74534373010E-01  0.96652403097E-01  0.51100000000E-03 0. -1.
         11    1    4    4    0    0  0.78247038761E-02  0.74869638655E-02 -0.30998132891E-01  0.32839396803E-01  0.51100000000E-03 0.  1.
</event>
<event>
 8    1  0.1495662E+005  0.1043930E+01  0.7957747E-01            NaN
         13   -1    0    0    0    0  0.00000000000E+00  0.00000000000E+00  0.74505805969E-08  0.10566000000E+00  0.10566000000E+00 0. -1.
     999900   -1    0    0    0    0 -0.00000000000E+00 -0.00000000000E+00 -0.74505805969E-08  0.93827000000E+00  0.93827000000E+00 0. -1.
     999902    2    1    2    0    0 -0.41988967139E-02  0.24166558572E-01  0.30865303941E-02  0.10192079459E+01  0.10189080710E+01 0.  0.
     999903    2    3    3    0    0 -0.16436814363E-01 -0.12257182381E+00 -0.19140133985E-01  0.12669691290E+00  0.19792477171E-01 0.  0.
         14    1    1    2    0    0  0.41988967139E-02 -0.24166558572E-01 -0.30865303941E-02  0.24722054055E-01  0.00000000000E+00 0.  1.
     999901    1    3    3    0    0  0.12237917649E-01  0.14673838238E+00  0.22226664379E-01  0.89251103304E+00  0.88000000000E+00 0.  1.
        -11    1    4    4    0    0 -0.14578681575E-01 -0.70899265689E-01 -0.26883619732E-02  0.72434330554E-01  0.51100000000E-03 0.  1.
         11    1    4    4    0    0 -0.18581327882E-02 -0.51672558118E-01 -0.16451772012E-01  0.54262582349E-01  0.51100000000E-03 0. -1.
</event>
<event>
 7    1  0.1230978E+005  0.1043930E+01  0.7957747E-01            NaN
         13   -1    0    0    0    0  0.00000000000E+00  0.00000000000E+00  0.74505805969E-08  0.10566000000E+00  0.10566000000E+00 0. -1.
     999900   -1    0    0    0    0 -0.00000000000E+00 -0.00000000000E+00 -0.74505805969E-08  0.93827000000E+00  0.93827000000E+00 0. -1.
     999903    2    1    2    0    0 -0.44169185268E-01  0.67373985510E-01 -0.35188152997E-01  0.89405527820E-01  0.16277943446E-01 0.  0.
         14    1    1    2    0    0 -0.27632464426E-01  0.51388275720E-01 -0.20668770382E-01  0.61899160260E-01  0.00000000000E+00 0. -1.
     999901    1    1    2    0    0  0.71801649693E-01 -0.11876226123E+00  0.55856923379E-01  0.89262531192E+00  0.88000000000E+00 0. -1.
        -11    1    3    3    0    0 -0.19000006751E-01  0.17057713033E-01 -0.15074155000E-01  0.29655641966E-01  0.51100000000E-03 0. -1.
         11    1    3    3    0    0 -0.25169178516E-01  0.50316272477E-01 -0.20113997997E-01  0.59749885854E-01  0.51100000000E-03 0.  1.
</event>
<event>
 8    1  0.1109294E+005  0.1043930E+01  0.7957747E-01            NaN
         13   -1    0    0    0    0  0.00000000000E+00  0.00000000000E+00  0.74505805969E-08  0.10566000000E+00  0.10566000000E+00 0.  1.
     999900   -1    0    0    0    0 -0.00000000000E+00 -0.00000000000E+00 -0.74505805969E-08  0.93827000000E+00  0.93827000000E+00 0.  1.
     999902    2    1    2    0    0 -0.11135066943E-01 -0.18669131500E-01 -0.81196491916E-02  0.10207253692E+01  0.10204615742E+01 0.  0.
     999903    2    3    3    0    0  0.47350258440E-01  0.11665470602E+00 -0.15515919667E-01  0.12843181937E+00  0.20090322326E-01 0.  0.
         14    1    1    2    0    0  0.11135066943E-01  0.18669131500E-01  0.81196491916E-02  0.23204630783E-01  0.00000000000E+00 0.  1.
     999901    1    3    3    0    0 -0.58485325383E-01 -0.13532383752E+00  0.73962704756E-02  0.89229354985E+00  0.88000000000E+00 0. -1.
        -11    1    4    4    0    0  0.12761779116E-01  0.38468286044E-01  0.40177072662E-02  0.40731745974E-01  0.51100000000E-03 0.  1.
         11    1    4    4    0    0  0.34588479324E-01  0.78186419978E-01 -0.19533626933E-01  0.87700073393E-01  0.51100000000E-03 0. -1.
</event>
<event>
 8    1  0.1109294E+005  0.1043930E+01  0.7957747E-01            NaN
         13   -1    0    0    0    0  0.00000000000E+00  0.00000000000E+00  0.74505805969E-08  0.10566000000E+00  0.10566000000E+00 0.  1.
     999900   -1    0    0    0    0 -0.00000000000E+00 -0.00000000000E+00 -0.74505805969E-08  0.93827000000E+00  0.93827000000E+00 0.  1.
     999902    2    1    2    0    0 -0.21788696633E-01 -0.95749938682E-02 -0.38654787783E-02  0.10198183900E+01  0.10195333143E+01 0.  0.
     999903    2    3    3    0    0 -0.90153112887E-01 -0.91070257831E-01  0.29391263508E-01  0.13278897544E+00  0.18646447491E-01 0.  0.
         14    1    1    2    0    0  0.21788696633E-01  0.95749938682E-02  0.38654787783E-02  0.24111609957E-01  0.00000000000E+00 0. -1.
     999901    1    3    3    0    0  0.68364416254E-01  0.81495263963E-01 -0.33256742286E-01  0.88702941460E+00  0.88000000000E+00 0.  1.
        -11    1    4    4    0    0 -0.59396828440E-02 -0.12909561207E-01  0.64966635146E-02  0.15633437263E-01  0.51100000000E-03 0.  1.
         11    1    4    4    0    0 -0.84213430043E-01 -0.78160696624E-01  0.22894599993E-01  0.11715553818E+00  0.51100000000E-03 0. -1.
</event>
<event>
 8    1  0.1109294E+005  0.1043930E+01  0.7957747E-01            NaN
         13   -1    0    0    0    0  0.00000000000E+00  0.00000000000E+00  0.74505805969E-08  0.10566000000E+00  0.10566000000E+00 0. -1.
     999900   -1    0    0    0    0 -0.00000000000E+00 -0.00000000000E+00 -0.74505805969E-08  0.93827000000E+00  0.93827000000E+00 0. -1.
     999902    2    1    2    0    0  0.12700657155E-01 -0.30483277995E-03  0.23534553264E-01  0.10171853779E+01  0.10168337220E+01 0.  0.
     999903    2    3    3    0    0  0.11091926317E+00  0.18746602388E-01  0.63748713616E-01  0.13060372318E+00  0.18409670772E-01 0.  0.
         14    1    1    2    0    0 -0.12700657155E-01  0.30483277995E-03 -0.23534553264E-01  0.26744622123E-01  0.00000000000E+00 0.  1.
     999901    1    3    3    0    0 -0.98218606014E-01 -0.19051435168E-01 -0.40214160353E-01  0.88658165470E+00  0.88000000000E+00 0. -1.
        -11    1    4    4    0    0  0.45373353811E-01 -0.12787933300E-02  0.27407413440E-01  0.53026446052E-01  0.51100000000E-03 0.  1.
         11    1    4    4    0    0  0.65545909358E-01  0.20025395718E-01  0.36341300176E-01  0.77577277129E-01  0.51100000000E-03 0. -1.
</event>
<event>
 8    1  0.1188809E+005  0.1043930E+01  0.7957747E-01            NaN
         13   -1    0    0    0    0  0.00000000000E+00  0.00000000000E+00  0.74505805969E-08  0.10566000000E+00  0.10566000000E+00 0. -1.
     999900   -1    0    0    0    0 -0.00000000000E+00 -0.00000000000E+00 -0.74505805969E-08  0.93827000000E+00  0.93827000000E+00 0.  1.
     999902    2    1    2    0    0  0.63047288629E-02  0.19438630716E-01  0.12684005255E-01  0.10198780986E+01  0.10195944498E+01 0.  0.
     999903    2    3    3    0    0  0.10191310165E+00 -0.65880482504E-01 -0.39246880109E-01  0.12908231458E+00  0.19884870520E-01 0.  0.
         14    1    1    2    0    0 -0.63047288629E-02 -0.19438630716E-01 -0.12684005255E-01  0.24051901369E-01  0.00000000000E+00 0.  1.
     999901    1    3    3    0    0 -0.95608372790E-01  0.85319113221E-01  0.51930885363E-01  0.89079578405E+00  0.88000000000E+00 0. -1.
        -11    1    4    4    0    0  0.64435719987E-01 -0.30417500942E-01 -0.19988181945E-01  0.74006586952E-01  0.51100000000E-03 0.  1.
         11    1    4    4    0    0  0.37477381666E-01 -0.35462981562E-01 -0.19258698163E-01  0.55075727628E-01  0.51100000000E-03 0. -1.
</event>
<event>
 8    1  0.1109294E+005  0.1043930E+01  0.7957747E-01            NaN
         13   -1    0    0    0    0  0.00000000000E+00  0.00000000000E+00  0.74505805969E-08  0.10566000000E+00  0.10566000000E+00 0. -1.
     999900   -1    0    0    0    0 -0.00000000000E+00 -0.00000000000E+00 -0.74505805969E-08  0.93827000000E+00  0.93827000000E+00 0. -1.
     999902    2    1    2    0    0  0.13622901598E-01  0.41549944933E-02  0.18705271495E-01  0.10204196914E+01  0.10201488186E+01 0.  0.
     999903    2    3    3    0    0 -0.47443680877E-02 -0.31007838337E-01 -0.12289060287E+00  0.12821838397E+00  0.18811130942E-01 0.  0.
         14    1    1    2    0    0 -0.13622901598E-01 -0.41549944933E-02 -0.18705271495E-01  0.23510308566E-01  0.00000000000E+00 0.  1.
     999901    1    3    3    0    0  0.18367269686E-01  0.35162832831E-01  0.14159587436E+00  0.89220130747E+00  0.88000000000E+00 0.  1.
        -11    1    4    4    0    0 -0.10727273507E-01 -0.98358890327E-02 -0.50145097360E-01  0.52216961040E-01  0.51100000000E-03 0.  1.
         11    1    4    4    0    0  0.59829054190E-02 -0.21171949305E-01 -0.72745505506E-01  0.76001422927E-01  0.51100000000E-03 0. -1.
</event>
<event>
 8    1  0.1109294E+005  0.1043930E+01  0.7957747E-01            NaN
         13   -1    0    0    0    0  0.00000000000E+00  0.00000000000E+00  0.74505805969E-08  0.10566000000E+00  0.10566000000E+00 0. -1.
     999900   -1    0    0    0    0 -0.00000000000E+00 -0.00000000000E+00 -0.74505805969E-08  0.93827000000E+00  0.93827000000E+00 0.  1.
     999902    2    1    2    0    0  0.22144338832E-01  0.11227681409E-02  0.90920179598E-02  0.10199655025E+01  0.10196839359E+01 0.  0.
     999903    2    3    3    0    0  0.12592718803E+00 -0.37907967111E-01  0.37654107669E-02  0.13299162980E+00  0.19440283500E-01 0.  0.
         14    1    1    2    0    0 -0.22144338832E-01 -0.11227681409E-02 -0.90920179598E-02  0.23964497516E-01  0.00000000000E+00 0. -1.
     999901    1    3    3    0    0 -0.10378284920E+00  0.39030735252E-01  0.53266071928E-02  0.88697387269E+00  0.88000000000E+00 0. -1.
        -11    1    4    4    0    0  0.28361883669E-01 -0.75217905323E-02  0.89209776246E-02  0.30672768719E-01  0.51100000000E-03 0. -1.
         11    1    4    4    0    0  0.97565304361E-01 -0.30386176578E-01 -0.51555668577E-02  0.10231886108E+00  0.51100000000E-03 0.  1.
</event>
<event>
 8    1  0.1109294E+005  0.1043930E+01  0.7957747E-01            NaN
         13   -1    0    0    0    0  0.00000000000E+00  0.00000000000E+00  0.74505805969E-08  0.10566000000E+00  0.10566000000E+00 0. -1.
     999900   -1    0    0    0    0 -0.00000000000E+00 -0.00000000000E+00 -0.74505805969E-08  0.93827000000E+00  0.93827000000E+00 0.  1.
     999902    2    1    2    0    0  0.17053407930E-01 -0.14884803368E-01 -0.37039079807E-02  0.10209932385E+01  0.10207355672E+01 0.  0.
     999903    2    3    3    0    0  0.10173601502E+00  0.81100902005E-01 -0.15504880437E-03  0.13172556566E+00  0.20591929221E-01 0.  0.
         14    1    1    2    0    0 -0.17053407930E-01  0.14884803368E-01  0.37039079807E-02  0.22936761490E-01  0.00000000000E+00 0. -1.
     999901    1    3    3    0    0 -0.84682607091E-01 -0.95985705373E-01 -0.35488591763E-02  0.88926767285E+00  0.88000000000E+00 0. -1.
        -11    1    4    4    0    0  0.31293272807E-01  0.32429134244E-01  0.77799657201E-02  0.45735179659E-01  0.51100000000E-03 0.  1.
         11    1    4    4    0    0  0.70442742214E-01  0.48671767761E-01 -0.79350145245E-02  0.85990385998E-01  0.51100000000E-03 0. -1.
</event>
<event>
 8    1  0.1109294E+005  0.1043930E+01  0.7957747E-01            NaN
         13   -1    0    0    0    0  0.00000000000E+00  0.00000000000E+00  0.74505805969E-08  0.10566000000E+00  0.10566000000E+00 0.  1.
     999900   -1    0    0    0    0 -0.00000000000E+00 -0.00000000000E+00 -0.74505805969E-08  0.93827000000E+00  0.93827000000E+00 0.  1.
     999902    2    1    2    0    0 -0.93468360547E-02  0.10364174393E-01  0.19759478201E-01  0.10197387529E+01  0.10194517683E+01 0.  0.
     999903    2    3    3    0    0 -0.24429731086E-01  0.11957865734E+00 -0.42779473158E-01  0.13065696962E+00  0.18582070227E-01 0.  0.
         14    1    1    2    0    0  0.93468360547E-02 -0.10364174393E-01 -0.19759478201E-01  0.24191247050E-01  0.00000000000E+00 0. -1.
     999901    1    3    3    0    0  0.15082895032E-01 -0.10921448295E+00  0.62538951359E-01  0.88908178333E+00  0.88000000000E+00 0. -1.
        -11    1    4    4    0    0 -0.91675615364E-02  0.70926076547E-01 -0.32871289159E-01  0.78710452233E-01  0.51100000000E-03 0.  1.
         11    1    4    4    0    0 -0.15262169550E-01  0.48652580797E-01 -0.99081839993E-02  0.51946517388E-01  0.51100000000E-03 0. -1.
</event>
<event>
 8    1  0.1109294E+005  0.1043930E+01  0.7957747E-01            NaN
         13   -1    0    0    0    0  0.00000000000E+00  0.00000000000E+00  0.74505805969E-08  0.10566000000E+00  0.10566000000E+00 0.  1.
     999900   -1    0    0    0    0 -0.00000000000E+00 -0.00000000000E+00 -0.74505805969E-08  0.93827000000E+00  0.93827000000E+00 0.  1.
     999902    2    1    2    0    0  0.15325095801E-01  0.16688040379E-01  0.10260948992E-01  0.10190575991E+01  0.10187540203E+01 0.  0.
     999903    2    3    3    0    0  0.20388662357E-01  0.12780738712E+00 -0.13259416993E-01  0.13174347402E+00  0.20738974219E-01 0.  0.
         14    1    1    2    0    0 -0.15325095801E-01 -0.16688040379E-01 -0.10260948992E-01  0.24872400914E-01  0.00000000000E+00 0. -1.
     999901    1    3    3    0    0 -0.50635665559E-02 -0.11111934674E+00  0.23520365985E-01  0.88731412507E+00  0.88000000000E+00 0. -1.
        -11    1    4    4    0    0  0.18994957417E-01  0.57790841666E-01 -0.24682182170E-02  0.60884669744E-01  0.51100000000E-03 0. -1.
         11    1    4    4    0    0  0.13937049405E-02  0.70016545457E-01 -0.10791198776E-01  0.70858804275E-01  0.51100000000E-03 0.  1.
</event>
<event>
 8    1  0.1109294E+005  0.1043930E+01  0.7957747E-01            NaN
         13   -1    0    0    0    0  0.00000000000E+00  0.00000000000E+00  0.74505805969E-08  0.10566000000E+00  0.10566000000E+00 0.  1.
     999900   -1    0    0    0    0 -0.00000000000E+00 -0.00000000000E+00 -0.74505805969E-08  0.93827000000E+00  0.93827000000E+00 0. -1.
     999902    2    1    2    0    0  0.48441331621E-02 -0.17918958576E-01 -0.10698412414E-01  0.10225054643E+01  0.10222809857E+01 0.  0.
     999903    2    3    3    0    0  0.36600759742E-01 -0.12119139169E+00  0.40322726620E-01  0.13443067272E+00  0.20462513406E-01 0.  0.
         14    1    1    2    0    0 -0.48441331621E-02  0.17918958576E-01  0.10698412414E-01  0.21424535717E-01  0.00000000000E+00 0.  1.
     999901    1    3    3    0    0 -0.31756626580E-01  0.10327243311E+00 -0.51021139033E-01  0.88807479156E+00  0.88000000000E+00 0. -1.
        -11    1    4    4    0    0  0.15477762168E-01 -0.80264867601E-01  0.20429496527E-01  0.84259335044E-01  0.51100000000E-03 0. -1.
         11    1    4    4    0    0  0.21122997574E-01 -0.40926524084E-01  0.19893230093E-01  0.50171337681E-01  0.51100000000E-03 0.  1.
</event>
<event>
 8    1  0.1109294E+005  0.1043930E+01  0.7957747E-01            NaN
         13   -1    0    0    0    0  0.00000000000E+00  0.00000000000E+00  0.74505805969E-08  0.10566000000E+00  0.10566000000E+00 0. -1.
     999900   -1    0    0    0    0 -0.00000000000E+00 -0.00000000000E+00 -0.74505805969E-08  0.93827000000E+00  0.93827000000E+00 0.  1.
     999902    2    1    2    0    0  0.85415433798E-03  0.85792953167E-02 -0.22348663407E-01  0.10199759472E+01  0.10196946289E+01 0.  0.
     999903    2    3    3    0    0 -0.53741984971E-01  0.50847057106E-01  0.10311176185E+00  0.12840002763E+00  0.19516851683E-01 0.  0.
         14    1    1    2    0    0 -0.85415433798E-03 -0.85792953167E-02  0.22348663407E-01  0.23954052765E-01  0.00000000000E+00 0. -1.
     999901    1    3    3    0    0  0.54596139309E-01 -0.42267761789E-01 -0.12546042525E+00  0.89157591960E+00  0.88000000000E+00 0.  1.
        -11    1    4    4    0    0 -0.32949316958E-01  0.21874210586E-01  0.42375191245E-01  0.57965994607E-01  0.51100000000E-03 0. -1.
         11    1    4    4    0    0 -0.20792668013E-01  0.28972846520E-01  0.60736570601E-01  0.70434033024E-01  0.51100000000E-03 0.  1.
</event>
<event>
 8    1  0.1109294E+005  0.1043930E+01  0.7957747E-01            NaN
         13   -1    0    0    0    0  0.00000000000E+00  0.00000000000E+00  0.74505805969E-08  0.10566000000E+00  0.10566000000E+00 0.  1.
     999900   -1    0    0    0    0 -0.00000000000E+00 -0.00000000000E+00 -0.74505805969E-08  0.93827000000E+00  0.93827000000E+00 0. -1.
     999902    2    1    2    0    0 -0.22264591451E-02 -0.15810804493E-01  0.17849704141E-01  0.10199810836E+01  0.10196998874E+01 0.  0.
     999903    2    3    3    0    0 -0.42957589470E-01  0.71430523529E-01  0.99453717681E-01  0.13097642145E+00  0.17779393416E-01 0.  0.
         14    1    1    2    0    0  0.22264591451E-02  0.15810804493E-01 -0.17849704141E-01  0.23948916405E-01  0.00000000000E+00 0. -1.
     999901    1    3    3    0    0  0.40731130325E-01 -0.87241328022E-01 -0.81604013540E-01  0.88900466215E+00  0.88000000000E+00 0. -1.
        -11    1    4    4    0    0 -0.18083493795E-01  0.46485006492E-01  0.61614963134E-01  0.79275048909E-01  0.51100000000E-03 0.  1.
         11    1    4    4    0    0 -0.24874095675E-01  0.24945517037E-01  0.37838754547E-01  0.51701372540E-01  0.51100000000E-03 0. -1.
</event>
<event>
 8    1  0.1109294E+005  0.1043930E+01  0.7957747E-01            NaN
         13   -1    0    0    0    0  0.00000000000E+00  0.00000000000E+00  0.74505805969E-08  0.10566000000E+00  0.10566000000E+00 0.  1.
     999900   -1    0    0    0    0 -0.00000000000E+00 -0.00000000000E+00 -0.74505805969E-08  0.93827000000E+00  0.93827000000E+00 0. -1.
     999902    2    1    2    0    0 -0.12057854433E-01 -0.14902541310E-01  0.14298240661E-01  0.10200152080E+01  0.10197348220E+01 0.  0.
     999903    2    3    3    0    0 -0.12909917548E+00 -0.18246097958E-01 -0.68516318857E-02  0.13200779399E+00  0.19483213681E-01 0.  0.
         14    1    1    2    0    0  0.12057854433E-01  0.14902541310E-01 -0.14298240661E-01  0.23914792013E-01  0.00000000000E+00 0. -1.
     999901    1    3    3    0    0  0.11704132104E+00  0.33435566484E-02  0.21149872546E-01  0.88800741400E+00  0.88000000000E+00 0.  1.
        -11    1    4    4    0    0 -0.77174370404E-01 -0.16459412867E-01 -0.11904631797E-01  0.79804618277E-01  0.51100000000E-03 0.  1.
         11    1    4    4    0    0 -0.51924805074E-01 -0.17866850918E-02  0.50529999114E-02  0.52203175714E-01  0.51100000000E-03 0. -1.
</event>
<event>
 8    1  0.1109294E+005  0.1043930E+01  0.7957747E-01            NaN
         13   -1    0    0    0    0  0.00000000000E+00  0.00000000000E+00  0.74505805969E-08  0.10566000000E+00  0.10566000000E+00 0. -1.
     999900   -1    0    0    0    0 -0.00000000000E+00 -0.00000000000E+00 -0.74505805969E-08  0.93827000000E+00  0.93827000000E+00 0. -1.
     999902    2    1    2    0    0 -0.20004663458E-01 -0.61184245068E-02 -0.10899471501E-01  0.10203414401E+01  0.10200687400E+01 0.  0.
     999903    2    3    3    0    0  0.88545922486E-01  0.83117018764E-01 -0.38307138520E-01  0.12877126662E+00  0.19125455528E-01 0.  0.
         14    1    1    2    0    0  0.20004663458E-01  0.61184245068E-02  0.10899471501E-01  0.23588559887E-01  0.00000000000E+00 0. -1.
     999901    1    3    3    0    0 -0.10855058594E+00 -0.89235443271E-01  0.27407667019E-01  0.89157017349E+00  0.88000000000E+00 0. -1.
        -11    1    4    4    0    0  0.54617820173E-01  0.40818824401E-01 -0.15400491305E-01  0.69905071056E-01  0.51100000000E-03 0. -1.
         11    1    4    4    0    0  0.33928102313E-01  0.42298194364E-01 -0.22906647215E-01  0.58866195568E-01  0.51100000000E-03 0.  1.
</event>
<event>
 8    1  0.1109294E+005  0.1043930E+01  0.7957747E-01            NaN
         13   -1    0    0    0    0  0.00000000000E+00  0.00000000000E+00  0.74505805969E-08  0.10566000000E+00  0.10566000000E+00 0.  1.
     999900   -1    0    0    0    0 -0.00000000000E+00 -0.00000000000E+00 -0.74505805969E-08  0.93827000000E+00  0.93827000000E+00 0. -1.
     999902    2    1    2    0    0  0.21097868153E-01  0.74935777538E-02  0.74773939788E-02  0.10203252300E+01  0.10200521505E+01 0.  0.
     999903    2    3    3    0    0  0.29474735654E-01  0.60106963469E-01 -0.11054667005E+00  0.13084896835E+00  0.20476307307E-01 0.  0.
         14    1    1    2    0    0 -0.21097868153E-01 -0.74935777538E-02 -0.74773939788E-02  0.23604770044E-01  0.00000000000E+00 0.  1.
     999901    1    3    3    0    0 -0.83768675019E-02 -0.52613385715E-01  0.11802406403E+00  0.88947626160E+00  0.88000000000E+00 0. -1.
        -11    1    4    4    0    0  0.14407722998E-01  0.11523182082E-01 -0.21860812728E-01  0.28609831552E-01  0.51100000000E-03 0.  1.
         11    1    4    4    0    0  0.15067012656E-01  0.48583781387E-01 -0.88685857320E-01  0.10223913680E+00  0.51100000000E-03 0. -1.
</event>
<event>
 8    1  0.1109294E+005  0.1043930E+01  0.7957747E-01            NaN
         13   -1    0    0    0    0  0.00000000000E+00  0.00000000000E+00  0.74505805969E-08  0.10566000000E+00  0.10566000000E+00 0. -1.
     999900   -1    0    0    0    0 -0.00000000000E+00 -0.00000000000E+00 -0.74505805969E-08  0.93827000000E+00  0.93827000000E+00 0.  1.
     999902    2    1    2    0    0 -0.16829837904E-01  0.15637160720E-01  0.70072936732E-02  0.10199119567E+01  0.10196291154E+01 0.  0.
     999903    2    3    3    0    0  0.16188793148E-01 -0.11427605115E+00  0.52645198912E-01  0.12859243430E+00  0.21057167476E-01 0.  0.
         14    1    1    2    0    0  0.16829837904E-01 -0.15637160720E-01 -0.70072936732E-02  0.24018043298E-01  0.00000000000E+00 0. -1.
     999901    1    3    3    0    0 -0.33018631052E-01  0.12991321187E+00 -0.45637905239E-01  0.89131952240E+00  0.88000000000E+00 0.  1.
        -11    1    4    4    0    0  0.20023623242E-01 -0.82766032136E-01  0.43103840613E-01  0.95442986960E-01  0.51100000000E-03 0.  1.
         11    1    4    4    0    0 -0.38348300943E-02 -0.31510019012E-01  0.95413582985E-02  0.33149447343E-01  0.51100000000E-03 0. -1.
</event>
<event>
 8    1  0.1109294E+005  0.1043930E+01  0.7957747E-01            NaN
         13   -1    0    0    0    0  0.00000000000E+00  0.00000000000E+00  0.74505805969E-08  0.10566000000E+00  0.10566000000E+00 0.  1.
     999900   -1    0    0    0    0 -0.00000000000E+00 -0.00000000000E+00 -0.74505805969E-08  0.93827000000E+00  0.93827000000E+00 0. -1.
     999902    2    1    2    0    0 -0.98926970797E-02 -0.84290405111E-02 -0.20373048873E-01  0.10197644191E+01  0.10194780504E+01 0.  0.
     999903    2    3    3    0    0 -0.78799436498E-01  0.92353023688E-01  0.39734874962E-01  0.12930491654E+00  0.20061629477E-01 0.  0.
         14    1    1    2    0    0  0.98926970797E-02  0.84290405111E-02  0.20373048873E-01  0.24165580891E-01  0.00000000000E+00 0.  1.
     999901    1    3    3    0    0  0.68906739418E-01 -0.10078206420E+00 -0.60107923835E-01  0.89045950257E+00  0.88000000000E+00 0. -1.
        -11    1    4    4    0    0 -0.36914598781E-01  0.51503420411E-01  0.11752899947E-01  0.64449062796E-01  0.51100000000E-03 0.  1.
         11    1    4    4    0    0 -0.41884837717E-01  0.40849603277E-01  0.27981975015E-01  0.64855853747E-01  0.51100000000E-03 0. -1.
</event>
<event>
 8    1  0.1109294E+005  0.1043930E+01  0.7957747E-01            NaN
         13   -1    0    0    0    0  0.00000000000E+00  0.00000000000E+00  0.74505805969E-08  0.10566000000E+00  0.10566000000E+00 0. -1.
     999900   -1    0    0    0    0 -0.00000000000E+00 -0.00000000000E+00 -0.74505805969E-08  0.93827000000E+00  0.93827000000E+00 0. -1.
     999902    2    1    2    0    0 -0.19306299984E-01  0.15335427132E-01  0.21648959427E-02  0.10191793370E+01  0.10188787591E+01 0.  0.
     999903    2    3    3    0    0 -0.90002027650E-02 -0.10145524660E+00 -0.74935779899E-01  0.12806161676E+00  0.20254280177E-01 0.  0.
         14    1    1    2    0    0  0.19306299984E-01 -0.15335427132E-01 -0.21648959427E-02  0.24750662998E-01  0.00000000000E+00 0. -1.
     999901    1    3    3    0    0 -0.10306097219E-01  0.11679067374E+00  0.77100675842E-01  0.89111772024E+00  0.88000000000E+00 0.  1.
        -11    1    4    4    0    0 -0.38312810030E-02 -0.43146195778E-01 -0.44418880492E-01  0.62044911068E-01  0.51100000000E-03 0.  1.
         11    1    4    4    0    0 -0.51689217620E-02 -0.58309050825E-01 -0.30516899407E-01  0.66016705694E-01  0.51100000000E-03 0. -1.
</event>
<event>
 8    1  0.1109294E+005  0.1043930E+01  0.7957747E-01            NaN
         13   -1    0    0    0    0  0.00000000000E+00  0.00000000000E+00  0.74505805969E-08  0.10566000000E+00  0.10566000000E+00 0.  1.
     999900   -1    0    0    0    0 -0.00000000000E+00 -0.00000000000E+00 -0.74505805969E-08  0.93827000000E+00  0.93827000000E+00 0.  1.
     999902    2    1    2    0    0 -0.55745912525E-02  0.95201445821E-02  0.21620136589E-01  0.10196578034E+01  0.10193688717E+01 0.  0.
     999903    2    3    3    0    0 -0.29643686241E-01  0.28909229268E-01 -0.11927396638E+00  0.12791433909E+00  0.20525774431E-01 0.  0.
         14    1    1    2    0    0  0.55745912525E-02 -0.95201445821E-02 -0.21620136589E-01  0.24272196576E-01  0.00000000000E+00 0. -1.
     999901    1    3    3    0    0  0.24069094988E-01 -0.19389084685E-01  0.14089410297E+00  0.89174346434E+00  0.88000000000E+00 0. -1.
        -11    1    4    4    0    0 -0.29866817869E-01  0.17349216090E-01 -0.85616664028E-01  0.92322783693E-01  0.51100000000E-03 0. -1.
         11    1    4    4    0    0  0.22313162801E-03  0.11560013178E-01 -0.33657302355E-01  0.35591555392E-01  0.51100000000E-03 0.  1.
</event>
<event>
 8    1  0.1109294E+005  0.1043930E+01  0.7957747E-01            NaN
         13   -1    0    0    0    0  0.00000000000E+00  0.00000000000E+00  0.74505805969E-08  0.10566000000E+00  0.10566000000E+00 0.  1.
     999900   -1    0    0    0    0 -0.00000000000E+00 -0.00000000000E+00 -0.74505805969E-08  0.93827000000E+00  0.93827000000E+00 0.  1.
     999902    2    1    2    0    0 -0.13672014739E-01 -0.49140724493E-02 -0.18969459322E-01  0.10200362250E+01  0.10197563375E+01 0.  0.
     999903    2    3    3    0    0  0.12482761054E+00 -0.24363043170E-01 -0.41859129949E-02  0.12886903427E+00  0.20352294701E-01 0.  0.
         14    1    1    2    0    0  0.13672014739E-01  0.49140724493E-02  0.18969459322E-01  0.23893774964E-01  0.00000000000E+00 0.  1.
     999901    1    3    3    0    0 -0.13849962528E+00  0.19448970720E-01 -0.14783546327E-01  0.89116719077E+00  0.88000000000E+00 0.  1.
        -11    1    4    4    0    0  0.15327257220E-01 -0.50432693551E-02  0.59725946345E-02  0.17213145772E-01  0.51100000000E-03 0.  1.
         11    1    4    4    0    0  0.10950035332E+00 -0.19319773815E-01 -0.10158507629E-01  0.11165588849E+00  0.51100000000E-03 0. -1.
</event>
<event>
 8    1  0.1109294E+005  0.1043930E+01  0.7957747E-01            NaN
         13   -1    0    0    0    0  0.00000000000E+00  0.00000000000E+00  0.74505805969E-08  0.10566000000E+00  0.10566000000E+00 0.  1.
     999900   -1    0    0    0    0 -0.00000000000E+00 -0.00000000000E+00 -0.74505805969E-08  0.93827000000E+00  0.93827000000E+00 0.  1.
     999902    2    1    2    0    0  0.77535960672E-02  0.21911438673E-01 -0.39390633230E-02  0.10203557425E+01  0.10200833768E+01 0.  0.
     999903    2    3    3    0    0  0.82121824531E-03 -0.12079868422E-01 -0.12890441876E+00  0.13085037047E+00  0.18943934519E-01 0.  0.
         14    1    1    2    0    0 -0.77535960672E-02 -0.21911438673E-01  0.39390633230E-02  0.23574257498E-01  0.00000000000E+00 0. -1.
     999901    1    3    3    0    0  0.69323778219E-02  0.33991307095E-01  0.12496535544E+00  0.88950537204E+00  0.88000000000E+00 0. -1.
        -11    1    4    4    0    0 -0.87047688505E-02 -0.76537006362E-02 -0.79224264375E-01  0.80069328215E-01  0.51100000000E-03 0.  1.
         11    1    4    4    0    0  0.95259870958E-02 -0.44261677856E-02 -0.49680154385E-01  0.50781042251E-01  0.51100000000E-03 0. -1.
</event>
<event>
 7    1  0.1497910E+005  0.1043930E+01  0.7957747E-01            NaN
         13   -1    0    0    0    0  0.00000000000E+00  0.00000000000E+00  0.74505805969E-08  0.10566000000E+00  0.10566000000E+00 0. -1.
     999900   -1    0    0    0    0 -0.00000000000E+00 -0.00000000000E+00 -0.74505805969E-08  0.93827000000E+00  0.93827000000E+00 0.  1.
     999903    2    1    2    0    0 -0.84400382072E-01  0.73034899840E-01  0.14033232014E-02  0.11348994758E+00  0.20505555275E-01 0.  0.
         14    1    1    2    0    0 -0.79510409633E-02  0.37560659953E-01  0.48686127324E-02  0.38700460184E-01  0.00000000000E+00 0. -1.
     999901    1    1    2    0    0  0.92351423035E-01 -0.11059555979E+00 -0.62719359338E-02  0.89173959224E+00  0.88000000000E+00 0. -1.
        -11    1    3    3    0    0 -0.22064824957E-01  0.22174599340E-01  0.93278458941E-02  0.32647192625E-01  0.51100000000E-03 0. -1.
         11    1    3    3    0    0 -0.62335557115E-01  0.50860300500E-01 -0.79245226927E-02  0.80842754954E-01  0.51100000000E-03 0.  1.
</event>
<event>
 8    1  0.1109294E+005  0.1043930E+01  0.7957747E-01            NaN
         13   -1    0    0    0    0  0.00000000000E+00  0.00000000000E+00  0.74505805969E-08  0.10566000000E+00  0.10566000000E+00 0. -1.
     999900   -1    0    0    0    0 -0.00000000000E+00 -0.00000000000E+00 -0.74505805969E-08  0.93827000000E+00  0.93827000000E+00 0.  1.
     999902    2    1    2    0    0 -0.14400805585E-01  0.14807555845E-01  0.16158585805E-01  0.10177050728E+01  0.10173671257E+01 0.  0.
     999903    2    3    3    0    0 -0.10592282150E+00 -0.25960074035E-01  0.68682322962E-01  0.13046383051E+00  0.20247963493E-01 0.  0.
         14    1    1    2    0    0  0.14400805585E-01 -0.14807555845E-01 -0.16158585805E-01  0.26224927203E-01  0.00000000000E+00 0.  1.
     999901    1    3    3    0    0  0.91522015918E-01  0.40767629881E-01 -0.52523737157E-01  0.88724124228E+00  0.88000000000E+00 0.  1.
        -11    1    4    4    0    0 -0.90464873153E-01 -0.26856939927E-01  0.52201425438E-01  0.10784451046E+00  0.51100000000E-03 0.  1.
         11    1    4    4    0    0 -0.15457948350E-01  0.89686589200E-03  0.16480897524E-01  0.22619320056E-01  0.51100000000E-03 0. -1.
</event>
<event>
 8    1  0.1109294E+005  0.1043930E+01  0.7957747E-01            NaN
         13   -1    0    0    0    0  0.00000000000E+00  0.00000000000E+00  0.74505805969E-08  0.10566000000E+00  0.10566000000E+00 0. -1.
     999900   -1    0    0    0    0 -0.00000000000E+00 -0.00000000000E+00 -0.74505805969E-08  0.93827000000E+00  0.93827000000E+00 0.  1.
     999902    2    1    2    0    0 -0.23035895886E-01  0.41006174940E-02 -0.59180959440E-02  0.10197951409E+01  0.10195095086E+01 0.  0.
     999903    2    3    3    0    0 -0.96278342304E-01  0.37496428994E-01 -0.81395015550E-01  0.13290365851E+00  0.19045537655E-01 0.  0.
         14    1    1    2    0    0  0.23035895886E-01 -0.41006174940E-02  0.59180959440E-02  0.24134859078E-01  0.00000000000E+00 0.  1.
     999901    1    3    3    0    0  0.73242446417E-01 -0.33395811500E-01  0.75476919606E-01  0.88689148241E+00  0.88000000000E+00 0. -1.
        -11    1    4    4    0    0 -0.30930673814E-01  0.14827081765E-01 -0.38255323679E-01  0.51383653501E-01  0.51100000000E-03 0.  1.
         11    1    4    4    0    0 -0.65347668490E-01  0.22669347229E-01 -0.43139691871E-01  0.81520005009E-01  0.51100000000E-03 0. -1.
</event>
<event>
 8    1  0.1109294E+005  0.1043930E+01  0.7957747E-01            NaN
         13   -1    0    0    0    0  0.00000000000E+00  0.00000000000E+00  0.74505805969E-08  0.10566000000E+00  0.10566000000E+00 0.  1.
     999900   -1    0    0    0    0 -0.00000000000E+00 -0.00000000000E+00 -0.74505805969E-08  0.93827000000E+00  0.93827000000E+00 0.  1.
     999902    2    1    2    0    0  0.72438896860E-02  0.21968659246E-01  0.16133315236E-01  0.10157275216E+01  0.10153359141E+01 0.  0.
     999903    2    3    3    0    0 -0.16598388104E-01  0.10727890472E+00 -0.64067136983E-01  0.12765184650E+00  0.20152567778E-01 0.  0.
         14    1    1    2    0    0 -0.72438896860E-02 -0.21968659246E-01 -0.16133315236E-01  0.28202478390E-01  0.00000000000E+00 0. -1.
     999901    1    3    3    0    0  0.23842277790E-01 -0.85310245469E-01  0.80200452219E-01  0.88807567511E+00  0.88000000000E+00 0. -1.
        -11    1    4    4    0    0 -0.11293911017E-01  0.91008737233E-01 -0.45428064238E-01  0.10234311320E+00  0.51100000000E-03 0.  1.
         11    1    4    4    0    0 -0.53044770873E-02  0.16270167483E-01 -0.18639072745E-01  0.25308733293E-01  0.51100000000E-03 0. -1.
</event>
<event>
 8    1  0.1109294E+005  0.1043930E+01  0.7957747E-01            NaN
         13   -1    0    0    0    0  0.00000000000E+00  0.00000000000E+00  0.74505805969E-08  0.10566000000E+00  0.10566000000E+00 0. -1.
     999900   -1    0    0    0    0 -0.00000000000E+00 -0.00000000000E+00 -0.74505805969E-08  0.93827000000E+00  0.93827000000E+00 0. -1.
     999902    2    1    2    0    0 -0.15404962716E-02 -0.23926923113E-01  0.47309809889E-02  0.10194912406E+01  0.10191982814E+01 0.  0.
     999903    2    3    3    0    0 -0.10742249451E+00 -0.55121397939E-01  0.48438828291E-01  0.13151913030E+00  0.19313226349E-01 0.  0.
         14    1    1    2    0    0  0.15404962716E-02  0.23926923113E-01 -0.47309809889E-02  0.24438759369E-01  0.00000000000E+00 0. -1.
     999901    1    3    3    0    0  0.10588199823E+00  0.31194474826E-01 -0.43707847302E-01  0.88797211033E+00  0.88000000000E+00 0. -1.
        -11    1    4    4    0    0 -0.20929027489E-01 -0.12824077817E-01  0.20289273676E-02  0.24634504882E-01  0.51100000000E-03 0.  1.
         11    1    4    4    0    0 -0.86493467017E-01 -0.42297320122E-01  0.46409900923E-01  0.10688462542E+00  0.51100000000E-03 0. -1.
</event>
<event>
 8    1  0.1109294E+005  0.1043930E+01  0.7957747E-01            NaN
         13   -1    0    0    0    0  0.00000000000E+00  0.00000000000E+00  0.74505805969E-08  0.10566000000E+00  0.10566000000E+00 0.  1.
     999900   -1    0    0    0    0 -0.00000000000E+00 -0.00000000000E+00 -0.74505805969E-08  0.93827000000E+00  0.93827000000E+00 0. -1.
     999902    2    1    2    0    0  0.21505467161E-01 -0.97395639210E-02  0.59342056018E-02  0.10195874648E+01  0.10192968358E+01 0.  0.
     999903    2    3    3    0    0 -0.64741858291E-01 -0.43665398228E-01 -0.99747878331E-01  0.12843188567E+00  0.21140832694E-01 0.  0.
         14    1    1    2    0    0 -0.21505467161E-01  0.97395639210E-02 -0.59342056018E-02  0.24342535187E-01  0.00000000000E+00 0. -1.
     999901    1    3    3    0    0  0.86247325452E-01  0.33925834307E-01  0.10568208393E+00  0.89115557915E+00  0.88000000000E+00 0.  1.
        -11    1    4    4    0    0 -0.24723072549E-01 -0.26672872267E-01 -0.55820057254E-01  0.66624412524E-01  0.51100000000E-03 0.  1.
         11    1    4    4    0    0 -0.40018785741E-01 -0.16992525960E-01 -0.43927821076E-01  0.61807473142E-01  0.51100000000E-03 0. -1.
</event>
<event>
 8    1  0.1109294E+005  0.1043930E+01  0.7957747E-01            NaN
         13   -1    0    0    0    0  0.00000000000E+00  0.00000000000E+00  0.74505805969E-08  0.10566000000E+00  0.10566000000E+00 0. -1.
     999900   -1    0    0    0    0 -0.00000000000E+00 -0.00000000000E+00 -0.74505805969E-08  0.93827000000E+00  0.93827000000E+00 0.  1.
     999902    2    1    2    0    0 -0.19686003955E-01 -0.98694813904E-02  0.62047925679E-02  0.10210510825E+01  0.10207947238E+01 0.  0.
     999903    2    3    3    0    0 -0.70565106781E-01  0.80484365515E-01 -0.73414898431E-01  0.13139283580E+00  0.20424558733E-01 0.  0.
         14    1    1    2    0    0  0.19686003955E-01  0.98694813904E-02 -0.62047925679E-02  0.22878917489E-01  0.00000000000E+00 0.  1.
     999901    1    3    3    0    0  0.50879102826E-01 -0.90353846906E-01  0.79619690999E-01  0.88965824672E+00  0.88000000000E+00 0. -1.
        -11    1    4    4    0    0 -0.73200354346E-02  0.17377577227E-01 -0.19038790838E-01  0.26801115398E-01  0.51100000000E-03 0. -1.
         11    1    4    4    0    0 -0.63245071346E-01  0.63106788288E-01 -0.54376107593E-01  0.10459172040E+00  0.51100000000E-03 0.  1.
</event>
<event>
 8    1  0.1109294E+005  0.1043930E+01  0.7957747E-01            NaN
         13   -1    0    0    0    0  0.00000000000E+00  0.00000000000E+00  0.74505805969E-08  0.10566000000E+00  0.10566000000E+00 0. -1.
     999900   -1    0    0    0    0 -0.00000000000E+00 -0.00000000000E+00 -0.74505805969E-08  0.93827000000E+00  0.93827000000E+00 0. -1.
     999902    2    1    2    0    0 -0.44542332751E-03  0.22610927238E-01 -0.87576158724E-02  0.10196782316E+01  0.10193897919E+01 0.  0.
     999903    2    3    3    0    0 -0.50592662479E-01 -0.10994421425E+00  0.33292471443E-01  0.12734767576E+00  0.21487068712E-01 0.  0.
         14    1    1    2    0    0  0.44542332751E-03 -0.22610927238E-01  0.87576158724E-02  0.24251768353E-01  0.00000000000E+00 0.  1.
     999901    1    3    3    0    0  0.50147239152E-01  0.13255514149E+00 -0.42050087315E-01  0.89233055589E+00  0.88000000000E+00 0.  1.
        -11    1    4    4    0    0 -0.15034076728E-01 -0.31536137028E-01  0.19919530407E-01  0.40219400969E-01  0.51100000000E-03 0. -1.
         11    1    4    4    0    0 -0.35558585751E-01 -0.78408077225E-01  0.13372941036E-01  0.87128274789E-01  0.51100000000E-03 0.  1.
</event>
<event>
 8    1  0.1109294E+005  0.1043930E+01  0.7957747E-01            NaN
         13   -1    0    0    0    0  0.00000000000E+00  0.00000000000E+00  0.74505805969E-08  0.10566000000E+00  0.10566000000E+00 0. -1.
     999900   -1    0    0    0    0 -0.00000000000E+00 -0.00000000000E+00 -0.74505805969E-08  0.93827000000E+00  0.93827000000E+00 0.  1.
     999902    2    1    2    0    0 -0.23761365935E-01 -0.16602299239E-02 -0.39621249702E-02  0.10197834204E+01  0.10194975072E+01 0.  0.
     999903    2    3    3    0    0  0.71331369571E-01  0.10469035981E+00 -0.10079605265E-02  0.12828927939E+00  0.20220966830E-01 0.  0.
         14    1    1    2    0    0  0.23761365935E-01  0.16602299239E-02  0.39621249702E-02  0.24146579650E-01  0.00000000000E+00 0. -1.
     999901    1    3    3    0    0 -0.95092735507E-01 -0.10635058973E+00 -0.29541644437E-02  0.89149414096E+00  0.88000000000E+00 0. -1.
        -11    1    4    4    0    0  0.48073155314E-01  0.53040367679E-01 -0.23733133606E-02  0.71625432652E-01  0.51100000000E-03 0.  1.
         11    1    4    4    0    0  0.23258214258E-01  0.51649992130E-01  0.13653528341E-02  0.56663846735E-01  0.51100000000E-03 0. -1.
</event>
<event>
 8    1  0.1109294E+005  0.1043930E+01  0.7957747E-01            NaN
         13   -1    0    0    0    0  0.00000000000E+00  0.00000000000E+00  0.74505805969E-08  0.10566000000E+00  0.10566000000E+00 0. -1.
     999900   -1    0    0    0    0 -0.00000000000E+00 -0.00000000000E+00 -0.74505805969E-08  0.93827000000E+00  0.93827000000E+00 0.  1.
     999902    2    1    2    0    0  0.65573966510E-02  0.17592333630E-01  0.15323354228E-01  0.10196958332E+01  0.10194078171E+01 0.  0.
     999903    2    3    3    0    0  0.39549708665E-01  0.12476878478E+00  0.36955167366E-02  0.13250335642E+00  0.20299101181E-01 0.  0.
         14    1    1    2    0    0 -0.65573966510E-02 -0.17592333630E-01 -0.15323354228E-01  0.24234166752E-01  0.00000000000E+00 0.  1.
     999901    1    3    3    0    0 -0.32992312014E-01 -0.10717645115E+00  0.11627837491E-01  0.88719247683E+00  0.88000000000E+00 0. -1.
        -11    1    4    4    0    0  0.31722035637E-01  0.11767095282E+00  0.33740195559E-02  0.12191958748E+00  0.51100000000E-03 0. -1.
         11    1    4    4    0    0  0.78276730283E-02  0.70978319532E-02  0.32149718068E-03  0.10583768937E-01  0.51100000000E-03 0.  1.
</event>
<event>
 8    1  0.1109294E+005  0.1043930E+01  0.7957747E-01            NaN
         13   -1    0    0    0    0  0.00000000000E+00  0.00000000000E+00  0.74505805969E-08  0.10566000000E+00  0.10566000000E+00 0.  1.
     999900   -1    0    0    0    0 -0.00000000000E+00 -0.00000000000E+00 -0.74505805969E-08  0.93827000000E+00  0.93827000000E+00 0. -1.
     999902    2    1    2    0    0  0.58625775781E-02 -0.50486707764E-02 -0.21030630439E-01  0.10215213787E+01  0.10212755656E+01 0.  0.
     999903    2    3    3    0    0 -0.45737468057E-01 -0.11375796397E+00  0.41900748814E-01  0.13110538960E+00  0.20004001586E-01 0.  0.
         14    1    1    2    0    0 -0.58625775781E-02  0.50486707764E-02  0.21030630439E-01  0.22408621312E-01  0.00000000000E+00 0.  1.
     999901    1    3    3    0    0  0.51600045635E-01  0.10870929319E+00 -0.62931379253E-01  0.89041598909E+00  0.88000000000E+00 0. -1.
        -11    1    4    4    0    0 -0.35155240093E-01 -0.10409131574E+00  0.37786319675E-01  0.11618502483E+00  0.51100000000E-03 0.  1.
         11    1    4    4    0    0 -0.10582227965E-01 -0.96666482233E-02  0.41144291391E-02  0.14920364765E-01  0.51100000000E-03 0. -1.
</event>
<event>
 8    1  0.1109294E+005  0.1043930E+01  0.7957747E-01            NaN
         13   -1    0    0    0    0  0.00000000000E+00  0.00000000000E+00  0.74505805969E-08  0.10566000000E+00  0.10566000000E+00 0.  1.
     999900   -1    0    0    0    0 -0.00000000000E+00 -0.00000000000E+00 -0.74505805969E-08  0.93827000000E+00  0.93827000000E+00 0. -1.
     999902    2    1    2    0    0  0.83523806658E-02  0.19962753860E-01 -0.84657575896E-02  0.10206933295E+01  0.10204287971E+01 0.  0.
     999903    2    3    3    0    0 -0.79469849939E-02 -0.12150753797E+00  0.34830311828E-01  0.12819455503E+00  0.19835749678E-01 0.  0.
         14    1    1    2    0    0 -0.83523806658E-02 -0.19962753860E-01  0.84657575896E-02  0.23236670502E-01  0.00000000000E+00 0. -1.
     999901    1    3    3    0    0  0.16299365660E-01  0.14147029183E+00 -0.43296069418E-01  0.89249877446E+00  0.88000000000E+00 0. -1.
        -11    1    4    4    0    0  0.48898200482E-02 -0.17086857791E-01  0.86779996176E-02  0.19784838833E-01  0.51100000000E-03 0.  1.
         11    1    4    4    0    0 -0.12836805042E-01 -0.10442068018E+00  0.26152312211E-01  0.10840971620E+00  0.51100000000E-03 0. -1.
</event>
<event>
 8    1  0.1109294E+005  0.1043930E+01  0.7957747E-01            NaN
         13   -1    0    0    0    0  0.00000000000E+00  0.00000000000E+00  0.74505805969E-08  0.10566000000E+00  0.10566000000E+00 0.  1.
     999900   -1    0    0    0    0 -0.00000000000E+00 -0.00000000000E+00 -0.74505805969E-08  0.93827000000E+00  0.93827000000E+00 0. -1.
     999902    2    1    2    0    0 -0.10627582284E-01 -0.19934007199E-01 -0.87761346929E-02  0.10196950936E+01  0.10194070596E+01 0.  0.
     999903    2    3    3    0    0  0.88266027716E-01  0.71490174397E-01 -0.55577449324E-01  0.12821952459E+00  0.21205115646E-01 0.  0.
         14    1    1    2    0    0  0.10627582284E-01  0.19934007199E-01  0.87761346929E-02  0.24234906403E-01  0.00000000000E+00 0. -1.
     999901    1    3    3    0    0 -0.98893610000E-01 -0.91424181596E-01  0.46801314631E-01  0.89147556900E+00  0.88000000000E+00 0.  1.
        -11    1    4    4    0    0  0.77560321843E-01  0.69942417005E-01 -0.47638667533E-01  0.11479219915E+00  0.51100000000E-03 0.  1.
         11    1    4    4    0    0  0.10705705873E-01  0.15477573922E-02 -0.79387817907E-02  0.13427325441E-01  0.51100000000E-03 0. -1.
</event>
<event>
 8    1  0.1109294E+005  0.1043930E+01  0.7957747E-01            NaN
         13   -1    0    0    0    0  0.00000000000E+00  0.00000000000E+00  0.74505805969E-08  0.10566000000E+00  0.10566000000E+00 0. -1.
     999900   -1    0    0    0    0 -0.00000000000E+00 -0.00000000000E+00 -0.74505805969E-08  0.93827000000E+00  0.93827000000E+00 0. -1.
     999902    2    1    2    0    0  0.13525876629E-02 -0.43701807641E-02  0.23160844509E-01  0.10203216817E+01  0.10200485192E+01 0.  0.
     999903    2    3    3    0    0 -0.11248889817E-01 -0.12154019905E+00 -0.41694544096E-01  0.13010045537E+00  0.17003998771E-01 0.  0.
         14    1    1    2    0    0 -0.13525876629E-02  0.43701807641E-02 -0.23160844509E-01  0.23608318273E-01  0.00000000000E+00 0.  1.
     999901    1    3    3    0    0  0.12601477480E-01  0.11717001828E+00  0.64855388605E-01  0.89022122635E+00  0.88000000000E+00 0.  1.
        -11    1    4    4    0    0 -0.11127258365E-01 -0.50165235865E-01 -0.23105623300E-01  0.56342681132E-01  0.51100000000E-03 0.  1.
         11    1    4    4    0    0 -0.12163145131E-03 -0.71374963184E-01 -0.18588920796E-01  0.73757774241E-01  0.51100000000E-03 0. -1.
</event>
<event>
 8    1  0.1109294E+005  0.1043930E+01  0.7957747E-01            NaN
         13   -1    0    0    0    0  0.00000000000E+00  0.00000000000E+00  0.74505805969E-08  0.10566000000E+00  0.10566000000E+00 0.  1.
     999900   -1    0    0    0    0 -0.00000000000E+00 -0.00000000000E+00 -0.74505805969E-08  0.93827000000E+00  0.93827000000E+00 0. -1.
     999902    2    1    2    0    0  0.15688086538E-01  0.13890072939E-01 -0.84127637833E-02  0.10213507002E+01  0.10211010861E+01 0.  0.
     999903    2    3    3    0    0  0.52825137810E-03  0.94579509080E-01  0.89930853110E-01  0.13207454922E+00  0.20262418962E-01 0.  0.
         14    1    1    2    0    0 -0.15688086538E-01 -0.13890072939E-01  0.84127637833E-02  0.22579299810E-01  0.00000000000E+00 0.  1.
     999901    1    3    3    0    0  0.15159835160E-01 -0.80689436141E-01 -0.98343616893E-01  0.88927615097E+00  0.88000000000E+00 0. -1.
        -11    1    4    4    0    0 -0.86938755156E-02  0.50260432382E-01  0.53946703183E-01  0.74244208124E-01  0.51100000000E-03 0.  1.
         11    1    4    4    0    0  0.92221268937E-02  0.44319076698E-01  0.35984149927E-01  0.57830341092E-01  0.51100000000E-03 0. -1.
</event>
<event>
 8    1  0.1109294E+005  0.1043930E+01  0.7957747E-01            NaN
         13   -1    0    0    0    0  0.00000000000E+00  0.00000000000E+00  0.74505805969E-08  0.10566000000E+00  0.10566000000E+00 0. -1.
     999900   -1    0    0    0    0 -0.00000000000E+00 -0.00000000000E+00 -0.74505805969E-08  0.93827000000E+00  0.93827000000E+00 0. -1.
     999902    2    1    2    0    0  0.64246948409E-02 -0.23023888489E-01  0.59833354853E-02  0.10192890494E+01  0.10189911627E+01 0.  0.
     999903    2    3    3    0    0 -0.11362077598E+00  0.46965004056E-01 -0.29752589560E-01  0.12766894164E+00  0.17284378371E-01 0.  0.
         14    1    1    2    0    0 -0.64246948409E-02  0.23023888489E-01 -0.59833354853E-02  0.24640950640E-01  0.00000000000E+00 0. -1.
     999901    1    3    3    0    0  0.12004547082E+00 -0.69988892544E-01  0.35735925045E-01  0.89162010772E+00  0.88000000000E+00 0.  1.
        -11    1    4    4    0    0 -0.20695566553E-01  0.18354351740E-02 -0.34493943581E-02  0.21067385687E-01  0.51100000000E-03 0.  1.
         11    1    4    4    0    0 -0.92925209423E-01  0.45129568882E-01 -0.26303195202E-01  0.10660155596E+00  0.51100000000E-03 0. -1.
</event>
<event>
 8    1  0.1109294E+005  0.1043930E+01  0.7957747E-01            NaN
         13   -1    0    0    0    0  0.00000000000E+00  0.00000000000E+00  0.74505805969E-08  0.10566000000E+00  0.10566000000E+00 0.  1.
     999900   -1    0    0    0    0 -0.00000000000E+00 -0.00000000000E+00 -0.74505805969E-08  0.93827000000E+00  0.93827000000E+00 0.  1.
     999902    2    1    2    0    0  0.16286925269E-01 -0.29576928282E-02 -0.16213701403E-01  0.10207589837E+01  0.10204959612E+01 0.  0.
     999903    2    3    3    0    0 -0.10143058181E+00 -0.71546696135E-01  0.29500860052E-01  0.12910227626E+00  0.19748527488E-01 0.  0.
         14    1    1    2    0    0 -0.16286925269E-01  0.29576928282E-02  0.16213701403E-01  0.23171016266E-01  0.00000000000E+00 0.  1.
     999901    1    3    3    0    0  0.11771750708E+00  0.68589003307E-01 -0.45714561456E-01  0.89165670747E+00  0.88000000000E+00 0. -1.
        -11    1    4    4    0    0 -0.56286386557E-01 -0.51440643014E-01  0.18750908174E-01  0.78524867041E-01  0.51100000000E-03 0. -1.
         11    1    4    4    0    0 -0.45144195255E-01 -0.20106053121E-01  0.10749951878E-01  0.50577409223E-01  0.51100000000E-03 0.  1.
</event>
<event>
 8    1  0.1109294E+005  0.1043930E+01  0.7957747E-01            NaN
         13   -1    0    0    0    0  0.00000000000E+00  0.00000000000E+00  0.74505805969E-08  0.10566000000E+00  0.10566000000E+00 0. -1.
     999900   -1    0    0    0    0 -0.00000000000E+00 -0.00000000000E+00 -0.74505805969E-08  0.93827000000E+00  0.93827000000E+00 0. -1.
     999902    2    1    2    0    0 -0.18797047928E-01  0.12210306954E-01  0.57807702037E-02  0.10207818271E+01  0.10205193288E+01 0.  0.
     999903    2    3    3    0    0  0.11955664965E+00  0.76043008235E-02 -0.42273292701E-01  0.12866515649E+00  0.20397876191E-01 0.  0.
         14    1    1    2    0    0  0.18797047928E-01 -0.12210306954E-01 -0.57807702037E-02  0.23148172949E-01  0.00000000000E+00 0. -1.
     999901    1    3    3    0    0 -0.13835369758E+00  0.46060061305E-02  0.48054062905E-01  0.89211667056E+00  0.88000000000E+00 0.  1.
        -11    1    4    4    0    0  0.81101243915E-01  0.41787635249E-02 -0.18397096701E-01  0.83268169892E-01  0.51100000000E-03 0.  1.
         11    1    4    4    0    0  0.38455405735E-01  0.34255372986E-02 -0.23876196000E-01  0.45396986601E-01  0.51100000000E-03 0. -1.
</event>
<event>
 8    1  0.1109294E+005  0.1043930E+01  0.7957747E-01            NaN
         13   -1    0    0    0    0  0.00000000000E+00  0.00000000000E+00  0.74505805969E-08  0.10566000000E+00  0.10566000000E+00 0. -1.
     999900   -1    0    0    0    0 -0.00000000000E+00 -0.00000000000E+00 -0.74505805969E-08  0.93827000000E+00  0.93827000000E+00 0. -1.
     999902    2    1    2    0    0  0.28557523809E-01 -0.16122090339E-01 -0.53392442307E-02  0.10107040840E+01  0.10101578015E+01 0.  0.
     999903    2    3    3    0    0  0.73749725858E-01 -0.62516583935E-01  0.75893887066E-01  0.12459257537E+00  0.20398098254E-01 0.  0.
         14    1    1    2    0    0 -0.28557523809E-01  0.16122090339E-01  0.53392442307E-02  0.33225915968E-01  0.00000000000E+00 0.  1.
     999901    1    3    3    0    0 -0.45192202049E-01  0.46394493596E-01 -0.81233131297E-01  0.88611150866E+00  0.88000000000E+00 0.  1.
        -11    1    4    4    0    0  0.36405329294E-01 -0.40811776855E-01  0.50749900145E-01  0.74610740626E-01  0.51100000000E-03 0. -1.
         11    1    4    4    0    0  0.37344396564E-01 -0.21704807080E-01  0.25143986921E-01  0.49981834744E-01  0.51100000000E-03 0.  1.
</event>
<event>
 7    1  0.1109294E+005  0.1043930E+01  0.7957747E-01            NaN
         13   -1    0    0    0    0  0.00000000000E+00  0.00000000000E+00  0.74505805969E-08  0.10566000000E+00  0.10566000000E+00 0. -1.
     999900   -1    0    0    0    0 -0.00000000000E+00 -0.00000000000E+00 -0.74505805969E-08  0.93827000000E+00  0.93827000000E+00 0.  1.
     999903    2    1    2    0    0 -0.64885575864E-03 -0.85901523105E-01 -0.78149500452E-01  0.11754692308E+00  0.18178064227E-01 0.  0.
         14    1    1    2    0    0  0.29884322918E-02  0.11790079269E-01  0.40691832978E-01  0.42470718947E-01  0.00000000000E+00 0. -1.
     999901    1    1    2    0    0 -0.23395765332E-02  0.74111443835E-01  0.37457667474E-01  0.88391235797E+00  0.88000000000E+00 0. -1.
        -11    1    3    3    0    0  0.67909922431E-02 -0.55031091283E-01 -0.56134442107E-01  0.78904215953E-01  0.51100000000E-03 0. -1.
         11    1    3    3    0    0 -0.74398480017E-02 -0.30870431822E-01 -0.22015058345E-01  0.38642707127E-01  0.51100000000E-03 0.  1.
</event>
<event>
 7    1  0.1109294E+005  0.1043930E+01  0.7957747E-01            NaN
         13   -1    0    0    0    0  0.00000000000E+00  0.00000000000E+00  0.74505805969E-08  0.10566000000E+00  0.10566000000E+00 0.  1.
     999900   -1    0    0    0    0 -0.00000000000E+00 -0.00000000000E+00 -0.74505805969E-08  0.93827000000E+00  0.93827000000E+00 0. -1.
     999902    2    1    2    0    0 -0.20496705123E-01  0.98521028117E-02  0.60919664441E-02  0.10203866165E+01  0.10201149721E+01 0.  0.
         14    1    1    2    0    0  0.20496705123E-01 -0.98521028117E-02 -0.60919664441E-02  0.23543383484E-01  0.00000000000E+00 0. -1.
     999901    1    3    3    0    0  0.81094680313E-01 -0.59274489699E-01 -0.88968265084E-02  0.88575897728E+00  0.88000000000E+00 0. -1.
        -11    1    3    3    0    0 -0.77748737595E-02  0.28996102467E-01  0.12594054283E-01  0.32559083902E-01  0.51100000000E-03 0. -1.
         11    1    3    3    0    0 -0.93816511677E-01  0.40130490044E-01  0.23947386693E-02  0.10206855534E+00  0.51100000000E-03 0.  1.
</event>
<event>
 8    1  0.1109294E+005  0.1043930E+01  0.7957747E-01            NaN
         13   -1    0    0    0    0  0.00000000000E+00  0.00000000000E+00  0.74505805969E-08  0.10566000000E+00  0.10566000000E+00 0. -1.
     999900   -1    0    0    0    0 -0.00000000000E+00 -0.00000000000E+00 -0.74505805969E-08  0.93827000000E+00  0.93827000000E+00 0. -1.
     999902    2    1    2    0    0  0.12976328730E-01  0.17244792596E-01 -0.98514309723E-02  0.10202062003E+01  0.10199303273E+01 0.  0.
     999903    2    3    3    0    0 -0.44017401161E-01  0.16843310877E-01 -0.12111256237E+00  0.13137129676E+00  0.19207709956E-01 0.  0.
         14    1    1    2    0    0 -0.12976328730E-01 -0.17244792596E-01  0.98514309723E-02  0.23723799679E-01  0.00000000000E+00 0. -1.
     999901    1    3    3    0    0  0.56993729891E-01  0.40148171948E-03  0.11126113140E+00  0.88883490356E+00  0.88000000000E+00 0.  1.
        -11    1    4    4    0    0 -0.13428120500E-01  0.38277056542E-02 -0.16598357651E-01  0.21696367172E-01  0.51100000000E-03 0.  1.
         11    1    4    4    0    0 -0.30589280661E-01  0.13015605222E-01 -0.10451420472E+00  0.10967492958E+00  0.51100000000E-03 0. -1.
</event>
<event>
 8    1  0.1109294E+005  0.1043930E+01  0.7957747E-01            NaN
         13   -1    0    0    0    0  0.00000000000E+00  0.00000000000E+00  0.74505805969E-08  0.10566000000E+00  0.10566000000E+00 0.  1.
     999900   -1    0    0    0    0 -0.00000000000E+00 -0.00000000000E+00 -0.74505805969E-08  0.93827000000E+00  0.93827000000E+00 0.  1.
     999902    2    1    2    0    0 -0.77629840745E-02 -0.61751727274E-02 -0.19161189122E-01  0.10223534422E+01  0.10221257324E+01 0.  0.
     999903    2    3    3    0    0  0.12978107684E+00 -0.58432920227E-02 -0.37897452880E-03  0.13147115452E+00  0.20180408370E-01 0.  0.
         14    1    1    2    0    0  0.77629840745E-02  0.61751727274E-02  0.19161189122E-01  0.21576557847E-01  0.00000000000E+00 0.  1.
     999901    1    3    3    0    0 -0.13754406091E+00 -0.33188070475E-03 -0.18782214594E-01  0.89088228764E+00  0.88000000000E+00 0.  1.
        -11    1    4    4    0    0  0.57755489641E-01  0.28582242336E-02  0.82297379972E-02  0.58411092593E-01  0.51100000000E-03 0. -1.
         11    1    4    4    0    0  0.72025587196E-01 -0.87015162562E-02 -0.86087125260E-02  0.73060061924E-01  0.51100000000E-03 0.  1.
</event>
<event>
 8    1  0.1109294E+005  0.1043930E+01  0.7957747E-01            NaN
         13   -1    0    0    0    0  0.00000000000E+00  0.00000000000E+00  0.74505805969E-08  0.10566000000E+00  0.10566000000E+00 0. -1.
     999900   -1    0    0    0    0 -0.00000000000E+00 -0.00000000000E+00 -0.74505805969E-08  0.93827000000E+00  0.93827000000E+00 0.  1.
     999902    2    1    2    0    0 -0.55830662724E-02 -0.14281038443E-01  0.17592491366E-01  0.10205930242E+01  0.10203261766E+01 0.  0.
     999903    2    3    3    0    0  0.43794511693E-01 -0.13442294142E-01 -0.11851837821E+00  0.12876063101E+00  0.20833617024E-01 0.  0.
         14    1    1    2    0    0  0.55830662724E-02  0.14281038443E-01 -0.17592491366E-01  0.23336975821E-01  0.00000000000E+00 0.  1.
     999901    1    3    3    0    0 -0.49377577965E-01 -0.83874430106E-03  0.13611086957E+00  0.89183239317E+00  0.88000000000E+00 0. -1.
        -11    1    4    4    0    0  0.31958852045E-01 -0.14579434305E-01 -0.64500686024E-01  0.73447448882E-01  0.51100000000E-03 0.  1.
         11    1    4    4    0    0  0.11835659648E-01  0.11371401632E-02 -0.54017692182E-01  0.55313182124E-01  0.51100000000E-03 0. -1.
</event>
<event>
 8    1  0.1109294E+005  0.1043930E+01  0.7957747E-01            NaN
         13   -1    0    0    0    0  0.00000000000E+00  0.00000000000E+00  0.74505805969E-08  0.10566000000E+00  0.10566000000E+00 0.  1.
     999900   -1    0    0    0    0 -0.00000000000E+00 -0.00000000000E+00 -0.74505805969E-08  0.93827000000E+00  0.93827000000E+00 0.  1.
     999902    2    1    2    0    0 -0.15174505855E-01 -0.88342583718E-02 -0.14937909611E-01  0.10208767813E+01  0.10206164567E+01 0.  0.
     999903    2    3    3    0    0  0.92986512145E-01 -0.40322858071E-01 -0.81063836142E-01  0.13123473200E+00  0.19462400377E-01 0.  0.
         14    1    1    2    0    0  0.15174505855E-01  0.88342583718E-02  0.14937909611E-01  0.23053218701E-01  0.00000000000E+00 0.  1.
     999901    1    3    3    0    0 -0.10816101800E+00  0.31488599699E-01  0.66125926531E-01  0.88964204930E+00  0.88000000000E+00 0.  1.
        -11    1    4    4    0    0  0.44543105461E-01 -0.22309201750E-01 -0.27959693521E-01  0.57129627249E-01  0.51100000000E-03 0. -1.
         11    1    4    4    0    0  0.48443406684E-01 -0.18013656321E-01 -0.53104142622E-01  0.74105104749E-01  0.51100000000E-03 0.  1.
</event>
<event>
 8    1  0.1109294E+005  0.1043930E+01  0.7957747E-01            NaN
         13   -1    0    0    0    0  0.00000000000E+00  0.00000000000E+00  0.74505805969E-08  0.10566000000E+00  0.10566000000E+00 0. -1.
     999900   -1    0    0    0    0 -0.00000000000E+00 -0.00000000000E+00 -0.74505805969E-08  0.93827000000E+00  0.93827000000E+00 0.  1.
     999902    2    1    2    0    0 -0.47303282392E-02  0.21369208056E-01 -0.67587149292E-02  0.10210236846E+01  0.10207667046E+01 0.  0.
     999903    2    3    3    0    0  0.33640978126E-01  0.12751987172E+00  0.97537412630E-02  0.13366074770E+00  0.19417180954E-01 0.  0.
         14    1    1    2    0    0  0.47303282392E-02 -0.21369208056E-01  0.67587149292E-02  0.22906315411E-01  0.00000000000E+00 0. -1.
     999901    1    3    3    0    0 -0.38371306365E-01 -0.10615066366E+00 -0.16512456192E-01  0.88736293689E+00  0.88000000000E+00 0.  1.
        -11    1    4    4    0    0  0.25232054527E-01  0.74557923562E-01  0.13664020606E-01  0.79890594701E-01  0.51100000000E-03 0.  1.
         11    1    4    4    0    0  0.84089235989E-02  0.52961948155E-01 -0.39102793429E-02  0.53770153003E-01  0.51100000000E-03 0. -1.
</event>
<event>
 8    1  0.1109294E+005  0.1043930E+01  0.7957747E-01            NaN
         13   -1    0    0    0    0  0.00000000000E+00  0.00000000000E+00  0.74505805969E-08  0.10566000000E+00  0.10566000000E+00 0.  1.
     999900   -1    0    0    0    0 -0.00000000000E+00 -0.00000000000E+00 -0.74505805969E-08  0.93827000000E+00  0.93827000000E+00 0. -1.
     999902    2    1    2    0    0  0.20129907656E-02 -0.20998425820E-01  0.98507942427E-02  0.10206485875E+01  0.10203830237E+01 0.  0.
     999903    2    3    3    0    0  0.22994559469E-01 -0.12740100499E+00 -0.24572212495E-01  0.13332301118E+00  0.20284620926E-01 0.  0.
         14    1    1    2    0    0 -0.20129907656E-02  0.20998425820E-01 -0.98507942427E-02  0.23281412456E-01  0.00000000000E+00 0.  1.
     999901    1    3    3    0    0 -0.20981568704E-01  0.10640257917E+00  0.34423006737E-01  0.88732557637E+00  0.88000000000E+00 0.  1.
        -11    1    4    4    0    0  0.12039785495E-01 -0.32328462364E-01  0.57920135197E-04  0.34501454887E-01  0.51100000000E-03 0.  1.
         11    1    4    4    0    0  0.10954773974E-01 -0.95072542623E-01 -0.24630132630E-01  0.98821556292E-01  0.51100000000E-03 0. -1.
</event>
<event>
 8    1  0.1109294E+005  0.1043930E+01  0.7957747E-01            NaN
         13   -1    0    0    0    0  0.00000000000E+00  0.00000000000E+00  0.74505805969E-08  0.10566000000E+00  0.10566000000E+00 0.  1.
     999900   -1    0    0    0    0 -0.00000000000E+00 -0.00000000000E+00 -0.74505805969E-08  0.93827000000E+00  0.93827000000E+00 0. -1.
     999902    2    1    2    0    0 -0.19518756873E-01 -0.10379353998E-01  0.51998457767E-02  0.10212198425E+01  0.10209672940E+01 0.  0.
     999903    2    3    3    0    0  0.66538061170E-01  0.70749151359E-01  0.84004966707E-01  0.12981765635E+00  0.19053437161E-01 0.  0.
         14    1    1    2    0    0  0.19518756873E-01  0.10379353998E-01 -0.51998457767E-02  0.22710157538E-01  0.00000000000E+00 0. -1.
     999901    1    3    3    0    0 -0.86056818044E-01 -0.81128505357E-01 -0.78805120930E-01  0.89140218611E+00  0.88000000000E+00 0. -1.
        -11    1    4    4    0    0  0.23882737965E-01  0.27061681805E-01  0.43582430819E-01  0.56589832938E-01  0.51100000000E-03 0.  1.
         11    1    4    4    0    0  0.42655323205E-01  0.43687469553E-01  0.40422535888E-01  0.73227823416E-01  0.51100000000E-03 0. -1.
</event>
<event>
 8    1  0.1109294E+005  0.1043930E+01  0.7957747E-01            NaN
         13   -1    0    0    0    0  0.00000000000E+00  0.00000000000E+00  0.74505805969E-08  0.10566000000E+00  0.10566000000E+00 0. -1.
     999900   -1    0    0    0    0 -0.00000000000E+00 -0.00000000000E+00 -0.74505805969E-08  0.93827000000E+00  0.93827000000E+00 0.  1.
     999902    2    1    2    0    0  0.21567101436E-01 -0.78536898113E-02 -0.67124192259E-02  0.10200160526E+01  0.10197356867E+01 0.  0.
     999903    2    3    3    0    0  0.41184296647E-01 -0.10710027447E+00  0.62805286554E-01  0.13149625523E+00  0.13421849327E-01 0.  0.
         14    1    1    2    0    0 -0.21567101436E-01  0.78536898113E-02  0.67124192259E-02  0.23913947392E-01  0.00000000000E+00 0.  1.
     999901    1    3    3    0    0 -0.19617195211E-01  0.99246584656E-01 -0.69517705780E-01  0.88851979738E+00  0.88000000000E+00 0.  1.
        -11    1    4    4    0    0  0.24113888999E-01 -0.47159460177E-01  0.24708471154E-01  0.58448815169E-01  0.51100000000E-03 0. -1.
         11    1    4    4    0    0  0.17070407648E-01 -0.59940814290E-01  0.38096815400E-01  0.73047440063E-01  0.51100000000E-03 0.  1.
</event>
<event>
 8    1  0.1109294E+005  0.1043930E+01  0.7957747E-01            NaN
         13   -1    0    0    0    0  0.00000000000E+00  0.00000000000E+00  0.74505805969E-08  0.10566000000E+00  0.10566000000E+00 0. -1.
     999900   -1    0    0    0    0 -0.00000000000E+00 -0.00000000000E+00 -0.74505805969E-08  0.93827000000E+00  0.93827000000E+00 0. -1.
     999902    2    1    2    0    0  0.14003248100E-01 -0.14817017310E-01 -0.12675031225E-01  0.10199239304E+01  0.10196413745E+01 0.  0.
     999903    2    3    3    0    0 -0.10100353107E-01  0.12608178425E+00  0.68842442282E-02  0.12817507502E+00  0.19565878110E-01 0.  0.
         14    1    1    2    0    0 -0.14003248100E-01  0.14817017310E-01  0.12675031225E-01  0.24006069563E-01  0.00000000000E+00 0. -1.
     999901    1    3    3    0    0  0.24103601207E-01 -0.14089880156E+00 -0.19559275454E-01  0.89174885541E+00  0.88000000000E+00 0.  1.
        -11    1    4    4    0    0 -0.27234168899E-02  0.14685816039E-01  0.70721126771E-02  0.16533786348E-01  0.51100000000E-03 0.  1.
         11    1    4    4    0    0 -0.73769362166E-02  0.11139596821E+00 -0.18786844889E-03  0.11164128868E+00  0.51100000000E-03 0. -1.
</event>
<event>
 8    1  0.1109294E+005  0.1043930E+01  0.7957747E-01            NaN
         13   -1    0    0    0    0  0.00000000000E+00  0.00000000000E+00  0.74505805969E-08  0.10566000000E+00  0.10566000000E+00 0. -1.
     999900   -1    0    0    0    0 -0.00000000000E+00 -0.00000000000E+00 -0.74505805969E-08  0.93827000000E+00  0.93827000000E+00 0.  1.
     999902    2    1    2    0    0 -0.22799635418E-01  0.67151630302E-03  0.10454932780E-01  0.10188385686E+01  0.10185295523E+01 0.  0.
     999903    2    3    3    0    0 -0.10806006541E+00 -0.42751092338E-01  0.60229733561E-01  0.13225388871E+00  0.18942983952E-01 0.  0.
         14    1    1    2    0    0  0.22799635418E-01 -0.67151630302E-03 -0.10454932780E-01  0.25091431381E-01  0.00000000000E+00 0.  1.
     999901    1    3    3    0    0  0.85260429990E-01  0.43422608641E-01 -0.49774800782E-01  0.88658467991E+00  0.88000000000E+00 0.  1.
        -11    1    4    4    0    0 -0.23535193414E-01 -0.18064602177E-01  0.14346958039E-01  0.32959543486E-01  0.51100000000E-03 0.  1.
         11    1    4    4    0    0 -0.84524871994E-01 -0.24686490162E-01  0.45882775522E-01  0.99294345220E-01  0.51100000000E-03 0. -1.
</event>
<event>
 8    1  0.1109294E+005  0.1043930E+01  0.7957747E-01            NaN
         13   -1    0    0    0    0  0.00000000000E+00  0.00000000000E+00  0.74505805969E-08  0.10566000000E+00  0.10566000000E+00 0.  1.
     999900   -1    0    0    0    0 -0.00000000000E+00 -0.00000000000E+00 -0.74505805969E-08  0.93827000000E+00  0.93827000000E+00 0. -1.
     999902    2    1    2    0    0  0.19886324681E-01 -0.95881429082E-02 -0.69887951858E-02  0.10207731079E+01  0.10205104096E+01 0.  0.
     999903    2    3    3    0    0  0.51352973526E-01 -0.66180647117E-01 -0.10206304342E+00  0.13328678451E+00  0.18207035747E-01 0.  0.
         14    1    1    2    0    0 -0.19886324681E-01  0.95881429082E-02  0.69887951858E-02  0.23156892103E-01  0.00000000000E+00 0. -1.
     999901    1    3    3    0    0 -0.31466648845E-01  0.56592504209E-01  0.95074248231E-01  0.88748632339E+00  0.88000000000E+00 0.  1.
        -11    1    4    4    0    0  0.11171386023E-01 -0.20901771571E-01 -0.40611899570E-01  0.47024157921E-01  0.51100000000E-03 0.  1.
         11    1    4    4    0    0  0.40181587503E-01 -0.45278875546E-01 -0.61451143847E-01  0.86262626589E-01  0.51100000000E-03 0. -1.
</event>
<event>
 8    1  0.1109294E+005  0.1043930E+01  0.7957747E-01            NaN
         13   -1    0    0    0    0  0.00000000000E+00  0.00000000000E+00  0.74505805969E-08  0.10566000000E+00  0.10566000000E+00 0.  1.
     999900   -1    0    0    0    0 -0.00000000000E+00 -0.00000000000E+00 -0.74505805969E-08  0.93827000000E+00  0.93827000000E+00 0. -1.
     999902    2    1    2    0    0  0.11604361973E-01  0.17738989244E-01 -0.10610469709E-01  0.10202252531E+01  0.10199498282E+01 0.  0.
     999903    2    3    3    0    0  0.12938886482E+00 -0.13587750386E-01  0.33365568692E-02  0.13171578596E+00  0.20293111078E-01 0.  0.
         14    1    1    2    0    0 -0.11604361973E-01 -0.17738989244E-01  0.10610469709E-01  0.23704746859E-01  0.00000000000E+00 0. -1.
     999901    1    3    3    0    0 -0.11778450285E+00  0.31326739630E-01 -0.13947026578E-01  0.88850946719E+00  0.88000000000E+00 0. -1.
        -11    1    4    4    0    0  0.30507507265E-01  0.19334943307E-02 -0.61101103153E-02  0.31177571568E-01  0.51100000000E-03 0. -1.
         11    1    4    4    0    0  0.98881357559E-01 -0.15521244717E-01  0.94466671845E-02  0.10053821439E+00  0.51100000000E-03 0.  1.
</event>
<event>
 8    1  0.1109294E+005  0.1043930E+01  0.7957747E-01            NaN
         13   -1    0    0    0    0  0.00000000000E+00  0.00000000000E+00  0.74505805969E-08  0.10566000000E+00  0.10566000000E+00 0.  1.
     999900   -1    0    0    0    0 -0.00000000000E+00 -0.00000000000E+00 -0.74505805969E-08  0.93827000000E+00  0.93827000000E+00 0. -1.
     999902    2    1    2    0    0  0.40987634273E-02 -0.21427925730E-01 -0.11144441727E-01  0.10194319502E+01  0.10191375504E+01 0.  0.
     999903    2    3    3    0    0 -0.15034117497E-01  0.10747120263E+00  0.62435428807E-01  0.12679817884E+00  0.20087590767E-01 0.  0.
         14    1    1    2    0    0 -0.40987634273E-02  0.21427925730E-01  0.11144441727E-01  0.24498049803E-01  0.00000000000E+00 0.  1.
     999901    1    3    3    0    0  0.19132880925E-01 -0.12889912836E+00 -0.73579870534E-01  0.89263377136E+00  0.88000000000E+00 0. -1.
        -11    1    4    4    0    0 -0.88297660782E-02  0.17027231042E-01  0.64296860783E-02  0.20235942034E-01  0.51100000000E-03 0.  1.
         11    1    4    4    0    0 -0.62043514190E-02  0.90443971587E-01  0.56005742729E-01  0.10656223680E+00  0.51100000000E-03 0. -1.
</event>
<event>
 8    1  0.1109294E+005  0.1043930E+01  0.7957747E-01            NaN
         13   -1    0    0    0    0  0.00000000000E+00  0.00000000000E+00  0.74505805969E-08  0.10566000000E+00  0.10566000000E+00 0. -1.
     999900   -1    0    0    0    0 -0.00000000000E+00 -0.00000000000E+00 -0.74505805969E-08  0.93827000000E+00  0.93827000000E+00 0.  1.
     999902    2    1    2    0    0  0.33927054080E-02  0.63628486615E-02 -0.34051032149E-01  0.10091238356E+01  0.10085233990E+01 0.  0.
     999903    2    3    3    0    0 -0.10229631986E+00 -0.42277064427E-02 -0.63301480347E-01  0.12225410519E+00  0.21367692045E-01 0.  0.
         14    1    1    2    0    0 -0.33927054080E-02 -0.63628486615E-02  0.34051032149E-01  0.34806164446E-01  0.00000000000E+00 0. -1.
     999901    1    3    3    0    0  0.10568902526E+00  0.10590555104E-01  0.29250448199E-01  0.88686973037E+00  0.88000000000E+00 0. -1.
        -11    1    4    4    0    0 -0.28007305701E-01 -0.86313346830E-03 -0.29095594322E-01  0.40397634856E-01  0.51100000000E-03 0.  1.
         11    1    4    4    0    0 -0.74289014155E-01 -0.33645729744E-02 -0.34205886025E-01  0.81856470332E-01  0.51100000000E-03 0. -1.
</event>
<event>
 8    1  0.1109294E+005  0.1043930E+01  0.7957747E-01            NaN
         13   -1    0    0    0    0  0.00000000000E+00  0.00000000000E+00  0.74505805969E-08  0.10566000000E+00  0.10566000000E+00 0. -1.
     999900   -1    0    0    0    0 -0.00000000000E+00 -0.00000000000E+00 -0.74505805969E-08  0.93827000000E+00  0.93827000000E+00 0. -1.
     999902    2    1    2    0    0  0.20734550120E-01  0.32280808239E-02 -0.10377217645E-01  0.10205199867E+01  0.10202514468E+01 0.  0.
     999903    2    3    3    0    0 -0.11332812002E+00  0.40705272854E-01  0.39124595557E-01  0.12820402872E+00  0.20133478994E-01 0.  0.
         14    1    1    2    0    0 -0.20734550120E-01 -0.32280808239E-02  0.10377217645E-01  0.23410013253E-01  0.00000000000E+00 0.  1.
     999901    1    3    3    0    0  0.13406267014E+00 -0.37477192030E-01 -0.49501813202E-01  0.89231595803E+00  0.88000000000E+00 0. -1.
        -11    1    4    4    0    0 -0.65525192702E-01  0.33571262641E-01  0.26468483653E-01  0.78239518798E-01  0.51100000000E-03 0.  1.
         11    1    4    4    0    0 -0.47802927316E-01  0.71340102133E-02  0.12656111904E-01  0.49964509917E-01  0.51100000000E-03 0. -1.
</event>
<event>
 8    1  0.1109294E+005  0.1043930E+01  0.7957747E-01            NaN
         13   -1    0    0    0    0  0.00000000000E+00  0.00000000000E+00  0.74505805969E-08  0.10566000000E+00  0.10566000000E+00 0.  1.
     999900   -1    0    0    0    0 -0.00000000000E+00 -0.00000000000E+00 -0.74505805969E-08  0.93827000000E+00  0.93827000000E+00 0. -1.
     999902    2    1    2    0    0  0.10192914612E-01  0.68190025809E-02 -0.19763625498E-01  0.10206706965E+01  0.10204056427E+01 0.  0.
     999903    2    3    3    0    0 -0.11697921778E-01 -0.11343982709E+00  0.57282782931E-01  0.12888734624E+00  0.18033165448E-01 0.  0.
         14    1    1    2    0    0 -0.10192914612E-01 -0.68190025809E-02  0.19763625498E-01  0.23259303457E-01  0.00000000000E+00 0.  1.
     999901    1    3    3    0    0  0.21890836390E-01  0.12025882967E+00 -0.77046408429E-01  0.89178335031E+00  0.88000000000E+00 0. -1.
        -11    1    4    4    0    0 -0.10789927754E-01 -0.30101008612E-01  0.18678227801E-01  0.37035531253E-01  0.51100000000E-03 0. -1.
         11    1    4    4    0    0 -0.90799402348E-03 -0.83338818476E-01  0.38604555130E-01  0.91851814984E-01  0.51100000000E-03 0.  1.
</event>
<event>
 7    1  0.1109294E+005  0.1043930E+01  0.7957747E-01            NaN
         13   -1    0    0    0    0  0.00000000000E+00  0.00000000000E+00  0.74505805969E-08  0.10566000000E+00  0.10566000000E+00 0.  1.
     999900   -1    0    0    0    0 -0.00000000000E+00 -0.00000000000E+00 -0.74505805969E-08  0.93827000000E+00  0.93827000000E+00 0.  1.
     999902    2    1    2    0    0  0.70998220692E-02  0.10472920103E-01 -0.19356498202E-01  0.10208050448E+01  0.10205430790E+01 0.  0.
         14    1    1    2    0    0 -0.70998220692E-02 -0.10472920103E-01  0.19356498202E-01  0.23124955169E-01  0.00000000000E+00 0.  1.
     999901    1    3    3    0    0  0.17064466296E-01  0.66181069150E-01  0.94185834449E-01  0.88766102840E+00  0.88000000000E+00 0. -1.
        -11    1    3    3    0    0  0.30116936294E-02 -0.56321979818E-01 -0.95341025347E-01  0.11077638712E+00  0.51100000000E-03 0. -1.
         11    1    3    3    0    0 -0.12976337856E-01  0.61383077144E-03 -0.18201307305E-01  0.22367629310E-01  0.51100000000E-03 0.  1.
</event>
<event>
 8    1  0.1109294E+005  0.1043930E+01  0.7957747E-01            NaN
         13   -1    0    0    0    0  0.00000000000E+00  0.00000000000E+00  0.74505805969E-08  0.10566000000E+00  0.10566000000E+00 0. -1.
     999900   -1    0    0    0    0 -0.00000000000E+00 -0.00000000000E+00 -0.74505805969E-08  0.93827000000E+00  0.93827000000E+00 0.  1.
     999902    2    1    2    0    0  0.42329667484E-02  0.21881845515E-01  0.63503925240E-02  0.10207554308E+01  0.10204923267E+01 0.  0.
     999903    2    3    3    0    0  0.12582870464E+00 -0.12699571826E-01  0.29640233516E-01  0.13141645464E+00  0.19939886406E-01 0.  0.
         14    1    1    2    0    0 -0.42329667484E-02 -0.21881845515E-01 -0.63503925240E-02  0.23174569162E-01  0.00000000000E+00 0. -1.
     999901    1    3    3    0    0 -0.12159573789E+00  0.34581417340E-01 -0.23289840992E-01  0.88933897620E+00  0.88000000000E+00 0. -1.
        -11    1    4    4    0    0  0.79135441783E-01 -0.16760959408E-01  0.14673984491E-01  0.82212741399E-01  0.51100000000E-03 0. -1.
         11    1    4    4    0    0  0.46693262858E-01  0.40613875820E-02  0.14966249024E-01  0.49203713237E-01  0.51100000000E-03 0.  1.
</event>
<event>
 8    1  0.1109294E+005  0.1043930E+01  0.7957747E-01            NaN
         13   -1    0    0    0    0  0.00000000000E+00  0.00000000000E+00  0.74505805969E-08  0.10566000000E+00  0.10566000000E+00 0. -1.
     999900   -1    0    0    0    0 -0.00000000000E+00 -0.00000000000E+00 -0.74505805969E-08  0.93827000000E+00  0.93827000000E+00 0.  1.
     999902    2    1    2    0    0  0.23169700884E-01 -0.14363756193E-01  0.48210194984E-03  0.10166649133E+01  0.10162992477E+01 0.  0.
     999903    2    3    3    0    0  0.47050042193E-01 -0.19036786849E-01 -0.11637177951E+00  0.12860695486E+00  0.20524425685E-01 0.  0.
         14    1    1    2    0    0 -0.23169700884E-01  0.14363756193E-01 -0.48210194984E-03  0.27265086710E-01  0.00000000000E+00 0. -1.
     999901    1    3    3    0    0 -0.23880341309E-01  0.46730306561E-02  0.11685388145E+00  0.88805795843E+00  0.88000000000E+00 0. -1.
        -11    1    4    4    0    0  0.18415045426E-01  0.11873570680E-02 -0.28037290135E-01  0.33568951040E-01  0.51100000000E-03 0.  1.
         11    1    4    4    0    0  0.28634996767E-01 -0.20224143917E-01 -0.88334489370E-01  0.95038003821E-01  0.51100000000E-03 0. -1.
</event>
<event>
 8    1  0.1109294E+005  0.1043930E+01  0.7957747E-01            NaN
         13   -1    0    0    0    0  0.00000000000E+00  0.00000000000E+00  0.74505805969E-08  0.10566000000E+00  0.10566000000E+00 0. -1.
     999900   -1    0    0    0    0 -0.00000000000E+00 -0.00000000000E+00 -0.74505805969E-08  0.93827000000E+00  0.93827000000E+00 0. -1.
     999902    2    1    2    0    0 -0.78133933489E-02 -0.10355162705E-01 -0.20210843115E-01  0.10199142408E+01  0.10196314540E+01 0.  0.
     999903    2    3    3    0    0  0.69569378811E-01 -0.74785547846E-01  0.76035264173E-01  0.12895819188E+00  0.20397970956E-01 0.  0.
         14    1    1    2    0    0  0.78133933489E-02  0.10355162705E-01  0.20210843115E-01  0.24015759195E-01  0.00000000000E+00 0. -1.
     999901    1    3    3    0    0 -0.77382772160E-01  0.64430385141E-01 -0.96246107288E-01  0.89095604893E+00  0.88000000000E+00 0. -1.
        -11    1    4    4    0    0  0.29141649449E-01 -0.20593664439E-01  0.34322964923E-01  0.49514258449E-01  0.51100000000E-03 0.  1.
         11    1    4    4    0    0  0.40427729362E-01 -0.54191883407E-01  0.41712299250E-01  0.79443933427E-01  0.51100000000E-03 0. -1.
</event>
<event>
 8    1  0.1109294E+005  0.1043930E+01  0.7957747E-01            NaN
         13   -1    0    0    0    0  0.00000000000E+00  0.00000000000E+00  0.74505805969E-08  0.10566000000E+00  0.10566000000E+00 0. -1.
     999900   -1    0    0    0    0 -0.00000000000E+00 -0.00000000000E+00 -0.74505805969E-08  0.93827000000E+00  0.93827000000E+00 0. -1.
     999902    2    1    2    0    0  0.28060266797E-02  0.23681662348E-01  0.68897023729E-02  0.10191073709E+01  0.10188050208E+01 0.  0.
     999903    2    3    3    0    0 -0.11130220300E+00  0.55746073040E-01  0.35981931757E-01  0.13068451418E+00  0.16968729487E-01 0.  0.
         14    1    1    2    0    0 -0.28060266797E-02 -0.23681662348E-01 -0.68897023729E-02  0.24822629113E-01  0.00000000000E+00 0.  1.
     999901    1    3    3    0    0  0.11410822968E+00 -0.32064410691E-01 -0.29092229384E-01  0.88842285671E+00  0.88000000000E+00 0.  1.
        -11    1    4    4    0    0 -0.47807785705E-01  0.26717786706E-01  0.24210781529E-01  0.59881946893E-01  0.51100000000E-03 0. -1.
         11    1    4    4    0    0 -0.63494417296E-01  0.29028286334E-01  0.11771150228E-01  0.70802567283E-01  0.51100000000E-03 0.  1.
</event>
<event>
 8    1  0.1109294E+005  0.1043930E+01  0.7957747E-01            NaN
         13   -1    0    0    0    0  0.00000000000E+00  0.00000000000E+00  0.74505805969E-08  0.10566000000E+00  0.10566000000E+00 0.  1.
     999900   -1    0    0    0    0 -0.00000000000E+00 -0.00000000000E+00 -0.74505805969E-08  0.93827000000E+00  0.93827000000E+00 0.  1.
     999902    2    1    2    0    0 -0.90622727768E-02  0.20115128802E-01 -0.13003463577E-01  0.10183207583E+01  0.10179986904E+01 0.  0.
     999903    2    3    3    0    0  0.77229517736E-01  0.67164383449E-02  0.98618343741E-01  0.12698175104E+00  0.19730139949E-01 0.  0.
         14    1    1    2    0    0  0.90622727768E-02 -0.20115128802E-01  0.13003463577E-01  0.25609241683E-01  0.00000000000E+00 0.  1.
     999901    1    3    3    0    0 -0.86291790513E-01  0.13398690457E-01 -0.11162180732E+00  0.89133900727E+00  0.88000000000E+00 0.  1.
        -11    1    4    4    0    0  0.24609307909E-01 -0.70014247224E-02  0.30238453196E-01  0.39613926296E-01  0.51100000000E-03 0.  1.
         11    1    4    4    0    0  0.52620209827E-01  0.13717863067E-01  0.68379890545E-01  0.87367824749E-01  0.51100000000E-03 0. -1.
</event>
<event>
 8    1  0.1109294E+005  0.1043930E+01  0.7957747E-01            NaN
         13   -1    0    0    0    0  0.00000000000E+00  0.00000000000E+00  0.74505805969E-08  0.10566000000E+00  0.10566000000E+00 0.  1.
     999900   -1    0    0    0    0 -0.00000000000E+00 -0.00000000000E+00 -0.74505805969E-08  0.93827000000E+00  0.93827000000E+00 0.  1.
     999902    2    1    2    0    0 -0.61502134981E-02 -0.23524250194E-01 -0.14180414720E-02  0.10195737623E+01  0.10192828020E+01 0.  0.
     999903    2    3    3    0    0  0.11439289123E+00  0.52990217017E-01  0.70569102060E-02  0.12802627136E+00  0.21147801639E-01 0.  0.
         14    1    1    2    0    0  0.61502134981E-02  0.23524250194E-01  0.14180414720E-02  0.24356237699E-01  0.00000000000E+00 0.  1.
     999901    1    3    3    0    0 -0.12054310473E+00 -0.76514467210E-01 -0.84749516780E-02  0.89154749094E+00  0.88000000000E+00 0. -1.
        -11    1    4    4    0    0  0.11402803874E-01  0.12745033095E-01  0.30470410903E-02  0.17378302137E-01  0.51100000000E-03 0. -1.
         11    1    4    4    0    0  0.10299008736E+00  0.40245183922E-01  0.40098691157E-02  0.11064796923E+00  0.51100000000E-03 0.  1.
</event>
<event>
 8    1  0.1109294E+005  0.1043930E+01  0.7957747E-01            NaN
         13   -1    0    0    0    0  0.00000000000E+00  0.00000000000E+00  0.74505805969E-08  0.10566000000E+00  0.10566000000E+00 0. -1.
     999900   -1    0    0    0    0 -0.00000000000E+00 -0.00000000000E+00 -0.74505805969E-08  0.93827000000E+00  0.93827000000E+00 0. -1.
     999902    2    1    2    0    0 -0.18544812221E-01 -0.13073009496E-01  0.68690907073E-02  0.10202235021E+01  0.10199480360E+01 0.  0.
     999903    2    3    3    0    0  0.86285036421E-02 -0.12987539967E+00  0.42904696556E-02  0.13208621721E+00  0.22051987039E-01 0.  0.
         14    1    1    2    0    0  0.18544812221E-01  0.13073009496E-01 -0.68690907073E-02  0.23706497944E-01  0.00000000000E+00 0. -1.
     999901    1    3    3    0    0 -0.27173315863E-01  0.11680239018E+00  0.25786210517E-02  0.88813728485E+00  0.88000000000E+00 0.  1.
        -11    1    4    4    0    0  0.13941224267E-02 -0.93424689590E-01  0.11773010333E-01  0.94175267962E-01  0.51100000000E-03 0. -1.
         11    1    4    4    0    0  0.72343812154E-02 -0.36450710081E-01 -0.74825406778E-02  0.37910949249E-01  0.51100000000E-03 0.  1.
</event>
<event>
 8    1  0.1109294E+005  0.1043930E+01  0.7957747E-01            NaN
         13   -1    0    0    0    0  0.00000000000E+00  0.00000000000E+00  0.74505805969E-08  0.10566000000E+00  0.10566000000E+00 0. -1.
     999900   -1    0    0    0    0 -0.00000000000E+00 -0.00000000000E+00 -0.74505805969E-08  0.93827000000E+00  0.93827000000E+00 0.  1.
     999902    2    1    2    0    0  0.21051628803E-01  0.11007165767E-01 -0.14007160599E-02  0.10201331351E+01  0.10198555400E+01 0.  0.
     999903    2    3    3    0    0  0.80003890575E-01 -0.22224411175E-01 -0.10062192549E+00  0.13197517884E+00  0.19953169690E-01 0.  0.
         14    1    1    2    0    0 -0.21051628803E-01 -0.11007165767E-01  0.14007160599E-02  0.23796864898E-01  0.00000000000E+00 0. -1.
     999901    1    3    3    0    0 -0.58952261771E-01  0.33231576942E-01  0.99221209431E-01  0.88815795626E+00  0.88000000000E+00 0. -1.
        -11    1    4    4    0    0  0.63756885537E-01 -0.16908763779E-01 -0.90872053283E-01  0.11228908199E+00  0.51100000000E-03 0.  1.
         11    1    4    4    0    0  0.16247005037E-01 -0.53156473961E-02 -0.97498722077E-02  0.19686096845E-01  0.51100000000E-03 0. -1.
</event>
<event>
 8    1  0.1109294E+005  0.1043930E+01  0.7957747E-01            NaN
         13   -1    0    0    0    0  0.00000000000E+00  0.00000000000E+00  0.74505805969E-08  0.10566000000E+00  0.10566000000E+00 0. -1.
     999900   -1    0    0    0    0 -0.00000000000E+00 -0.00000000000E+00 -0.74505805969E-08  0.93827000000E+00  0.93827000000E+00 0.  1.
     999902    2    1    2    0    0  0.55938405864E-02 -0.22993673499E-01 -0.31651363815E-02  0.10200549469E+01  0.10197755030E+01 0.  0.
     999903    2    3    3    0    0  0.46629381527E-01  0.94146103124E-01  0.70884259093E-01  0.12826519819E+00  0.19738159092E-01 0.  0.
         14    1    1    2    0    0 -0.55938405864E-02  0.22993673499E-01  0.31651363815E-02  0.23875053127E-01  0.00000000000E+00 0. -1.
     999901    1    3    3    0    0 -0.41035540940E-01 -0.11713977662E+00 -0.74049395474E-01  0.89178974868E+00  0.88000000000E+00 0. -1.
        -11    1    4    4    0    0  0.30892297411E-01  0.40916216576E-01  0.31028509325E-01  0.59929127561E-01  0.51100000000E-03 0. -1.
         11    1    4    4    0    0  0.15737084115E-01  0.53229886548E-01  0.39855749768E-01  0.68336070628E-01  0.51100000000E-03 0.  1.
</event>
<event>
 8    1  0.1109294E+005  0.1043930E+01  0.7957747E-01            NaN
         13   -1    0    0    0    0  0.00000000000E+00  0.00000000000E+00  0.74505805969E-08  0.10566000000E+00  0.10566000000E+00 0.  1.
     999900   -1    0    0    0    0 -0.00000000000E+00 -0.00000000000E+00 -0.74505805969E-08  0.93827000000E+00  0.93827000000E+00 0. -1.
     999902    2    1    2    0    0  0.25625528253E-02  0.11909284354E-01 -0.17921400096E-01  0.10222603366E+01  0.10220306363E+01 0.  0.
     999903    2    3    3    0    0 -0.86066194669E-01 -0.42855817129E-01  0.85286695188E-01  0.13012459459E+00  0.20361208583E-01 0.  0.
         14    1    1    2    0    0 -0.25625528253E-02 -0.11909284354E-01  0.17921400096E-01  0.21669663408E-01  0.00000000000E+00 0. -1.
     999901    1    3    3    0    0  0.88628747494E-01  0.54765101483E-01 -0.10320809528E+00  0.89213574200E+00  0.88000000000E+00 0. -1.
        -11    1    4    4    0    0 -0.12617438962E-01 -0.81102151453E-02  0.24173034266E-01  0.28452979849E-01  0.51100000000E-03 0. -1.
         11    1    4    4    0    0 -0.73448755707E-01 -0.34745601984E-01  0.61113660922E-01  0.10167161474E+00  0.51100000000E-03 0.  1.
</event>
<event>
 8    1  0.1109294E+005  0.1043930E+01  0.7957747E-01            NaN
         13   -1    0    0    0    0  0.00000000000E+00  0.00000000000E+00  0.74505805969E-08  0.10566000000E+00  0.10566000000E+00 0.  1.
     999900   -1    0    0    0    0 -0.00000000000E+00 -0.00000000000E+00 -0.74505805969E-08  0.93827000000E+00  0.93827000000E+00 0. -1.
     999902    2    1    2    0    0  0.12543126008E-01  0.41909309760E-02 -0.20627207533E-01  0.10194274368E+01  0.10191329272E+01 0.  0.
     999903    2    3    3    0    0 -0.28844721873E-01  0.71131908563E-01  0.10009881773E+00  0.12770504637E+00  0.19925841561E-01 0.  0.
         14    1    1    2    0    0 -0.12543126008E-01 -0.41909309760E-02  0.20627207533E-01  0.24502563195E-01  0.00000000000E+00 0.  1.
     999901    1    3    3    0    0  0.41387847881E-01 -0.66940977587E-01 -0.12072602526E+00  0.89172239044E+00  0.88000000000E+00 0. -1.
        -11    1    4    4    0    0 -0.26977635325E-01  0.53188126938E-01  0.64855729149E-01  0.88109570306E-01  0.51100000000E-03 0.  1.
         11    1    4    4    0    0 -0.18670865478E-02  0.17943781625E-01  0.35243088577E-01  0.39595476062E-01  0.51100000000E-03 0. -1.
</event>
<event>
 8    1  0.1109294E+005  0.1043930E+01  0.7957747E-01            NaN
         13   -1    0    0    0    0  0.00000000000E+00  0.00000000000E+00  0.74505805969E-08  0.10566000000E+00  0.10566000000E+00 0. -1.
     999900   -1    0    0    0    0 -0.00000000000E+00 -0.00000000000E+00 -0.74505805969E-08  0.93827000000E+00  0.93827000000E+00 0.  1.
     999902    2    1    2    0    0 -0.12797892256E-01 -0.14647837606E-01  0.14239276066E-01  0.10198239390E+01  0.10195389960E+01 0.  0.
     999903    2    3    3    0    0  0.34882454183E-01  0.37345032675E-02  0.12510399026E+00  0.13139706486E+00  0.19581832106E-01 0.  0.
         14    1    1    2    0    0  0.12797892256E-01  0.14647837606E-01 -0.14239276066E-01  0.24106060973E-01  0.00000000000E+00 0.  1.
     999901    1    3    3    0    0 -0.47680346440E-01 -0.18382340874E-01 -0.11086471420E+00  0.88842687417E+00  0.88000000000E+00 0. -1.
        -11    1    4    4    0    0  0.36269803164E-01  0.25588063718E-03  0.10997023955E+00  0.11579844042E+00  0.51100000000E-03 0. -1.
         11    1    4    4    0    0 -0.13873489811E-02  0.34786226304E-02  0.15133750715E-01  0.15598624436E-01  0.51100000000E-03 0.  1.
</event>
<event>
 8    1  0.1109294E+005  0.1043930E+01  0.7957747E-01            NaN
         13   -1    0    0    0    0  0.00000000000E+00  0.00000000000E+00  0.74505805969E-08  0.10566000000E+00  0.10566000000E+00 0.  1.
     999900   -1    0    0    0    0 -0.00000000000E+00 -0.00000000000E+00 -0.74505805969E-08  0.93827000000E+00  0.93827000000E+00 0.  1.
     999902    2    1    2    0    0  0.16346104497E-01 -0.55815784695E-03 -0.17844795691E-01  0.10197237321E+01  0.10194363866E+01 0.  0.
     999903    2    3    3    0    0 -0.44341141482E-01 -0.42304900616E-01  0.10994452517E+00  0.12744807801E+00  0.19984307082E-01 0.  0.
         14    1    1    2    0    0 -0.16346104497E-01  0.55815784695E-03  0.17844795691E-01  0.24206267901E-01  0.00000000000E+00 0.  1.
     999901    1    3    3    0    0  0.60687245979E-01  0.41746742769E-01 -0.12778932086E+00  0.89227565409E+00  0.88000000000E+00 0.  1.
        -11    1    4    4    0    0 -0.16004869828E-01 -0.49178622285E-02  0.20748589075E-01  0.26666576397E-01  0.51100000000E-03 0.  1.
         11    1    4    4    0    0 -0.28336271654E-01 -0.37387038387E-01  0.89195936094E-01  0.10078150161E+00  0.51100000000E-03 0. -1.
</event>
<event>
 8    1  0.1109294E+005  0.1043930E+01  0.7957747E-01            NaN
         13   -1    0    0    0    0  0.00000000000E+00  0.00000000000E+00  0.74505805969E-08  0.10566000000E+00  0.10566000000E+00 0.  1.
     999900   -1    0    0    0    0 -0.00000000000E+00 -0.00000000000E+00 -0.74505805969E-08  0.93827000000E+00  0.93827000000E+00 0. -1.
     999902    2    1    2    0    0  0.17593590345E-01 -0.85592425698E-02  0.55361398273E-02  0.10235966801E+01  0.10233947037E+01 0.  0.
     999903    2    3    3    0    0  0.41443985267E-01 -0.78935365505E-01 -0.98687498189E-01  0.13433619702E+00  0.18936622960E-01 0.  0.
         14    1    1    2    0    0 -0.17593590345E-01  0.85592425698E-02 -0.55361398273E-02  0.20333319915E-01  0.00000000000E+00 0. -1.
     999901    1    3    3    0    0 -0.23850394923E-01  0.70376122935E-01  0.10422363802E+00  0.88926048306E+00  0.88000000000E+00 0.  1.
        -11    1    4    4    0    0  0.20485282229E-01 -0.55444391913E-01 -0.57207578655E-01  0.82259926812E-01  0.51100000000E-03 0. -1.
         11    1    4    4    0    0  0.20958703038E-01 -0.23490973592E-01 -0.41479919534E-01  0.52076270209E-01  0.51100000000E-03 0.  1.
</event>
<event>
 8    1  0.1109294E+005  0.1043930E+01  0.7957747E-01            NaN
         13   -1    0    0    0    0  0.00000000000E+00  0.00000000000E+00  0.74505805969E-08  0.10566000000E+00  0.10566000000E+00 0. -1.
     999900   -1    0    0    0    0 -0.00000000000E+00 -0.00000000000E+00 -0.74505805969E-08  0.93827000000E+00  0.93827000000E+00 0. -1.
     999902    2    1    2    0    0  0.14367290337E-01  0.23332768206E-01  0.30050238162E-02  0.10163643099E+01  0.10159904247E+01 0.  0.
     999903    2    3    3    0    0 -0.22352164071E-01  0.76919497482E-01 -0.98074900476E-01  0.12819934379E+00  0.20003932456E-01 0.  0.
         14    1    1    2    0    0 -0.14367290337E-01 -0.23332768206E-01 -0.30050238162E-02  0.27565690122E-01  0.00000000000E+00 0. -1.
     999901    1    3    3    0    0  0.36719454408E-01 -0.53586729276E-01  0.10107992429E+00  0.88816496609E+00  0.88000000000E+00 0.  1.
        -11    1    4    4    0    0  0.15774162482E-02  0.23269011135E-01 -0.21850870419E-01  0.31963366223E-01  0.51100000000E-03 0. -1.
         11    1    4    4    0    0 -0.23929580320E-01  0.53650486347E-01 -0.76224030057E-01  0.96235977569E-01  0.51100000000E-03 0.  1.
</event>
<event>
 8    1  0.1109294E+005  0.1043930E+01  0.7957747E-01            NaN
         13   -1    0    0    0    0  0.00000000000E+00  0.00000000000E+00  0.74505805969E-08  0.10566000000E+00  0.10566000000E+00 0.  1.
     999900   -1    0    0    0    0 -0.00000000000E+00 -0.00000000000E+00 -0.74505805969E-08  0.93827000000E+00  0.93827000000E+00 0.  1.
     999902    2    1    2    0    0  0.62631306111E-04 -0.17189375609E-01  0.17358093063E-01  0.10195008790E+01  0.10192081536E+01 0.  0.
     999903    2    3    3    0    0 -0.82051355337E-01 -0.22956392863E-01  0.98847769024E-01  0.13191058358E+00  0.19237976340E-01 0.  0.
         14    1    1    2    0    0 -0.62631306111E-04  0.17189375609E-01 -0.17358093063E-01  0.24429120968E-01  0.00000000000E+00 0. -1.
     999901    1    3    3    0    0  0.82113986643E-01  0.57670172539E-02 -0.81489675961E-01  0.88759029545E+00  0.88000000000E+00 0.  1.
        -11    1    4    4    0    0 -0.54846384236E-01 -0.23142990543E-01  0.74786715865E-01  0.95587854175E-01  0.51100000000E-03 0. -1.
         11    1    4    4    0    0 -0.27204971101E-01  0.18659768093E-03  0.24061053160E-01  0.36322729405E-01  0.51100000000E-03 0.  1.
</event>
<event>
 8    1  0.1109294E+005  0.1043930E+01  0.7957747E-01            NaN
         13   -1    0    0    0    0  0.00000000000E+00  0.00000000000E+00  0.74505805969E-08  0.10566000000E+00  0.10566000000E+00 0. -1.
     999900   -1    0    0    0    0 -0.00000000000E+00 -0.00000000000E+00 -0.74505805969E-08  0.93827000000E+00  0.93827000000E+00 0.  1.
     999902    2    1    2    0    0 -0.87344796582E-02 -0.22427270182E-01 -0.77419147654E-02  0.10186473809E+01  0.10183335779E+01 0.  0.
     999903    2    3    3    0    0 -0.43946253509E-01 -0.99698261537E-01  0.70055215135E-01  0.13114353951E+00  0.20490930577E-01 0.  0.
         14    1    1    2    0    0  0.87344796582E-02  0.22427270182E-01  0.77419147654E-02  0.25282619068E-01  0.00000000000E+00 0. -1.
     999901    1    3    3    0    0  0.35211773851E-01  0.77270991355E-01 -0.77797129900E-01  0.88750384142E+00  0.88000000000E+00 0.  1.
        -11    1    4    4    0    0 -0.34620407035E-01 -0.57810655027E-01  0.36289315585E-01  0.76536396338E-01  0.51100000000E-03 0.  1.
         11    1    4    4    0    0 -0.93258464744E-02 -0.41887606510E-01  0.33765899550E-01  0.54607143169E-01  0.51100000000E-03 0. -1.
</event>
<event>
 8    1  0.1109294E+005  0.1043930E+01  0.7957747E-01            NaN
         13   -1    0    0    0    0  0.00000000000E+00  0.00000000000E+00  0.74505805969E-08  0.10566000000E+00  0.10566000000E+00 0. -1.
     999900   -1    0    0    0    0 -0.00000000000E+00 -0.00000000000E+00 -0.74505805969E-08  0.93827000000E+00  0.93827000000E+00 0. -1.
     999902    2    1    2    0    0  0.23221597769E-01 -0.61555850721E-02  0.82371813854E-03  0.10198922725E+01  0.10196089619E+01 0.  0.
     999903    2    3    3    0    0 -0.48038276650E-01 -0.54125835963E-01 -0.10553213188E+00  0.12933588380E+00  0.18800474392E-01 0.  0.
         14    1    1    2    0    0 -0.23221597769E-01  0.61555850721E-02 -0.82371813854E-03  0.24037727474E-01  0.00000000000E+00 0.  1.
     999901    1    3    3    0    0  0.71259874420E-01  0.47970250891E-01  0.10635585001E+00  0.89055638873E+00  0.88000000000E+00 0.  1.
        -11    1    4    4    0    0 -0.38322709450E-01 -0.29976172716E-01 -0.71544315767E-01  0.86521969637E-01  0.51100000000E-03 0.  1.
         11    1    4    4    0    0 -0.97155672008E-02 -0.24149663246E-01 -0.33987816108E-01  0.42813914160E-01  0.51100000000E-03 0. -1.
</event>
<event>
 8    1  0.1109294E+005  0.1043930E+01  0.7957747E-01            NaN
         13   -1    0    0    0    0  0.00000000000E+00  0.00000000000E+00  0.74505805969E-08  0.10566000000E+00  0.10566000000E+00 0.  1.
     999900   -1    0    0    0    0 -0.00000000000E+00 -0.00000000000E+00 -0.74505805969E-08  0.93827000000E+00  0.93827000000E+00 0.  1.
     999902    2    1    2    0    0 -0.19165329427E-01 -0.11525351054E-01 -0.73528535555E-02  0.10203883768E+01  0.10201167734E+01 0.  0.
     999903    2    3    3    0    0  0.11415198180E+00 -0.38748417660E-01  0.41113155101E-01  0.12861286980E+00  0.17856761669E-01 0.  0.
         14    1    1    2    0    0  0.19165329427E-01  0.11525351054E-01  0.73528535555E-02  0.23541623231E-01  0.00000000000E+00 0.  1.
     999901    1    3    3    0    0 -0.13331731122E+00  0.27223066606E-01 -0.48466008656E-01  0.89177550696E+00  0.88000000000E+00 0.  1.
        -11    1    4    4    0    0  0.41395581447E-01 -0.15639558694E-01  0.62664889848E-02  0.44695860711E-01  0.51100000000E-03 0. -1.
         11    1    4    4    0    0  0.72756400351E-01 -0.23108858966E-01  0.34846666116E-01  0.83917009093E-01  0.51100000000E-03 0.  1.
</event>
<event>
 8    1  0.1109294E+005  0.1043930E+01  0.7957747E-01            NaN
         13   -1    0    0    0    0  0.00000000000E+00  0.00000000000E+00  0.74505805969E-08  0.10566000000E+00  0.10566000000E+00 0.  1.
     999900   -1    0    0    0    0 -0.00000000000E+00 -0.00000000000E+00 -0.74505805969E-08  0.93827000000E+00  0.93827000000E+00 0. -1.
     999902    2    1    2    0    0  0.21592061816E-01 -0.10898145731E-02  0.96346610450E-02  0.10202607896E+01  0.10199861995E+01 0.  0.
     999903    2    3    3    0    0  0.10339531847E+00 -0.80604511658E-01  0.97779524745E-02  0.13289706460E+00  0.19451021641E-01 0.  0.
         14    1    1    2    0    0 -0.21592061816E-01  0.10898145731E-02 -0.96346610450E-02  0.23669210437E-01  0.00000000000E+00 0. -1.
     999901    1    3    3    0    0 -0.81803256654E-01  0.79514697085E-01 -0.14329142950E-03  0.88736372497E+00  0.88000000000E+00 0.  1.
        -11    1    4    4    0    0  0.12989739766E-01 -0.76183685146E-02 -0.47557949047E-02  0.15800366584E-01  0.51100000000E-03 0. -1.
         11    1    4    4    0    0  0.90405578704E-01 -0.72986143143E-01  0.14533747379E-01  0.11709669801E+00  0.51100000000E-03 0.  1.
</event>
<event>
 8    1  0.1109294E+005  0.1043930E+01  0.7957747E-01            NaN
         13   -1    0    0    0    0  0.00000000000E+00  0.00000000000E+00  0.74505805969E-08  0.10566000000E+00  0.10566000000E+00 0.  1.
     999900   -1    0    0    0    0 -0.00000000000E+00 -0.00000000000E+00 -0.74505805969E-08  0.93827000000E+00  0.93827000000E+00 0.  1.
     999902    2    1    2    0    0 -0.19445766463E-01  0.55313672704E-02 -0.14780662320E-01  0.10188860020E+01  0.10185781675E+01 0.  0.
     999903    2    3    3    0    0  0.42116697586E-01 -0.11832356966E+00 -0.15627432055E-01  0.12808260091E+00  0.19663485686E-01 0.  0.
         14    1    1    2    0    0  0.19445766463E-01 -0.55313672704E-02  0.14780662320E-01  0.25043998000E-01  0.00000000000E+00 0.  1.
     999901    1    3    3    0    0 -0.61562464050E-01  0.12385493693E+00  0.84676973489E-03  0.89080340109E+00  0.88000000000E+00 0.  1.
        -11    1    4    4    0    0  0.25905653665E-01 -0.96472449246E-01 -0.11312664820E-01  0.10052996499E+00  0.51100000000E-03 0. -1.
         11    1    4    4    0    0  0.16211043922E-01 -0.21851120414E-01 -0.43147672348E-02  0.27552635911E-01  0.51100000000E-03 0.  1.
</event>
<event>
 8    1  0.1109294E+005  0.1043930E+01  0.7957747E-01            NaN
         13   -1    0    0    0    0  0.00000000000E+00  0.00000000000E+00  0.74505805969E-08  0.10566000000E+00  0.10566000000E+00 0. -1.
     999900   -1    0    0    0    0 -0.00000000000E+00 -0.00000000000E+00 -0.74505805969E-08  0.93827000000E+00  0.93827000000E+00 0. -1.
     999902    2    1    2    0    0  0.13421841535E-01  0.10843597207E-01  0.16256083920E-01  0.10202236782E+01  0.10199482162E+01 0.  0.
     999903    2    3    3    0    0  0.10089218405E+00  0.69965845746E-01 -0.43514683564E-01  0.13189995016E+00  0.20727199362E-01 0.  0.
         14    1    1    2    0    0 -0.13421841535E-01 -0.10843597207E-01 -0.16256083920E-01  0.23706321836E-01  0.00000000000E+00 0.  1.
     999901    1    3    3    0    0 -0.87470342512E-01 -0.59122248539E-01  0.59770767485E-01  0.88832372801E+00  0.88000000000E+00 0. -1.
        -11    1    4    4    0    0  0.33867051051E-01  0.17469208435E-01 -0.22311087147E-01  0.44161024908E-01  0.51100000000E-03 0.  1.
         11    1    4    4    0    0  0.67025132995E-01  0.52496637311E-01 -0.21203596417E-01  0.87738925250E-01  0.51100000000E-03 0. -1.
</event>
<event>
 8    1  0.1109294E+005  0.1043930E+01  0.7957747E-01            NaN
         13   -1    0    0    0    0  0.00000000000E+00  0.00000000000E+00  0.74505805969E-08  0.10566000000E+00  0.10566000000E+00 0.  1.
     999900   -1    0    0    0    0 -0.00000000000E+00 -0.00000000000E+00 -0.74505805969E-08  0.93827000000E+00  0.93827000000E+00 0. -1.
     999902    2    1    2    0    0 -0.15258820545E-01 -0.16043695201E-01  0.86994602646E-02  0.10201410873E+01  0.10198636799E+01 0.  0.
     999903    2    3    3    0    0  0.70084747051E-01 -0.36162664758E-01  0.10174278569E+00  0.13090244783E+00  0.23753869486E-01 0.  0.
         14    1    1    2    0    0  0.15258820545E-01  0.16043695201E-01 -0.86994602646E-02  0.23788912733E-01  0.00000000000E+00 0. -1.
     999901    1    3    3    0    0 -0.85343567596E-01  0.20118969558E-01 -0.93043325426E-01  0.88923863944E+00  0.88000000000E+00 0. -1.
        -11    1    4    4    0    0  0.21762175473E-01 -0.17788991085E-02  0.38042261286E-01  0.43866063513E-01  0.51100000000E-03 0.  1.
         11    1    4    4    0    0  0.48322571578E-01 -0.34383765650E-01  0.63700524404E-01  0.87036384315E-01  0.51100000000E-03 0. -1.
</event>
<event>
 8    1  0.1109294E+005  0.1043930E+01  0.7957747E-01            NaN
         13   -1    0    0    0    0  0.00000000000E+00  0.00000000000E+00  0.74505805969E-08  0.10566000000E+00  0.10566000000E+00 0.  1.
     999900   -1    0    0    0    0 -0.00000000000E+00 -0.00000000000E+00 -0.74505805969E-08  0.93827000000E+00  0.93827000000E+00 0. -1.
     999902    2    1    2    0    0  0.17068301205E-01 -0.13646799679E-01 -0.17445088149E-01  0.10159676477E+01  0.10155827726E+01 0.  0.
     999903    2    3    3    0    0  0.34886392246E-01 -0.11772292956E+00  0.22962456114E-01  0.12873481756E+00  0.31138888152E-01 0.  0.
         14    1    1    2    0    0 -0.17068301205E-01  0.13646799679E-01  0.17445088149E-01  0.27962352333E-01  0.00000000000E+00 0.  1.
     999901    1    3    3    0    0 -0.17818091041E-01  0.10407612988E+00 -0.40407544263E-01  0.88723283010E+00  0.88000000000E+00 0. -1.
        -11    1    4    4    0    0  0.67763159591E-02 -0.71259516087E-01  0.59709088587E-02  0.71831399572E-01  0.51100000000E-03 0. -1.
         11    1    4    4    0    0  0.28110076287E-01 -0.46463413469E-01  0.16991547255E-01  0.56903417992E-01  0.51100000000E-03 0.  1.
</event>
<event>
 8    1  0.1109294E+005  0.1043930E+01  0.7957747E-01            NaN
         13   -1    0    0    0    0  0.00000000000E+00  0.00000000000E+00  0.74505805969E-08  0.10566000000E+00  0.10566000000E+00 0. -1.
     999900   -1    0    0    0    0 -0.00000000000E+00 -0.00000000000E+00 -0.74505805969E-08  0.93827000000E+00  0.93827000000E+00 0. -1.
     999902    2    1    2    0    0 -0.22866639604E-01  0.43141531484E-02  0.85790205295E-02  0.10191288969E+01  0.10188270774E+01 0.  0.
     999903    2    3    3    0    0 -0.11778127407E+00  0.20200773547E-01  0.52855072294E-01  0.13277595287E+00  0.23564702845E-01 0.  0.
         14    1    1    2    0    0  0.22866639604E-01 -0.43141531484E-02 -0.85790205295E-02  0.24801103149E-01  0.00000000000E+00 0.  1.
     999901    1    3    3    0    0  0.94914634465E-01 -0.15886620399E-01 -0.44276051764E-01  0.88635294398E+00  0.88000000000E+00 0. -1.
        -11    1    4    4    0    0 -0.45759161690E-01  0.91961819348E-02  0.33299366408E-01  0.57337418541E-01  0.51100000000E-03 0. -1.
         11    1    4    4    0    0 -0.72022112378E-01  0.11004591613E-01  0.19555705886E-01  0.75438534329E-01  0.51100000000E-03 0.  1.
</event>
<event>
 8    1  0.1109294E+005  0.1043930E+01  0.7957747E-01            NaN
         13   -1    0    0    0    0  0.00000000000E+00  0.00000000000E+00  0.74505805969E-08  0.10566000000E+00  0.10566000000E+00 0.  1.
     999900   -1    0    0    0    0 -0.00000000000E+00 -0.00000000000E+00 -0.74505805969E-08  0.93827000000E+00  0.93827000000E+00 0.  1.
     999902    2    1    2    0    0 -0.13710208916E-01  0.18870299157E-01  0.47875574466E-02  0.10201186849E+01  0.10198407487E+01 0.  0.
     999903    2    3    3    0    0  0.88029018291E-01  0.61849436926E-01  0.71617959057E-01  0.13070068466E+00  0.19469874206E-01 0.  0.
         14    1    1    2    0    0  0.13710208916E-01 -0.18870299157E-01 -0.47875574466E-02  0.23811315064E-01  0.00000000000E+00 0.  1.
     999901    1    3    3    0    0 -0.10173922721E+00 -0.42979137769E-01 -0.66830401610E-01  0.88941800028E+00  0.88000000000E+00 0.  1.
        -11    1    4    4    0    0  0.47176117681E-01  0.29378311134E-01  0.25887648694E-01  0.61311521922E-01  0.51100000000E-03 0.  1.
         11    1    4    4    0    0  0.40852900610E-01  0.32471125792E-01  0.45730310363E-01  0.69389162737E-01  0.51100000000E-03 0. -1.
</event>
<event>
 8    1  0.1109294E+005  0.1043930E+01  0.7957747E-01            NaN
         13   -1    0    0    0    0  0.00000000000E+00  0.00000000000E+00  0.74505805969E-08  0.10566000000E+00  0.10566000000E+00 0. -1.
     999900   -1    0    0    0    0 -0.00000000000E+00 -0.00000000000E+00 -0.74505805969E-08  0.93827000000E+00  0.93827000000E+00 0.  1.
     999902    2    1    2    0    0  0.15022039359E-01  0.16395585795E-01  0.40555444015E-02  0.10213263644E+01  0.10210762060E+01 0.  0.
     999903    2    3    3    0    0  0.89835403209E-01  0.46698479006E-01  0.85253887480E-01  0.13390962149E+00  0.20307973478E-01 0.  0.
         14    1    1    2    0    0 -0.15022039359E-01 -0.16395585795E-01 -0.40555444015E-02  0.22603635558E-01  0.00000000000E+00 0. -1.
     999901    1    3    3    0    0 -0.74813363850E-01 -0.30302893211E-01 -0.81198343079E-01  0.88741674295E+00  0.88000000000E+00 0.  1.
        -11    1    4    4    0    0  0.39764008439E-01  0.95973363243E-02  0.35485961461E-01  0.54155330425E-01  0.51100000000E-03 0. -1.
         11    1    4    4    0    0  0.50071394770E-01  0.37101142682E-01  0.49767926019E-01  0.79754291068E-01  0.51100000000E-03 0.  1.
</event>
<event>
 8    1  0.1109294E+005  0.1043930E+01  0.7957747E-01            NaN
         13   -1    0    0    0    0  0.00000000000E+00  0.00000000000E+00  0.74505805969E-08  0.10566000000E+00  0.10566000000E+00 0. -1.
     999900   -1    0    0    0    0 -0.00000000000E+00 -0.00000000000E+00 -0.74505805969E-08  0.93827000000E+00  0.93827000000E+00 0. -1.
     999902    2    1    2    0    0 -0.68656404219E-02  0.98459955947E-02  0.20444880313E-01  0.10202219048E+01  0.10199464012E+01 0.  0.
     999903    2    3    3    0    0  0.18845469152E-01 -0.53748684089E-01 -0.11239585595E+00  0.12761224449E+00  0.20198607900E-01 0.  0.
         14    1    1    2    0    0  0.68656404219E-02 -0.98459955947E-02 -0.20444880313E-01  0.23708095213E-01  0.00000000000E+00 0.  1.
     999901    1    3    3    0    0 -0.25711109574E-01  0.63594679684E-01  0.13284073626E+00  0.89260966029E+00  0.88000000000E+00 0.  1.
        -11    1    4    4    0    0 -0.26030838001E-02 -0.30253973213E-02 -0.16909022506E-01  0.17381174797E-01  0.51100000000E-03 0.  1.
         11    1    4    4    0    0  0.21448552952E-01 -0.50723286768E-01 -0.95486833443E-01  0.11023106970E+00  0.51100000000E-03 0. -1.
</event>
<event>
 8    1  0.1109294E+005  0.1043930E+01  0.7957747E-01            NaN
         13   -1    0    0    0    0  0.00000000000E+00  0.00000000000E+00  0.74505805969E-08  0.10566000000E+00  0.10566000000E+00 0.  1.
     999900   -1    0    0    0    0 -0.00000000000E+00 -0.00000000000E+00 -0.74505805969E-08  0.93827000000E+00  0.93827000000E+00 0. -1.
     999902    2    1    2    0    0  0.18674470600E-01  0.26857917873E-03  0.13465985041E-01  0.10209052147E+01  0.10206455391E+01 0.  0.
     999903    2    3    3    0    0  0.10963736704E+00 -0.37076408053E-01  0.64334280727E-01  0.13396864415E+00  0.20339263814E-01 0.  0.
         14    1    1    2    0    0 -0.18674470600E-01 -0.26857917873E-03 -0.13465985041E-01  0.23024785343E-01  0.00000000000E+00 0. -1.
     999901    1    3    3    0    0 -0.90962896441E-01  0.37344987232E-01 -0.50868295686E-01  0.88693657051E+00  0.88000000000E+00 0.  1.
        -11    1    4    4    0    0  0.91022513177E-01 -0.28890417198E-01  0.43797975744E-01  0.10506320912E+00  0.51100000000E-03 0. -1.
         11    1    4    4    0    0  0.18614853864E-01 -0.81859908548E-02  0.20536304983E-01  0.28905435025E-01  0.51100000000E-03 0.  1.
</event>
<event>
 8    1  0.1109294E+005  0.1043930E+01  0.7957747E-01            NaN
         13   -1    0    0    0    0  0.00000000000E+00  0.00000000000E+00  0.74505805969E-08  0.10566000000E+00  0.10566000000E+00 0. -1.
     999900   -1    0    0    0    0 -0.00000000000E+00 -0.00000000000E+00 -0.74505805969E-08  0.93827000000E+00  0.93827000000E+00 0. -1.
     999902    2    1    2    0    0 -0.22361815537E-01  0.70917411733E-02 -0.19217774749E-03  0.10204698099E+01  0.10202001041E+01 0.  0.
     999903    2    3    3    0    0  0.12162953149E+00  0.32414502624E-01 -0.14380148226E-01  0.12829491182E+00  0.20207741682E-01 0.  0.
         14    1    1    2    0    0  0.22361815537E-01 -0.70917411733E-02  0.19217774749E-03  0.23460190095E-01  0.00000000000E+00 0.  1.
     999901    1    3    3    0    0 -0.14399134703E+00 -0.25322761451E-01  0.14187970478E-01  0.89217489809E+00  0.88000000000E+00 0.  1.
        -11    1    4    4    0    0  0.38161977891E-01  0.55426302101E-02  0.37652379242E-02  0.38749134750E-01  0.51100000000E-03 0.  1.
         11    1    4    4    0    0  0.83467553603E-01  0.26871872414E-01 -0.18145386150E-01  0.89545777070E-01  0.51100000000E-03 0. -1.
</event>
<event>
 8    1  0.1109294E+005  0.1043930E+01  0.7957747E-01            NaN
         13   -1    0    0    0    0  0.00000000000E+00  0.00000000000E+00  0.74505805969E-08  0.10566000000E+00  0.10566000000E+00 0. -1.
     999900   -1    0    0    0    0 -0.00000000000E+00 -0.00000000000E+00 -0.74505805969E-08  0.93827000000E+00  0.93827000000E+00 0.  1.
     999902    2    1    2    0    0  0.39993796406E-02  0.35290114110E-02 -0.22696042124E-01  0.10206156420E+01  0.10203493174E+01 0.  0.
     999903    2    3    3    0    0 -0.43448044765E-01  0.10121800680E+00  0.65386569973E-01  0.12957527008E+00  0.19532782433E-01 0.  0.
         14    1    1    2    0    0 -0.39993796406E-02 -0.35290114110E-02  0.22696042124E-01  0.23314357962E-01  0.00000000000E+00 0. -1.
     999901    1    3    3    0    0  0.47447424406E-01 -0.97688995388E-01 -0.88082612097E-01  0.89104037196E+00  0.88000000000E+00 0.  1.
        -11    1    4    4    0    0 -0.96667811016E-02  0.25991356509E-01  0.26655207948E-01  0.38467629272E-01  0.51100000000E-03 0. -1.
         11    1    4    4    0    0 -0.33781263664E-01  0.75226650291E-01  0.38731362025E-01  0.91107640810E-01  0.51100000000E-03 0.  1.
</event>
<event>
 8    1  0.1109294E+005  0.1043930E+01  0.7957747E-01            NaN
         13   -1    0    0    0    0  0.00000000000E+00  0.00000000000E+00  0.74505805969E-08  0.10566000000E+00  0.10566000000E+00 0. -1.
     999900   -1    0    0    0    0 -0.00000000000E+00 -0.00000000000E+00 -0.74505805969E-08  0.93827000000E+00  0.93827000000E+00 0.  1.
     999902    2    1    2    0    0 -0.22786815423E-02  0.22473561428E-01  0.43807742213E-02  0.10209203382E+01  0.10206610076E+01 0.  0.
     999903    2    3    3    0    0 -0.81734138756E-01  0.86765781855E-01 -0.55435198487E-01  0.13298756492E+00  0.20096289556E-01 0.  0.
         14    1    1    2    0    0  0.22786815423E-02 -0.22473561428E-01 -0.43807742213E-02  0.23009661789E-01  0.00000000000E+00 0.  1.
     999901    1    3    3    0    0  0.79455457214E-01 -0.64292220426E-01  0.59815972708E-01  0.88793277329E+00  0.88000000000E+00 0.  1.
        -11    1    4    4    0    0 -0.55870494301E-01  0.45425493776E-01 -0.30295025888E-01  0.78121938870E-01  0.51100000000E-03 0. -1.
         11    1    4    4    0    0 -0.25863644455E-01  0.41340288079E-01 -0.25140172598E-01  0.54865626053E-01  0.51100000000E-03 0.  1.
</event>
<event>
 8    1  0.1109294E+005  0.1043930E+01  0.7957747E-01            NaN
         13   -1    0    0    0    0  0.00000000000E+00  0.00000000000E+00  0.74505805969E-08  0.10566000000E+00  0.10566000000E+00 0.  1.
     999900   -1    0    0    0    0 -0.00000000000E+00 -0.00000000000E+00 -0.74505805969E-08  0.93827000000E+00  0.93827000000E+00 0.  1.
     999902    2    1    2    0    0 -0.14963950025E-01  0.28734205570E-02 -0.18065075524E-01  0.10202969025E+01  0.10200231595E+01 0.  0.
     999903    2    3    3    0    0  0.77325100188E-01  0.37255309512E-01 -0.96959247726E-01  0.13129539881E+00  0.21685405738E-01 0.  0.
         14    1    1    2    0    0  0.14963950025E-01 -0.28734205570E-02  0.18065075524E-01  0.23633097548E-01  0.00000000000E+00 0.  1.
     999901    1    3    3    0    0 -0.92289050212E-01 -0.34381888955E-01  0.78894172202E-01  0.88900150365E+00  0.88000000000E+00 0. -1.
        -11    1    4    4    0    0  0.51780165236E-01  0.16711776525E-01 -0.71144910225E-01  0.89567451445E-01  0.51100000000E-03 0. -1.
         11    1    4    4    0    0  0.25544934952E-01  0.20543532987E-01 -0.25814337501E-01  0.41727947361E-01  0.51100000000E-03 0.  1.
</event>
<event>
 8    1  0.1109294E+005  0.1043930E+01  0.7957747E-01            NaN
         13   -1    0    0    0    0  0.00000000000E+00  0.00000000000E+00  0.74505805969E-08  0.10566000000E+00  0.10566000000E+00 0.  1.
     999900   -1    0    0    0    0 -0.00000000000E+00 -0.00000000000E+00 -0.74505805969E-08  0.93827000000E+00  0.93827000000E+00 0.  1.
     999902    2    1    2    0    0  0.27189734283E-02  0.22351807642E-01  0.97453469866E-02  0.10193949657E+01  0.10190996655E+01 0.  0.
     999903    2    3    3    0    0  0.10742752640E+00  0.57918799841E-01 -0.42892975564E-01  0.13091329170E+00  0.20080383138E-01 0.  0.
         14    1    1    2    0    0 -0.27189734283E-02 -0.22351807642E-01 -0.97453469866E-02  0.24535034323E-01  0.00000000000E+00 0. -1.
     999901    1    3    3    0    0 -0.10470855297E+00 -0.35566992199E-01  0.52638322550E-01  0.88848167398E+00  0.88000000000E+00 0.  1.
        -11    1    4    4    0    0  0.60085927969E-01  0.41860976661E-01 -0.19911361760E-01  0.75890602548E-01  0.51100000000E-03 0.  1.
         11    1    4    4    0    0  0.47341598429E-01  0.16057823180E-01 -0.22981613803E-01  0.55022689148E-01  0.51100000000E-03 0. -1.
</event>
<event>
 8    1  0.1109294E+005  0.1043930E+01  0.7957747E-01            NaN
         13   -1    0    0    0    0  0.00000000000E+00  0.00000000000E+00  0.74505805969E-08  0.10566000000E+00  0.10566000000E+00 0. -1.
     999900   -1    0    0    0    0 -0.00000000000E+00 -0.00000000000E+00 -0.74505805969E-08  0.93827000000E+00  0.93827000000E+00 0.  1.
     999902    2    1    2    0    0 -0.21176414659E-01  0.10879436520E-01 -0.65969154625E-03  0.10201132439E+01  0.10198351791E+01 0.  0.
     999903    2    3    3    0    0  0.11476658559E+00  0.21680463281E-01  0.49303575318E-01  0.12820882667E+00  0.19111489728E-01 0.  0.
         14    1    1    2    0    0  0.21176414659E-01 -0.10879436520E-01  0.65969154625E-03  0.23816756071E-01  0.00000000000E+00 0. -1.
     999901    1    3    3    0    0 -0.13594300025E+00 -0.10801026762E-01 -0.49963266865E-01  0.89190441726E+00  0.88000000000E+00 0.  1.
        -11    1    4    4    0    0  0.11930112721E-01 -0.19677664706E-02  0.96644334457E-02  0.15487481695E-01  0.51100000000E-03 0. -1.
         11    1    4    4    0    0  0.10283647287E+00  0.23648229752E-01  0.39639141873E-01  0.11272134497E+00  0.51100000000E-03 0.  1.
</event>
<event>
 8    1  0.1109294E+005  0.1043930E+01  0.7957747E-01            NaN
         13   -1    0    0    0    0  0.00000000000E+00  0.00000000000E+00  0.74505805969E-08  0.10566000000E+00  0.10566000000E+00 0.  1.
     999900   -1    0    0    0    0 -0.00000000000E+00 -0.00000000000E+00 -0.74505805969E-08  0.93827000000E+00  0.93827000000E+00 0. -1.
     999902    2    1    2    0    0  0.21771223437E-01  0.52821263761E-02 -0.78311467409E-02  0.10201978722E+01  0.10199218032E+01 0.  0.
     999903    2    3    3    0    0 -0.10944601381E+00  0.13730921283E-01  0.61207741944E-01  0.12775419690E+00  0.20193538934E-01 0.  0.
         14    1    1    2    0    0 -0.21771223437E-01 -0.52821263761E-02  0.78311467409E-02  0.23732127766E-01  0.00000000000E+00 0.  1.
     999901    1    3    3    0    0  0.13121723725E+00 -0.84487949073E-02 -0.69038888685E-01  0.89244367533E+00  0.88000000000E+00 0. -1.
        -11    1    4    4    0    0 -0.15625587064E-01  0.31966197886E-02  0.17603913210E-01  0.23759971180E-01  0.51100000000E-03 0.  1.
         11    1    4    4    0    0 -0.93820426745E-01  0.10534301495E-01  0.43603828733E-01  0.10399422572E+00  0.51100000000E-03 0. -1.
</event>
<event>
 8    1  0.1109294E+005  0.1043930E+01  0.7957747E-01            NaN
         13   -1    0    0    0    0  0.00000000000E+00  0.00000000000E+00  0.74505805969E-08  0.10566000000E+00  0.10566000000E+00 0.  1.
     999900   -1    0    0    0    0 -0.00000000000E+00 -0.00000000000E+00 -0.74505805969E-08  0.93827000000E+00  0.93827000000E+00 0.  1.
     999902    2    1    2    0    0  0.22044935978E-01 -0.70690714305E-02 -0.59910338941E-02  0.10200167514E+01  0.10197364020E+01 0.  0.
     999903    2    3    3    0    0  0.98636778992E-01  0.54952940504E-01 -0.66912014405E-01  0.13242202051E+00  0.17587893663E-01 0.  0.
         14    1    1    2    0    0 -0.22044935978E-01  0.70690714305E-02  0.59910338941E-02  0.23913248635E-01  0.00000000000E+00 0.  1.
     999901    1    3    3    0    0 -0.76591843015E-01 -0.62022011935E-01  0.60920980510E-01  0.88759473086E+00  0.88000000000E+00 0. -1.
        -11    1    4    4    0    0  0.37411017761E-01  0.15826502343E-01 -0.32493765425E-01  0.52020845234E-01  0.51100000000E-03 0. -1.
         11    1    4    4    0    0  0.61225761231E-01  0.39126438161E-01 -0.34418248979E-01  0.80401175273E-01  0.51100000000E-03 0.  1.
</event>
<event>
 8    1  0.1109294E+005  0.1043930E+01  0.7957747E-01            NaN
         13   -1    0    0    0    0  0.00000000000E+00  0.00000000000E+00  0.74505805969E-08  0.10566000000E+00  0.10566000000E+00 0. -1.
     999900   -1    0    0    0    0 -0.00000000000E+00 -0.00000000000E+00 -0.74505805969E-08  0.93827000000E+00  0.93827000000E+00 0.  1.
     999902    2    1    2    0    0  0.47698950686E-03  0.12802856125E-01 -0.20214663612E-01  0.10199973180E+01  0.10197165074E+01 0.  0.
     999903    2    3    3    0    0  0.33004668678E-01  0.12460336094E+00  0.16748195852E-01  0.13155843107E+00  0.20293176412E-01 0.  0.
         14    1    1    2    0    0 -0.47698950686E-03 -0.12802856125E-01  0.20214663612E-01  0.23932682025E-01  0.00000000000E+00 0.  1.
     999901    1    3    3    0    0 -0.32527679171E-01 -0.11180050481E+00 -0.36962859465E-01  0.88843888691E+00  0.88000000000E+00 0. -1.
        -11    1    4    4    0    0  0.21869858609E-01  0.10857790679E+00  0.11568917574E-01  0.11136226261E+00  0.51100000000E-03 0.  1.
         11    1    4    4    0    0  0.11134810069E-01  0.16025454150E-01  0.51792782784E-02  0.20196168460E-01  0.51100000000E-03 0. -1.
</event>
<event>
 8    1  0.1109294E+005  0.1043930E+01  0.7957747E-01            NaN
         13   -1    0    0    0    0  0.00000000000E+00  0.00000000000E+00  0.74505805969E-08  0.10566000000E+00  0.10566000000E+00 0.  1.
     999900   -1    0    0    0    0 -0.00000000000E+00 -0.00000000000E+00 -0.74505805969E-08  0.93827000000E+00  0.93827000000E+00 0. -1.
     999902    2    1    2    0    0  0.17900686287E-01 -0.52009643134E-02 -0.14275471130E-01  0.10204507821E+01  0.10201806335E+01 0.  0.
     999903    2    3    3    0    0 -0.37615453255E-01 -0.10887811991E+00 -0.60589523856E-01  0.13141985693E+00  0.18185738255E-01 0.  0.
         14    1    1    2    0    0 -0.17900686287E-01  0.52009643134E-02  0.14275471130E-01  0.23479217945E-01  0.00000000000E+00 0.  1.
     999901    1    3    3    0    0  0.55516139542E-01  0.10367715560E+00  0.46314052727E-01  0.88903092512E+00  0.88000000000E+00 0.  1.
        -11    1    4    4    0    0 -0.18899020971E-01 -0.36549740258E-01 -0.14474245485E-01  0.43621341222E-01  0.51100000000E-03 0. -1.
         11    1    4    4    0    0 -0.18716432284E-01 -0.72328379654E-01 -0.46115278372E-01  0.87798515711E-01  0.51100000000E-03 0.  1.
</event>
<event>
 8    1  0.1109294E+005  0.1043930E+01  0.7957747E-01            NaN
         13   -1    0    0    0    0  0.00000000000E+00  0.00000000000E+00  0.74505805969E-08  0.10566000000E+00  0.10566000000E+00 0. -1.
     999900   -1    0    0    0    0 -0.00000000000E+00 -0.00000000000E+00 -0.74505805969E-08  0.93827000000E+00  0.93827000000E+00 0.  1.
     999902    2    1    2    0    0 -0.18356768455E-01  0.10970214896E-01 -0.10962062407E-01  0.10198991162E+01  0.10196159688E+01 0.  0.
     999903    2    3    3    0    0  0.24851503809E-01  0.12448275871E+00 -0.27064982605E-01  0.13141087407E+00  0.20560887257E-01 0.  0.
         14    1    1    2    0    0  0.18356768455E-01 -0.10970214896E-01  0.10962062407E-01  0.24030883779E-01  0.00000000000E+00 0. -1.
     999901    1    3    3    0    0 -0.43208272264E-01 -0.11351254381E+00  0.16102920199E-01  0.88848824215E+00  0.88000000000E+00 0.  1.
        -11    1    4    4    0    0  0.21361112184E-01  0.63180894868E-01 -0.83379809612E-02  0.67215367570E-01  0.51100000000E-03 0.  1.
         11    1    4    4    0    0  0.34903916250E-02  0.61301863839E-01 -0.18727001644E-01  0.64195506505E-01  0.51100000000E-03 0. -1.
</event>
<event>
 8    1  0.1109294E+005  0.1043930E+01  0.7957747E-01            NaN
         13   -1    0    0    0    0  0.00000000000E+00  0.00000000000E+00  0.74505805969E-08  0.10566000000E+00  0.10566000000E+00 0. -1.
     999900   -1    0    0    0    0 -0.00000000000E+00 -0.00000000000E+00 -0.74505805969E-08  0.93827000000E+00  0.93827000000E+00 0.  1.
     999902    2    1    2    0    0 -0.72056155581E-02 -0.90844976314E-02  0.20510177040E-01  0.10203690927E+01  0.10200970390E+01 0.  0.
     999903    2    3    3    0    0  0.99312337883E-01 -0.34697018400E-01  0.76842043296E-01  0.13178856463E+00  0.19917394603E-01 0.  0.
         14    1    1    2    0    0  0.72056155581E-02  0.90844976314E-02 -0.20510177040E-01  0.23560907347E-01  0.00000000000E+00 0.  1.
     999901    1    3    3    0    0 -0.10651795344E+00  0.25612520769E-01 -0.56331866256E-01  0.88858052802E+00  0.88000000000E+00 0.  1.
        -11    1    4    4    0    0  0.32078817170E-01 -0.31122699447E-02  0.29541657881E-01  0.43723076362E-01  0.51100000000E-03 0. -1.
         11    1    4    4    0    0  0.67233520713E-01 -0.31584748456E-01  0.47300385416E-01  0.88065488268E-01  0.51100000000E-03 0.  1.
</event>
<event>
 8    1  0.1109294E+005  0.1043930E+01  0.7957747E-01            NaN
         13   -1    0    0    0    0  0.00000000000E+00  0.00000000000E+00  0.74505805969E-08  0.10566000000E+00  0.10566000000E+00 0.  1.
     999900   -1    0    0    0    0 -0.00000000000E+00 -0.00000000000E+00 -0.74505805969E-08  0.93827000000E+00  0.93827000000E+00 0. -1.
     999902    2    1    2    0    0  0.47782531745E-02 -0.10227628987E-02  0.28456148623E-01  0.10150573461E+01  0.10146466310E+01 0.  0.
     999903    2    3    3    0    0 -0.11913216808E+00 -0.33407773890E-01  0.88051589896E-04  0.12533416987E+00  0.20002338807E-01 0.  0.
         14    1    1    2    0    0 -0.47782531745E-02  0.10227628987E-02 -0.28456148623E-01  0.28872653875E-01  0.00000000000E+00 0. -1.
     999901    1    3    3    0    0  0.12391042125E+00  0.32385010992E-01  0.28368097033E-01  0.88972317625E+00  0.88000000000E+00 0. -1.
        -11    1    4    4    0    0 -0.86814164125E-01 -0.23720626223E-01 -0.88384877844E-02  0.90430897311E-01  0.51100000000E-03 0. -1.
         11    1    4    4    0    0 -0.32318003951E-01 -0.96871476676E-02  0.89265393743E-02  0.34903272561E-01  0.51100000000E-03 0.  1.
</event>
<event>
 8    1  0.1109294E+005  0.1043930E+01  0.7957747E-01            NaN
         13   -1    0    0    0    0  0.00000000000E+00  0.00000000000E+00  0.74505805969E-08  0.10566000000E+00  0.10566000000E+00 0. -1.
     999900   -1    0    0    0    0 -0.00000000000E+00 -0.00000000000E+00 -0.74505805969E-08  0.93827000000E+00  0.93827000000E+00 0.  1.
     999902    2    1    2    0    0  0.15713274585E-01 -0.10093649437E-01 -0.13481856542E-01  0.10208963461E+01  0.10206364682E+01 0.  0.
     999903    2    3    3    0    0 -0.43043365517E-01 -0.11377975650E+00  0.44678486174E-01  0.13096051861E+00  0.18866001251E-01 0.  0.
         14    1    1    2    0    0 -0.15713274585E-01  0.10093649437E-01  0.13481856542E-01  0.23033653921E-01  0.00000000000E+00 0. -1.
     999901    1    3    3    0    0  0.58756640102E-01  0.10368610706E+00 -0.58160342717E-01  0.88993582747E+00  0.88000000000E+00 0.  1.
        -11    1    4    4    0    0 -0.25046173750E-01 -0.49340706802E-01  0.27948637447E-01  0.61993577276E-01  0.51100000000E-03 0. -1.
         11    1    4    4    0    0 -0.17997191767E-01 -0.64439049695E-01  0.16729848727E-01  0.68966941331E-01  0.51100000000E-03 0.  1.
</event>
<event>
 8    1  0.1109294E+005  0.1043930E+01  0.7957747E-01            NaN
         13   -1    0    0    0    0  0.00000000000E+00  0.00000000000E+00  0.74505805969E-08  0.10566000000E+00  0.10566000000E+00 0.  1.
     999900   -1    0    0    0    0 -0.00000000000E+00 -0.00000000000E+00 -0.74505805969E-08  0.93827000000E+00  0.93827000000E+00 0.  1.
     999902    2    1    2    0    0 -0.14086555986E-01 -0.20628652735E-01  0.49053498678E-02  0.10184734717E+01  0.10181552818E+01 0.  0.
     999903    2    3    3    0    0  0.67129516143E-01 -0.88050058892E-01 -0.64056056768E-01  0.12948676095E+00  0.20111142262E-01 0.  0.
         14    1    1    2    0    0  0.14086555986E-01  0.20628652735E-01 -0.49053498678E-02  0.25456528250E-01  0.00000000000E+00 0.  1.
     999901    1    3    3    0    0 -0.81216072129E-01  0.67421406157E-01  0.68961406636E-01  0.88898671080E+00  0.88000000000E+00 0. -1.
        -11    1    4    4    0    0  0.18891850594E-01 -0.35633097635E-01 -0.31428820621E-01  0.51133663594E-01  0.51100000000E-03 0.  1.
         11    1    4    4    0    0  0.48237665548E-01 -0.52416961258E-01 -0.32627236148E-01  0.78353097352E-01  0.51100000000E-03 0. -1.
</event>
<event>
 8    1  0.1109294E+005  0.1043930E+01  0.7957747E-01            NaN
         13   -1    0    0    0    0  0.00000000000E+00  0.00000000000E+00  0.74505805969E-08  0.10566000000E+00  0.10566000000E+00 0. -1.
     999900   -1    0    0    0    0 -0.00000000000E+00 -0.00000000000E+00 -0.74505805969E-08  0.93827000000E+00  0.93827000000E+00 0. -1.
     999902    2    1    2    0    0  0.90498256269E-02  0.18565006654E-01  0.10755707392E-01  0.10206438656E+01  0.10203781927E+01 0.  0.
     999903    2    3    3    0    0  0.28737846557E-01  0.12215863974E+00 -0.39230182815E-01  0.13294017163E+00  0.19633769421E-01 0.  0.
         14    1    1    2    0    0 -0.90498256269E-02 -0.18565006654E-01 -0.10755707392E-01  0.23286134446E-01  0.00000000000E+00 0.  1.
     999901    1    3    3    0    0 -0.19688020930E-01 -0.10359363309E+00  0.49985890207E-01  0.88770369392E+00  0.88000000000E+00 0.  1.
        -11    1    4    4    0    0  0.27812304345E-01  0.77485371908E-01 -0.24759764056E-01  0.85969844537E-01  0.51100000000E-03 0.  1.
         11    1    4    4    0    0  0.92554221169E-03  0.44673267833E-01 -0.14470418759E-01  0.46970327094E-01  0.51100000000E-03 0. -1.
</event>
<event>
 8    1  0.1109294E+005  0.1043930E+01  0.7957747E-01            NaN
         13   -1    0    0    0    0  0.00000000000E+00  0.00000000000E+00  0.74505805969E-08  0.10566000000E+00  0.10566000000E+00 0.  1.
     999900   -1    0    0    0    0 -0.00000000000E+00 -0.00000000000E+00 -0.74505805969E-08  0.93827000000E+00  0.93827000000E+00 0.  1.
     999902    2    1    2    0    0 -0.29863777705E-02  0.23036943691E-01 -0.74741099276E-02  0.10195275094E+01  0.10192354296E+01 0.  0.
     999903    2    3    3    0    0  0.10878469437E+00 -0.42342448429E-02 -0.67981876704E-01  0.12997836513E+00  0.20513441520E-01 0.  0.
         14    1    1    2    0    0  0.29863777705E-02 -0.23036943691E-01  0.74741099276E-02  0.24402490570E-01  0.00000000000E+00 0.  1.
     999901    1    3    3    0    0 -0.11177107214E+00  0.27271188534E-01  0.60507766776E-01  0.88954914430E+00  0.88000000000E+00 0.  1.
        -11    1    4    4    0    0  0.19464956001E-01 -0.25740477170E-02 -0.22037333602E-01  0.29519746392E-01  0.51100000000E-03 0.  1.
         11    1    4    4    0    0  0.89319738366E-01 -0.16601971259E-02 -0.45944543101E-01  0.10045861873E+00  0.51100000000E-03 0. -1.
</event>
<event>
 8    1  0.1109294E+005  0.1043930E+01  0.7957747E-01            NaN
         13   -1    0    0    0    0  0.00000000000E+00  0.00000000000E+00  0.74505805969E-08  0.10566000000E+00  0.10566000000E+00 0. -1.
     999900   -1    0    0    0    0 -0.00000000000E+00 -0.00000000000E+00 -0.74505805969E-08  0.93827000000E+00  0.93827000000E+00 0. -1.
     999902    2    1    2    0    0 -0.21442724344E-01  0.95990603144E-02  0.43083355524E-02  0.10200449808E+01  0.10197653008E+01 0.  0.
     999903    2    3    3    0    0 -0.98864494094E-01  0.53561027978E-01  0.68660676161E-01  0.13321466516E+00  0.19720209206E-01 0.  0.
         14    1    1    2    0    0  0.21442724344E-01 -0.95990603144E-02 -0.43083355524E-02  0.23885019184E-01  0.00000000000E+00 0.  1.
     999901    1    3    3    0    0  0.77421769750E-01 -0.43961967663E-01 -0.64352340609E-01  0.88683031566E+00  0.88000000000E+00 0.  1.
        -11    1    4    4    0    0 -0.74469067019E-01  0.46444421855E-01  0.60190360452E-01  0.10642305613E+00  0.51100000000E-03 0.  1.
         11    1    4    4    0    0 -0.24395427075E-01  0.71166061230E-02  0.84703157097E-02  0.26791609024E-01  0.51100000000E-03 0. -1.
</event>
<event>
 8    1  0.1109294E+005  0.1043930E+01  0.7957747E-01            NaN
         13   -1    0    0    0    0  0.00000000000E+00  0.00000000000E+00  0.74505805969E-08  0.10566000000E+00  0.10566000000E+00 0. -1.
     999900   -1    0    0    0    0 -0.00000000000E+00 -0.00000000000E+00 -0.74505805969E-08  0.93827000000E+00  0.93827000000E+00 0. -1.
     999902    2    1    2    0    0 -0.26270933068E-02 -0.15598140356E-01 -0.17473599602E-01  0.10203603100E+01  0.10200880511E+01 0.  0.
     999903    2    3    3    0    0 -0.49648575680E-01 -0.78177347816E-01 -0.94523109306E-01  0.13353236508E+00  0.17877235605E-01 0.  0.
         14    1    1    2    0    0  0.26270933068E-02  0.15598140356E-01  0.17473599602E-01  0.23569689961E-01  0.00000000000E+00 0. -1.
     999901    1    3    3    0    0  0.47021482373E-01  0.62579207460E-01  0.77049509704E-01  0.88682794496E+00  0.88000000000E+00 0.  1.
        -11    1    4    4    0    0 -0.38487002751E-01 -0.71749871371E-01 -0.81004652145E-01  0.11485342055E+00  0.51100000000E-03 0.  1.
         11    1    4    4    0    0 -0.11161572930E-01 -0.64274764447E-02 -0.13518457161E-01  0.18678944529E-01  0.51100000000E-03 0. -1.
</event>
<event>
 8    1  0.1109294E+005  0.1043930E+01  0.7957747E-01            NaN
         13   -1    0    0    0    0  0.00000000000E+00  0.00000000000E+00  0.74505805969E-08  0.10566000000E+00  0.10566000000E+00 0.  1.
     999900   -1    0    0    0    0 -0.00000000000E+00 -0.00000000000E+00 -0.74505805969E-08  0.93827000000E+00  0.93827000000E+00 0.  1.
     999902    2    1    2    0    0 -0.10893752574E-01  0.11002570886E-01 -0.17942429217E-01  0.10202306081E+01  0.10199553091E+01 0.  0.
     999903    2    3    3    0    0  0.12160993302E+00 -0.66913953570E-02 -0.39932065505E-01  0.12986335394E+00  0.20884689592E-01 0.  0.
         14    1    1    2    0    0  0.10893752574E-01 -0.11002570886E-01  0.17942429217E-01  0.23699391922E-01  0.00000000000E+00 0.  1.
     999901    1    3    3    0    0 -0.13250368560E+00  0.17693966243E-01  0.21989636287E-01  0.89036725414E+00  0.88000000000E+00 0.  1.
        -11    1    4    4    0    0  0.18935968723E-01  0.62625019493E-02 -0.86864705204E-02  0.21760186885E-01  0.51100000000E-03 0. -1.
         11    1    4    4    0    0  0.10267396430E+00 -0.12953897306E-01 -0.31245594984E-01  0.10810316706E+00  0.51100000000E-03 0.  1.
</event>
<event>
 8    1  0.1109294E+005  0.1043930E+01  0.7957747E-01            NaN
         13   -1    0    0    0    0  0.00000000000E+00  0.00000000000E+00  0.74505805969E-08  0.10566000000E+00  0.10566000000E+00 0.  1.
     999900   -1    0    0    0    0 -0.00000000000E+00 -0.00000000000E+00 -0.74505805969E-08  0.93827000000E+00  0.93827000000E+00 0.  1.
     999902    2    1    2    0    0 -0.28073065634E-03 -0.16122098077E-01  0.16342804543E-01  0.10209716003E+01  0.10207134370E+01 0.  0.
     999903    2    3    3    0    0  0.10026656824E+00  0.33179550223E-01  0.77953755514E-01  0.13173804206E+00  0.11129082020E-01 0.  0.
         14    1    1    2    0    0  0.28073065634E-03  0.16122098077E-01 -0.16342804543E-01  0.22958399693E-01  0.00000000000E+00 0. -1.
     999901    1    3    3    0    0 -0.10054729890E+00 -0.49301648300E-01 -0.61610950971E-01  0.88923355825E+00  0.88000000000E+00 0. -1.
        -11    1    4    4    0    0  0.18244952550E-01  0.35102971817E-02  0.18168206424E-01  0.25991254789E-01  0.51100000000E-03 0.  1.
         11    1    4    4    0    0  0.82021615690E-01  0.29669253041E-01  0.59785549090E-01  0.10574678727E+00  0.51100000000E-03 0. -1.
</event>
<event>
 7    1  0.1109294E+005  0.1043930E+01  0.7957747E-01            NaN
         13   -1    0    0    0    0  0.00000000000E+00  0.00000000000E+00  0.74505805969E-08  0.10566000000E+00  0.10566000000E+00 0.  1.
     999900   -1    0    0    0    0 -0.00000000000E+00 -0.00000000000E+00 -0.74505805969E-08  0.93827000000E+00  0.93827000000E+00 0. -1.
     999903    2    1    2    0    0  0.42976966737E-01  0.28532624863E-01  0.40230297336E-01  0.68557493651E-01  0.20506651613E-01 0.  0.
         14    1    1    2    0    0 -0.51496472770E-01 -0.68811971858E-01  0.31397454567E-01  0.91502865157E-01  0.00000000000E+00 0.  1.
     999901    1    1    2    0    0  0.85195060323E-02  0.40279346994E-01 -0.71627751904E-01  0.88386964119E+00  0.88000000000E+00 0. -1.
        -11    1    3    3    0    0  0.25825212192E-02  0.88802284755E-04  0.10653740854E-01  0.10974544039E-01  0.51100000000E-03 0.  1.
         11    1    3    3    0    0  0.40394445518E-01  0.28443822579E-01  0.29576556483E-01  0.57582949612E-01  0.51100000000E-03 0. -1.
</event>
<event>
 8    1  0.1109294E+005  0.1043930E+01  0.7957747E-01            NaN
         13   -1    0    0    0    0  0.00000000000E+00  0.00000000000E+00  0.74505805969E-08  0.10566000000E+00  0.10566000000E+00 0. -1.
     999900   -1    0    0    0    0 -0.00000000000E+00 -0.00000000000E+00 -0.74505805969E-08  0.93827000000E+00  0.93827000000E+00 0.  1.
     999902    2    1    2    0    0 -0.14244278079E-01  0.94042425807E-02 -0.17130137734E-01  0.10197477574E+01  0.10194609889E+01 0.  0.
     999903    2    3    3    0    0 -0.57219553207E-01  0.11645506904E+00  0.12030547508E-01  0.13174038175E+00  0.19363205680E-01 0.  0.
         14    1    1    2    0    0  0.14244278079E-01 -0.94042425807E-02  0.17130137734E-01  0.24182242562E-01  0.00000000000E+00 0. -1.
     999901    1    3    3    0    0  0.42975275127E-01 -0.10705082646E+00 -0.29160685242E-01  0.88800737569E+00  0.88000000000E+00 0. -1.
        -11    1    4    4    0    0 -0.16779147649E-01  0.48046127094E-01 -0.24881076203E-02  0.50955097145E-01  0.51100000000E-03 0.  1.
         11    1    4    4    0    0 -0.40440405558E-01  0.68408941950E-01  0.14518655128E-01  0.80785284602E-01  0.51100000000E-03 0. -1.
</event>
<event>
 8    1  0.1109294E+005  0.1043930E+01  0.7957747E-01            NaN
         13   -1    0    0    0    0  0.00000000000E+00  0.00000000000E+00  0.74505805969E-08  0.10566000000E+00  0.10566000000E+00 0.  1.
     999900   -1    0    0    0    0 -0.00000000000E+00 -0.00000000000E+00 -0.74505805969E-08  0.93827000000E+00  0.93827000000E+00 0.  1.
     999902    2    1    2    0    0  0.62358932061E-03 -0.22391650134E-01  0.29624328921E-02  0.10213346273E+01  0.10210846537E+01 0.  0.
     999903    2    3    3    0    0 -0.89959532813E-02  0.98861639317E-02  0.12939388482E+00  0.13166092029E+00  0.20326266028E-01 0.  0.
         14    1    1    2    0    0 -0.62358932061E-03  0.22391650134E-01 -0.29624328921E-02  0.22595372712E-01  0.00000000000E+00 0. -1.
     999901    1    3    3    0    0  0.96195426019E-02 -0.32277814065E-01 -0.12643145193E+00  0.88967370699E+00  0.88000000000E+00 0.  1.
        -11    1    4    4    0    0 -0.14601446147E-01  0.94769373382E-02  0.11273236099E+00  0.11406954417E+00  0.51100000000E-03 0.  1.
         11    1    4    4    0    0  0.56054928653E-02  0.40922659349E-03  0.16661523829E-01  0.17591376125E-01  0.51100000000E-03 0. -1.
</event>
<event>
 8    1  0.1109294E+005  0.1043930E+01  0.7957747E-01            NaN
         13   -1    0    0    0    0  0.00000000000E+00  0.00000000000E+00  0.74505805969E-08  0.10566000000E+00  0.10566000000E+00 0. -1.
     999900   -1    0    0    0    0 -0.00000000000E+00 -0.00000000000E+00 -0.74505805969E-08  0.93827000000E+00  0.93827000000E+00 0.  1.
     999902    2    1    2    0    0 -0.13090345021E-01 -0.22319558538E-02  0.20596373741E-01  0.10194238912E+01  0.10191292953E+01 0.  0.
     999903    2    3    3    0    0 -0.29684306840E-01 -0.65426166688E-01  0.10966167788E+00  0.13251831768E+00  0.19330793202E-01 0.  0.
         14    1    1    2    0    0  0.13090345021E-01  0.22319558538E-02 -0.20596373741E-01  0.24506108850E-01  0.00000000000E+00 0.  1.
     999901    1    3    3    0    0  0.16593961819E-01  0.63194210835E-01 -0.89065304136E-01  0.88690557347E+00  0.88000000000E+00 0.  1.
        -11    1    4    4    0    0  0.21805533005E-02 -0.14683924313E-02  0.21941408682E-02  0.34621328944E-02  0.51100000000E-03 0.  1.
         11    1    4    4    0    0 -0.31864860141E-01 -0.63957774257E-01  0.10746753701E+00  0.12905618479E+00  0.51100000000E-03 0. -1.
</event>
<event>
 8    1  0.1109294E+005  0.1043930E+01  0.7957747E-01            NaN
         13   -1    0    0    0    0  0.00000000000E+00  0.00000000000E+00  0.74505805969E-08  0.10566000000E+00  0.10566000000E+00 0. -1.
     999900   -1    0    0    0    0 -0.00000000000E+00 -0.00000000000E+00 -0.74505805969E-08  0.93827000000E+00  0.93827000000E+00 0. -1.
     999902    2    1    2    0    0 -0.24448881776E-01 -0.18704209089E-02  0.71123630933E-03  0.10193993630E+01  0.10191041699E+01 0.  0.
     999903    2    3    3    0    0 -0.35428178194E-01 -0.11757819412E+00  0.41093942085E-01  0.13083895613E+00  0.18717179872E-01 0.  0.
         14    1    1    2    0    0  0.24448881776E-01  0.18704209089E-02 -0.71123630933E-03  0.24530636998E-01  0.00000000000E+00 0. -1.
     999901    1    3    3    0    0  0.10979296418E-01  0.11570777321E+00 -0.40382705775E-01  0.88856040687E+00  0.88000000000E+00 0. -1.
        -11    1    4    4    0    0 -0.25634888547E-01 -0.78071654572E-01  0.18304435792E-01  0.84188147913E-01  0.51100000000E-03 0. -1.
         11    1    4    4    0    0 -0.97932896469E-02 -0.39506539550E-01  0.22789506293E-01  0.46650808218E-01  0.51100000000E-03 0.  1.
</event>
<event>
 8    1  0.1109294E+005  0.1043930E+01  0.7957747E-01            NaN
         13   -1    0    0    0    0  0.00000000000E+00  0.00000000000E+00  0.74505805969E-08  0.10566000000E+00  0.10566000000E+00 0. -1.
     999900   -1    0    0    0    0 -0.00000000000E+00 -0.00000000000E+00 -0.74505805969E-08  0.93827000000E+00  0.93827000000E+00 0. -1.
     999902    2    1    2    0    0  0.13510436172E-01  0.17106182500E-01  0.10849203553E-01  0.10195813125E+01  0.10192905347E+01 0.  0.
     999903    2    3    3    0    0  0.11550153984E+00  0.31049866538E-01  0.53568585652E-01  0.13255168664E+00  0.19891112207E-01 0.  0.
         14    1    1    2    0    0 -0.13510436172E-01 -0.17106182500E-01 -0.10849203553E-01  0.24348687501E-01  0.00000000000E+00 0.  1.
     999901    1    3    3    0    0 -0.10199110366E+00 -0.13943684038E-01 -0.42719382099E-01  0.88702962586E+00  0.88000000000E+00 0. -1.
        -11    1    4    4    0    0  0.43919580699E-01  0.20933543579E-01  0.26098744238E-01  0.55213661238E-01  0.51100000000E-03 0.  1.
         11    1    4    4    0    0  0.71581959137E-01  0.10116322958E-01  0.27469841414E-01  0.77338025398E-01  0.51100000000E-03 0. -1.
</event>
<event>
 8    1  0.1109294E+005  0.1043930E+01  0.7957747E-01            NaN
         13   -1    0    0    0    0  0.00000000000E+00  0.00000000000E+00  0.74505805969E-08  0.10566000000E+00  0.10566000000E+00 0.  1.
     999900   -1    0    0    0    0 -0.00000000000E+00 -0.00000000000E+00 -0.74505805969E-08  0.93827000000E+00  0.93827000000E+00 0. -1.
     999902    2    1    2    0    0 -0.48040532884E-02  0.30253852871E-01  0.81737658979E-02  0.10122253475E+01  0.10117287033E+01 0.  0.
     999903    2    3    3    0    0 -0.38701777957E-01 -0.38143708694E-01  0.10857624251E+00  0.12323269315E+00  0.21088529933E-01 0.  0.
         14    1    1    2    0    0  0.48040532884E-02 -0.30253852871E-01 -0.81737658979E-02  0.31704652505E-01  0.00000000000E+00 0. -1.
     999901    1    3    3    0    0  0.33897724668E-01  0.68397561565E-01 -0.10040247661E+00  0.88899265434E+00  0.88000000000E+00 0. -1.
        -11    1    4    4    0    0 -0.86242059904E-02 -0.23051031900E-01  0.47273437291E-01  0.53298836713E-01  0.51100000000E-03 0. -1.
         11    1    4    4    0    0 -0.30077571966E-01 -0.15092676794E-01  0.61302805216E-01  0.69933856439E-01  0.51100000000E-03 0.  1.
</event>
<event>
 8    1  0.1109294E+005  0.1043930E+01  0.7957747E-01            NaN
         13   -1    0    0    0    0  0.00000000000E+00  0.00000000000E+00  0.74505805969E-08  0.10566000000E+00  0.10566000000E+00 0. -1.
     999900   -1    0    0    0    0 -0.00000000000E+00 -0.00000000000E+00 -0.74505805969E-08  0.93827000000E+00  0.93827000000E+00 0. -1.
     999902    2    1    2    0    0 -0.19548163185E-01  0.24949605929E-02 -0.13317256719E-01  0.10201454496E+01  0.10198681451E+01 0.  0.
     999903    2    3    3    0    0  0.10108895144E+00 -0.56950273016E-01  0.49464091164E-01  0.12771699482E+00  0.20065511482E-01 0.  0.
         14    1    1    2    0    0  0.19548163185E-01 -0.24949605929E-02  0.13317256719E-01  0.23784550422E-01  0.00000000000E+00 0. -1.
     999901    1    3    3    0    0 -0.12063711462E+00  0.59445233609E-01 -0.62781347882E-01  0.89242845476E+00  0.88000000000E+00 0.  1.
        -11    1    4    4    0    0  0.69048726214E-01 -0.31910959379E-01  0.40082072663E-01  0.85981798017E-01  0.51100000000E-03 0.  1.
         11    1    4    4    0    0  0.32040225226E-01 -0.25039313636E-01  0.93820185006E-02  0.41735196801E-01  0.51100000000E-03 0. -1.
</event>
<event>
 8    1  0.1109294E+005  0.1043930E+01  0.7957747E-01            NaN
         13   -1    0    0    0    0  0.00000000000E+00  0.00000000000E+00  0.74505805969E-08  0.10566000000E+00  0.10566000000E+00 0.  1.
     999900   -1    0    0    0    0 -0.00000000000E+00 -0.00000000000E+00 -0.74505805969E-08  0.93827000000E+00  0.93827000000E+00 0.  1.
     999902    2    1    2    0    0  0.90440550212E-02  0.75617699588E-02  0.20859957327E-01  0.10199693423E+01  0.10196878670E+01 0.  0.
     999903    2    3    3    0    0 -0.51708778872E-01  0.53345811563E-01 -0.10242236365E+00  0.12812540085E+00  0.20154511775E-01 0.  0.
         14    1    1    2    0    0 -0.90440550212E-02 -0.75617699588E-02 -0.20859957327E-01  0.23960657667E-01  0.00000000000E+00 0. -1.
     999901    1    3    3    0    0  0.60752833893E-01 -0.45784041604E-01  0.12328232097E+00  0.89184394148E+00  0.88000000000E+00 0. -1.
        -11    1    4    4    0    0 -0.25736098340E-01  0.26995411704E-01 -0.34659673135E-01  0.50918101630E-01  0.51100000000E-03 0. -1.
         11    1    4    4    0    0 -0.25972680532E-01  0.26350399858E-01 -0.67762690512E-01  0.77207299222E-01  0.51100000000E-03 0.  1.
</event>
<event>
 8    1  0.1109294E+005  0.1043930E+01  0.7957747E-01            NaN
         13   -1    0    0    0    0  0.00000000000E+00  0.00000000000E+00  0.74505805969E-08  0.10566000000E+00  0.10566000000E+00 0.  1.
     999900   -1    0    0    0    0 -0.00000000000E+00 -0.00000000000E+00 -0.74505805969E-08  0.93827000000E+00  0.93827000000E+00 0.  1.
     999902    2    1    2    0    0  0.37355584838E-02  0.11259934359E-01  0.18969977831E-01  0.10215558949E+01  0.10213108468E+01 0.  0.
     999903    2    3    3    0    0  0.67019848439E-01 -0.10828476869E+00 -0.19423018528E-01  0.13039381116E+00  0.20200027836E-01 0.  0.
         14    1    1    2    0    0 -0.37355584838E-02 -0.11259934359E-01 -0.18969977831E-01  0.22374105074E-01  0.00000000000E+00 0.  1.
     999901    1    3    3    0    0 -0.63284289955E-01  0.11954470305E+00  0.38392996359E-01  0.89116208377E+00  0.88000000000E+00 0. -1.
        -11    1    4    4    0    0  0.38967247169E-01 -0.49405071459E-01 -0.16749348360E-01  0.65116121117E-01  0.51100000000E-03 0.  1.
         11    1    4    4    0    0  0.28052601270E-01 -0.58879697227E-01 -0.26736701687E-02  0.65277690038E-01  0.51100000000E-03 0. -1.
</event>
<event>
 8    1  0.1109294E+005  0.1043930E+01  0.7957747E-01            NaN
         13   -1    0    0    0    0  0.00000000000E+00  0.00000000000E+00  0.74505805969E-08  0.10566000000E+00  0.10566000000E+00 0.  1.
     999900   -1    0    0    0    0 -0.00000000000E+00 -0.00000000000E+00 -0.74505805969E-08  0.93827000000E+00  0.93827000000E+00 0.  1.
     999902    2    1    2    0    0 -0.12517851069E-01 -0.21680781082E-01 -0.25724447595E-02  0.10187631501E+01  0.10184522500E+01 0.  0.
     999903    2    3    3    0    0 -0.69057576236E-01 -0.59458969213E-02  0.10814462255E+00  0.12988599539E+00  0.19256424568E-01 0.  0.
         14    1    1    2    0    0  0.12517851069E-01  0.21680781082E-01  0.25724447595E-02  0.25166849937E-01  0.00000000000E+00 0. -1.
     999901    1    3    3    0    0  0.56539725167E-01 -0.15734884160E-01 -0.11071706731E+00  0.88887715467E+00  0.88000000000E+00 0.  1.
        -11    1    4    4    0    0 -0.41749791717E-01  0.52513482814E-02  0.69659541611E-01  0.81383872024E-01  0.51100000000E-03 0. -1.
         11    1    4    4    0    0 -0.27307784520E-01 -0.11197245203E-01  0.38485080938E-01  0.48502123369E-01  0.51100000000E-03 0.  1.
</event>
<event>
 8    1  0.1109294E+005  0.1043930E+01  0.7957747E-01            NaN
         13   -1    0    0    0    0  0.00000000000E+00  0.00000000000E+00  0.74505805969E-08  0.10566000000E+00  0.10566000000E+00 0.  1.
     999900   -1    0    0    0    0 -0.00000000000E+00 -0.00000000000E+00 -0.74505805969E-08  0.93827000000E+00  0.93827000000E+00 0. -1.
     999902    2    1    2    0    0 -0.13008289478E-01 -0.19068303704E-01 -0.19791241739E-02  0.10207625070E+01  0.10204995654E+01 0.  0.
     999903    2    3    3    0    0  0.64791730394E-01  0.34900089921E-01 -0.10484383874E+00  0.12972570631E+00  0.20507163462E-01 0.  0.
         14    1    1    2    0    0  0.13008289478E-01  0.19068303704E-01  0.19791241739E-02  0.23167493041E-01  0.00000000000E+00 0. -1.
     999901    1    3    3    0    0 -0.77800019872E-01 -0.53968393626E-01  0.10286471456E+00  0.89103680065E+00  0.88000000000E+00 0.  1.
        -11    1    4    4    0    0  0.15027599842E-01  0.18698950271E-01 -0.30503328041E-01  0.38809710652E-01  0.51100000000E-03 0.  1.
         11    1    4    4    0    0  0.49764130552E-01  0.16201139650E-01 -0.74340510697E-01  0.90915995662E-01  0.51100000000E-03 0. -1.
</event>
<event>
 8    1  0.1109294E+005  0.1043930E+01  0.7957747E-01            NaN
         13   -1    0    0    0    0  0.00000000000E+00  0.00000000000E+00  0.74505805969E-08  0.10566000000E+00  0.10566000000E+00 0.  1.
     999900   -1    0    0    0    0 -0.00000000000E+00 -0.00000000000E+00 -0.74505805969E-08  0.93827000000E+00  0.93827000000E+00 0. -1.
     999902    2    1    2    0    0 -0.17356861520E-01 -0.22369246818E-02  0.16722724721E-01  0.10197243396E+01  0.10194370087E+01 0.  0.
     999903    2    3    3    0    0 -0.11672798873E+00  0.56890500979E-01 -0.10438377987E-01  0.13174438549E+00  0.19638505979E-01 0.  0.
         14    1    1    2    0    0  0.17356861520E-01  0.22369246818E-02 -0.16722724721E-01  0.24205660411E-01  0.00000000000E+00 0. -1.
     999901    1    3    3    0    0  0.99371127212E-01 -0.59127425661E-01  0.27161102708E-01  0.88797995410E+00  0.88000000000E+00 0.  1.
        -11    1    4    4    0    0 -0.44614864880E-01  0.27186921094E-01  0.40975593618E-02  0.52408643949E-01  0.51100000000E-03 0. -1.
         11    1    4    4    0    0 -0.72113123852E-01  0.29703579885E-01 -0.14535937349E-01  0.79335741537E-01  0.51100000000E-03 0.  1.
</event>
<event>
 8    1  0.1109294E+005  0.1043930E+01  0.7957747E-01            NaN
         13   -1    0    0    0    0  0.00000000000E+00  0.00000000000E+00  0.74505805969E-08  0.10566000000E+00  0.10566000000E+00 0.  1.
     999900   -1    0    0    0    0 -0.00000000000E+00 -0.00000000000E+00 -0.74505805969E-08  0.93827000000E+00  0.93827000000E+00 0.  1.
     999902    2    1    2    0    0 -0.88074672308E-02 -0.20397331036E-01  0.77939468796E-02  0.10203849750E+01  0.10201132923E+01 0.  0.
     999903    2    3    3    0    0  0.35153084438E-01 -0.11788943279E+00 -0.44254404812E-01  0.13238369637E+00  0.20816652226E-01 0.  0.
         14    1    1    2    0    0  0.88074672308E-02  0.20397331036E-01 -0.77939468796E-02  0.23545024960E-01  0.00000000000E+00 0. -1.
     999901    1    3    3    0    0 -0.43960551669E-01  0.97492101755E-01  0.52048351691E-01  0.88800127867E+00  0.88000000000E+00 0.  1.
        -11    1    4    4    0    0  0.21303880529E-01 -0.94470309613E-01 -0.40262377796E-01  0.10488000244E+00  0.51100000000E-03 0. -1.
         11    1    4    4    0    0  0.13849203909E-01 -0.23419123178E-01 -0.39920270154E-02  0.27503693934E-01  0.51100000000E-03 0.  1.
</event>
<event>
 8    1  0.1109294E+005  0.1043930E+01  0.7957747E-01            NaN
         13   -1    0    0    0    0  0.00000000000E+00  0.00000000000E+00  0.74505805969E-08  0.10566000000E+00  0.10566000000E+00 0. -1.
     999900   -1    0    0    0    0 -0.00000000000E+00 -0.00000000000E+00 -0.74505805969E-08  0.93827000000E+00  0.93827000000E+00 0.  1.
     999902    2    1    2    0    0  0.10037128113E-01  0.12168196654E-01 -0.15855307832E-01  0.10215648544E+01  0.10213200047E+01 0.  0.
     999903    2    3    3    0    0 -0.52058555780E-01 -0.54627582154E-01  0.10263042016E+00  0.12895272266E+00  0.20038352663E-01 0.  0.
         14    1    1    2    0    0 -0.10037128113E-01 -0.12168196654E-01  0.15855307832E-01  0.22365145585E-01  0.00000000000E+00 0. -1.
     999901    1    3    3    0    0  0.62095683893E-01  0.66795778808E-01 -0.11848572799E+00  0.89261213176E+00  0.88000000000E+00 0.  1.
        -11    1    4    4    0    0 -0.38800517710E-01 -0.29031024157E-01  0.55272512934E-01  0.73509131034E-01  0.51100000000E-03 0. -1.
         11    1    4    4    0    0 -0.13258038069E-01 -0.25596557997E-01  0.47357907222E-01  0.55443591624E-01  0.51100000000E-03 0.  1.
</event>
<event>
 8    1  0.1109294E+005  0.1043930E+01  0.7957747E-01            NaN
         13   -1    0    0    0    0  0.00000000000E+00  0.00000000000E+00  0.74505805969E-08  0.10566000000E+00  0.10566000000E+00 0. -1.
     999900   -1    0    0    0    0 -0.00000000000E+00 -0.00000000000E+00 -0.74505805969E-08  0.93827000000E+00  0.93827000000E+00 0. -1.
     999902    2    1    2    0    0 -0.12650783871E-01 -0.19669976441E-01 -0.22142154938E-02  0.10204384471E+01  0.10201680113E+01 0.  0.
     999903    2    3    3    0    0  0.36081910821E-02  0.12326319770E+00  0.28077737315E-01  0.12824348585E+00  0.21241407192E-01 0.  0.
         14    1    1    2    0    0  0.12650783871E-01  0.19669976441E-01  0.22142154938E-02  0.23491552864E-01  0.00000000000E+00 0. -1.
     999901    1    3    3    0    0 -0.16258974953E-01 -0.14293317414E+00 -0.30291952809E-01  0.89219496129E+00  0.88000000000E+00 0. -1.
        -11    1    4    4    0    0 -0.58395382490E-02  0.66632048564E-01  0.77578324885E-02  0.67337769407E-01  0.51100000000E-03 0. -1.
         11    1    4    4    0    0  0.94477293311E-02  0.56631149139E-01  0.20319904827E-01  0.60905716444E-01  0.51100000000E-03 0.  1.
</event>
<event>
 8    1  0.1109294E+005  0.1043930E+01  0.7957747E-01            NaN
         13   -1    0    0    0    0  0.00000000000E+00  0.00000000000E+00  0.74505805969E-08  0.10566000000E+00  0.10566000000E+00 0. -1.
     999900   -1    0    0    0    0 -0.00000000000E+00 -0.00000000000E+00 -0.74505805969E-08  0.93827000000E+00  0.93827000000E+00 0. -1.
     999902    2    1    2    0    0 -0.16915894207E-01 -0.12536580402E-01  0.11870237732E-01  0.10197594421E+01  0.10194729540E+01 0.  0.
     999903    2    3    3    0    0 -0.29240517006E-02  0.49888785958E-01  0.11941105754E+00  0.13090752759E+00  0.19502283768E-01 0.  0.
         14    1    1    2    0    0  0.16915894207E-01  0.12536580402E-01 -0.11870237732E-01  0.24170557892E-01  0.00000000000E+00 0. -1.
     999901    1    3    3    0    0 -0.13991842507E-01 -0.62425366360E-01 -0.10754081981E+00  0.88885191452E+00  0.88000000000E+00 0. -1.
        -11    1    4    4    0    0 -0.11091690020E-01  0.23279549133E-01  0.55945530471E-01  0.61604598011E-01  0.51100000000E-03 0.  1.
         11    1    4    4    0    0  0.81676383189E-02  0.26609236825E-01  0.63465527073E-01  0.69302929576E-01  0.51100000000E-03 0. -1.
</event>
<event>
 8    1  0.1109294E+005  0.1043930E+01  0.7957747E-01            NaN
         13   -1    0    0    0    0  0.00000000000E+00  0.00000000000E+00  0.74505805969E-08  0.10566000000E+00  0.10566000000E+00 0. -1.
     999900   -1    0    0    0    0 -0.00000000000E+00 -0.00000000000E+00 -0.74505805969E-08  0.93827000000E+00  0.93827000000E+00 0.  1.
     999902    2    1    2    0    0 -0.80366896434E-02 -0.15329513749E-01  0.16282868448E-01  0.10201662844E+01  0.10198894713E+01 0.  0.
     999903    2    3    3    0    0 -0.73981694930E-01 -0.84477195796E-01 -0.64957790783E-01  0.13127360792E+00  0.20088747095E-01 0.  0.
         14    1    1    2    0    0  0.80366896434E-02  0.15329513749E-01 -0.16282868448E-01  0.23763715557E-01  0.00000000000E+00 0.  1.
     999901    1    3    3    0    0  0.65945005287E-01  0.69147682047E-01  0.81240659231E-01  0.88889267652E+00  0.88000000000E+00 0. -1.
        -11    1    4    4    0    0 -0.63313931544E-01 -0.61684955189E-01 -0.45246377239E-01  0.99303491371E-01  0.51100000000E-03 0. -1.
         11    1    4    4    0    0 -0.10667763387E-01 -0.22792240607E-01 -0.19711413544E-01  0.31970116554E-01  0.51100000000E-03 0.  1.
</event>
<event>
 8    1  0.1109294E+005  0.1043930E+01  0.7957747E-01            NaN
         13   -1    0    0    0    0  0.00000000000E+00  0.00000000000E+00  0.74505805969E-08  0.10566000000E+00  0.10566000000E+00 0. -1.
     999900   -1    0    0    0    0 -0.00000000000E+00 -0.00000000000E+00 -0.74505805969E-08  0.93827000000E+00  0.93827000000E+00 0.  1.
     999902    2    1    2    0    0  0.19925086141E-01 -0.48156033741E-02 -0.12323722229E-01  0.10200119478E+01  0.10197314844E+01 0.  0.
     999903    2    3    3    0    0 -0.60708140891E-01  0.11075697011E+00  0.11597044675E-01  0.12847903186E+00  0.20488664732E-01 0.  0.
         14    1    1    2    0    0 -0.19925086141E-01  0.48156033741E-02  0.12323722229E-01  0.23918052244E-01  0.00000000000E+00 0. -1.
     999901    1    3    3    0    0  0.80633227032E-01 -0.11557257349E+00 -0.23920766904E-01  0.89153291590E+00  0.88000000000E+00 0. -1.
        -11    1    4    4    0    0 -0.40577438920E-01  0.61602398818E-01  0.14898890984E-01  0.75257040621E-01  0.51100000000E-03 0.  1.
         11    1    4    4    0    0 -0.20130701971E-01  0.49154571294E-01 -0.33018463090E-02  0.53221991235E-01  0.51100000000E-03 0. -1.
</event>
<event>
 8    1  0.1109294E+005  0.1043930E+01  0.7957747E-01            NaN
         13   -1    0    0    0    0  0.00000000000E+00  0.00000000000E+00  0.74505805969E-08  0.10566000000E+00  0.10566000000E+00 0. -1.
     999900   -1    0    0    0    0 -0.00000000000E+00 -0.00000000000E+00 -0.74505805969E-08  0.93827000000E+00  0.93827000000E+00 0. -1.
     999902    2    1    2    0    0  0.46911688217E-02  0.22403255138E-01  0.66875781037E-02  0.10200838975E+01  0.10198051389E+01 0.  0.
     999903    2    3    3    0    0 -0.10828563540E-01 -0.52239880220E-01 -0.11510775091E+00  0.12843006220E+00  0.19955542707E-01 0.  0.
         14    1    1    2    0    0 -0.46911688217E-02 -0.22403255138E-01 -0.66875781037E-02  0.23846102545E-01  0.00000000000E+00 0.  1.
     999901    1    3    3    0    0  0.15519732361E-01  0.74643135359E-01  0.12179532901E+00  0.89165383525E+00  0.88000000000E+00 0.  1.
        -11    1    4    4    0    0 -0.54822435524E-02 -0.30629449371E-01 -0.88048583365E-01  0.93386467525E-01  0.51100000000E-03 0. -1.
         11    1    4    4    0    0 -0.53463199873E-02 -0.21610430849E-01 -0.27059167543E-01  0.35043594679E-01  0.51100000000E-03 0.  1.
</event>
<event>
 8    1  0.1109294E+005  0.1043930E+01  0.7957747E-01            NaN
         13   -1    0    0    0    0  0.00000000000E+00  0.00000000000E+00  0.74505805969E-08  0.10566000000E+00  0.10566000000E+00 0. -1.
     999900   -1    0    0    0    0 -0.00000000000E+00 -0.00000000000E+00 -0.74505805969E-08  0.93827000000E+00  0.93827000000E+00 0.  1.
     999902    2    1    2    0    0  0.72792457419E-02  0.21565282733E-01  0.52308098571E-02  0.10205759809E+01  0.10203087388E+01 0.  0.
     999903    2    3    3    0    0 -0.83198253415E-02 -0.71527964736E-01 -0.10475273021E+00  0.12872057620E+00  0.20257912504E-01 0.  0.
         14    1    1    2    0    0 -0.72792457419E-02 -0.21565282733E-01 -0.52308098571E-02  0.23354019134E-01  0.00000000000E+00 0. -1.
     999901    1    3    3    0    0  0.15599071083E-01  0.93093247469E-01  0.10998354006E+00  0.89185540466E+00  0.88000000000E+00 0. -1.
        -11    1    4    4    0    0 -0.34739137093E-02 -0.51655391273E-01 -0.58359752902E-01  0.78015827905E-01  0.51100000000E-03 0. -1.
         11    1    4    4    0    0 -0.48459116322E-02 -0.19872573463E-01 -0.46392977306E-01  0.50704748297E-01  0.51100000000E-03 0.  1.
</event>
<event>
 8    1  0.1109294E+005  0.1043930E+01  0.7957747E-01            NaN
         13   -1    0    0    0    0  0.00000000000E+00  0.00000000000E+00  0.74505805969E-08  0.10566000000E+00  0.10566000000E+00 0.  1.
     999900   -1    0    0    0    0 -0.00000000000E+00 -0.00000000000E+00 -0.74505805969E-08  0.93827000000E+00  0.93827000000E+00 0. -1.
     999902    2    1    2    0    0  0.18492746448E-01 -0.11515948462E-01  0.29200564996E-02  0.10219498847E+01  0.10217134830E+01 0.  0.
     999903    2    3    3    0    0  0.11607887925E+00 -0.65040705501E-01  0.10341132431E-01  0.13490815774E+00  0.19714776849E-01 0.  0.
         14    1    1    2    0    0 -0.18492746448E-01  0.11515948462E-01 -0.29200564996E-02  0.21980115335E-01  0.00000000000E+00 0.  1.
     999901    1    3    3    0    0 -0.97586132801E-01  0.53524757039E-01 -0.74210759311E-02  0.88704172692E+00  0.88000000000E+00 0. -1.
        -11    1    4    4    0    0  0.21755212684E-01 -0.21345058812E-01  0.42299272751E-02  0.30774246057E-01  0.51100000000E-03 0.  1.
         11    1    4    4    0    0  0.94323666565E-01 -0.43695646689E-01  0.61112051557E-02  0.10413391169E+00  0.51100000000E-03 0. -1.
</event>
<event>
 8    1  0.1109294E+005  0.1043930E+01  0.7957747E-01            NaN
         13   -1    0    0    0    0  0.00000000000E+00  0.00000000000E+00  0.74505805969E-08  0.10566000000E+00  0.10566000000E+00 0. -1.
     999900   -1    0    0    0    0 -0.00000000000E+00 -0.00000000000E+00 -0.74505805969E-08  0.93827000000E+00  0.93827000000E+00 0. -1.
     999902    2    1    2    0    0 -0.26119397898E-01 -0.57214522488E-02  0.67558994973E-02  0.10163510200E+01  0.10159767692E+01 0.  0.
     999903    2    3    3    0    0 -0.97921516931E-01  0.42132832902E-01  0.71497806912E-01  0.12976369121E+00  0.19049411485E-01 0.  0.
         14    1    1    2    0    0  0.26119397898E-01  0.57214522488E-02 -0.67558994973E-02  0.27578980047E-01  0.00000000000E+00 0.  1.
     999901    1    3    3    0    0  0.71802119033E-01 -0.47854285150E-01 -0.64741907415E-01  0.88658732874E+00  0.88000000000E+00 0. -1.
        -11    1    4    4    0    0 -0.27455674459E-01  0.15580135033E-01  0.31057915969E-01  0.44287807949E-01  0.51100000000E-03 0. -1.
         11    1    4    4    0    0 -0.70465842473E-01  0.26552697868E-01  0.40439890943E-01  0.85475883265E-01  0.51100000000E-03 0.  1.
</event>
<event>
 8    1  0.1109294E+005  0.1043930E+01  0.7957747E-01            NaN
         13   -1    0    0    0    0  0.00000000000E+00  0.00000000000E+00  0.74505805969E-08  0.10566000000E+00  0.10566000000E+00 0.  1.
     999900   -1    0    0    0    0 -0.00000000000E+00 -0.00000000000E+00 -0.74505805969E-08  0.93827000000E+00  0.93827000000E+00 0. -1.
     999902    2    1    2    0    0  0.16039954589E-01  0.97069247288E-02  0.14353461353E-01  0.10203180034E+01  0.10200447547E+01 0.  0.
     999903    2    3    3    0    0  0.60640851098E-01 -0.11079255909E+00 -0.24399699517E-01  0.13014320424E+00  0.19738396629E-01 0.  0.
         14    1    1    2    0    0 -0.16039954589E-01 -0.97069247288E-02 -0.14353461353E-01  0.23611996606E-01  0.00000000000E+00 0. -1.
     999901    1    3    3    0    0 -0.44600896508E-01  0.12049948382E+00  0.38753160870E-01  0.89017479915E+00  0.88000000000E+00 0.  1.
        -11    1    4    4    0    0  0.39396404806E-01 -0.86505347009E-01 -0.13116688555E-01  0.95956033747E-01  0.51100000000E-03 0.  1.
         11    1    4    4    0    0  0.21244446291E-01 -0.24287212083E-01 -0.11283010962E-01  0.34187170493E-01  0.51100000000E-03 0. -1.
</event>
<event>
 8    1  0.1109294E+005  0.1043930E+01  0.7957747E-01            NaN
         13   -1    0    0    0    0  0.00000000000E+00  0.00000000000E+00  0.74505805969E-08  0.10566000000E+00  0.10566000000E+00 0.  1.
     999900   -1    0    0    0    0 -0.00000000000E+00 -0.00000000000E+00 -0.74505805969E-08  0.93827000000E+00  0.93827000000E+00 0.  1.
     999902    2    1    2    0    0  0.17691387820E-01  0.18056280540E-02 -0.47912610302E-02  0.10255125714E+01  0.10253471765E+01 0.  0.
     999903    2    3    3    0    0  0.13258442541E+00  0.30611898453E-01  0.43360798114E-02  0.13752973388E+00  0.19491226862E-01 0.  0.
         14    1    1    2    0    0 -0.17691387820E-01 -0.18056280540E-02  0.47912610302E-02  0.18417428646E-01  0.00000000000E+00 0.  1.
     999901    1    3    3    0    0 -0.11489303759E+00 -0.28806270399E-01 -0.91273408416E-02  0.88798283748E+00  0.88000000000E+00 0. -1.
        -11    1    4    4    0    0  0.10600093481E+00  0.21430021847E-01  0.10746690285E-01  0.10867932872E+00  0.51100000000E-03 0. -1.
         11    1    4    4    0    0  0.26583490599E-01  0.91818766052E-02 -0.64106104732E-02  0.28850405163E-01  0.51100000000E-03 0.  1.
</event>
<event>
 8    1  0.1109294E+005  0.1043930E+01  0.7957747E-01            NaN
         13   -1    0    0    0    0  0.00000000000E+00  0.00000000000E+00  0.74505805969E-08  0.10566000000E+00  0.10566000000E+00 0.  1.
     999900   -1    0    0    0    0 -0.00000000000E+00 -0.00000000000E+00 -0.74505805969E-08  0.93827000000E+00  0.93827000000E+00 0. -1.
     999902    2    1    2    0    0 -0.22718471246E-02  0.10698247433E-01  0.19671240568E-01  0.10214228568E+01  0.10211748533E+01 0.  0.
     999903    2    3    3    0    0  0.36721592341E-01  0.10076228903E+00  0.78405586556E-01  0.13402117592E+00  0.17684042451E-01 0.  0.
         14    1    1    2    0    0  0.22718471246E-02 -0.10698247433E-01 -0.19671240568E-01  0.22507143154E-01  0.00000000000E+00 0. -1.
     999901    1    3    3    0    0 -0.38993439466E-01 -0.90064041597E-01 -0.58734345989E-01  0.88740168093E+00  0.88000000000E+00 0. -1.
        -11    1    4    4    0    0  0.30819468126E-01  0.73889013470E-01  0.66337133513E-01  0.10397260375E+00  0.51100000000E-03 0. -1.
         11    1    4    4    0    0  0.59021242154E-02  0.26873275559E-01  0.12068453043E-01  0.30048572169E-01  0.51100000000E-03 0.  1.
</event>
<event>
 8    1  0.1109294E+005  0.1043930E+01  0.7957747E-01            NaN
         13   -1    0    0    0    0  0.00000000000E+00  0.00000000000E+00  0.74505805969E-08  0.10566000000E+00  0.10566000000E+00 0. -1.
     999900   -1    0    0    0    0 -0.00000000000E+00 -0.00000000000E+00 -0.74505805969E-08  0.93827000000E+00  0.93827000000E+00 0. -1.
     999902    2    1    2    0    0 -0.13638717345E-01 -0.18598492325E-01  0.71901178505E-02  0.10197718477E+01  0.10194856571E+01 0.  0.
     999903    2    3    3    0    0 -0.60943616935E-01  0.98303696892E-01 -0.52932074367E-01  0.12875077424E+00  0.19930281028E-01 0.  0.
         14    1    1    2    0    0  0.13638717345E-01  0.18598492325E-01 -0.71901178505E-02  0.24158152295E-01  0.00000000000E+00 0.  1.
     999901    1    3    3    0    0  0.47304899590E-01 -0.11690218922E+00  0.60122192217E-01  0.89102107347E+00  0.88000000000E+00 0.  1.
        -11    1    4    4    0    0 -0.51675629289E-01  0.74111493303E-01 -0.33494595495E-01  0.96358876864E-01  0.51100000000E-03 0.  1.
         11    1    4    4    0    0 -0.92679876455E-02  0.24192203589E-01 -0.19437478872E-01  0.32391897372E-01  0.51100000000E-03 0. -1.
</event>
<event>
 8    1  0.1109294E+005  0.1043930E+01  0.7957747E-01            NaN
         13   -1    0    0    0    0  0.00000000000E+00  0.00000000000E+00  0.74505805969E-08  0.10566000000E+00  0.10566000000E+00 0.  1.
     999900   -1    0    0    0    0 -0.00000000000E+00 -0.00000000000E+00 -0.74505805969E-08  0.93827000000E+00  0.93827000000E+00 0. -1.
     999902    2    1    2    0    0 -0.17161637249E-01  0.60543973974E-02 -0.15772175044E-01  0.10198480768E+01  0.10195637109E+01 0.  0.
     999903    2    3    3    0    0  0.11438622726E-01 -0.81144771776E-01  0.96555402131E-01  0.12797412011E+00  0.18415038971E-01 0.  0.
         14    1    1    2    0    0  0.17161637249E-01 -0.60543973974E-02  0.15772175044E-01  0.24081923231E-01  0.00000000000E+00 0.  1.
     999901    1    3    3    0    0 -0.28600259975E-01  0.87199169173E-01 -0.11232757718E+00  0.89187395666E+00  0.88000000000E+00 0. -1.
        -11    1    4    4    0    0  0.10430238353E-01 -0.43812458279E-01  0.64997190978E-01  0.79077287059E-01  0.51100000000E-03 0.  1.
         11    1    4    4    0    0  0.10083843729E-02 -0.37332313497E-01  0.31558211154E-01  0.48896833049E-01  0.51100000000E-03 0. -1.
</event>
<event>
 8    1  0.1109294E+005  0.1043930E+01  0.7957747E-01            NaN
         13   -1    0    0    0    0  0.00000000000E+00  0.00000000000E+00  0.74505805969E-08  0.10566000000E+00  0.10566000000E+00 0. -1.
     999900   -1    0    0    0    0 -0.00000000000E+00 -0.00000000000E+00 -0.74505805969E-08  0.93827000000E+00  0.93827000000E+00 0. -1.
     999902    2    1    2    0    0  0.20510974314E-01  0.95655525850E-02 -0.49118639261E-02  0.10207712809E+01  0.10205085407E+01 0.  0.
     999903    2    3    3    0    0 -0.42178126430E-01  0.12179967720E+00 -0.15328588424E-01  0.13136983597E+00  0.20221584104E-01 0.  0.
         14    1    1    2    0    0 -0.20510974314E-01 -0.95655525850E-02  0.49118639261E-02  0.23158719109E-01  0.00000000000E+00 0.  1.
     999901    1    3    3    0    0  0.62689100744E-01 -0.11223412462E+00  0.10416724498E-01  0.88940144492E+00  0.88000000000E+00 0.  1.
        -11    1    4    4    0    0 -0.73631346740E-02  0.51290566741E-01 -0.50846887904E-02  0.52067774774E-01  0.51100000000E-03 0. -1.
         11    1    4    4    0    0 -0.34814991756E-01  0.70509110461E-01 -0.10243899634E-01  0.79302061194E-01  0.51100000000E-03 0.  1.
</event>
<event>
 8    1  0.1109294E+005  0.1043930E+01  0.7957747E-01            NaN
         13   -1    0    0    0    0  0.00000000000E+00  0.00000000000E+00  0.74505805969E-08  0.10566000000E+00  0.10566000000E+00 0.  1.
     999900   -1    0    0    0    0 -0.00000000000E+00 -0.00000000000E+00 -0.74505805969E-08  0.93827000000E+00  0.93827000000E+00 0.  1.
     999902    2    1    2    0    0 -0.89740104060E-02 -0.39764434801E-02  0.20274101389E-01  0.10214048107E+01  0.10211564049E+01 0.  0.
     999903    2    3    3    0    0 -0.88660845560E-01 -0.93607479634E-03  0.98829948366E-01  0.13431391535E+00  0.20279235443E-01 0.  0.
         14    1    1    2    0    0  0.89740104060E-02  0.39764434801E-02 -0.20274101389E-01  0.22525189292E-01  0.00000000000E+00 0. -1.
     999901    1    3    3    0    0  0.79686835154E-01 -0.30403686837E-02 -0.78555846977E-01  0.88709089536E+00  0.88000000000E+00 0.  1.
        -11    1    4    4    0    0 -0.66086826084E-01 -0.80522074336E-02  0.79892571800E-01  0.10399707100E+00  0.51100000000E-03 0.  1.
         11    1    4    4    0    0 -0.22574019476E-01  0.71161326372E-02  0.18937376566E-01  0.30316844348E-01  0.51100000000E-03 0. -1.
</event>
<event>
 8    1  0.1109294E+005  0.1043930E+01  0.7957747E-01            NaN
         13   -1    0    0    0    0  0.00000000000E+00  0.00000000000E+00  0.74505805969E-08  0.10566000000E+00  0.10566000000E+00 0. -1.
     999900   -1    0    0    0    0 -0.00000000000E+00 -0.00000000000E+00 -0.74505805969E-08  0.93827000000E+00  0.93827000000E+00 0. -1.
     999902    2    1    2    0    0 -0.65115938207E-02 -0.21942841980E-01 -0.48857928282E-02  0.10205257239E+01  0.10202573171E+01 0.  0.
     999903    2    3    3    0    0 -0.15931799270E-02  0.12558817388E+00 -0.22272381841E-01  0.12806178350E+00  0.11350496027E-01 0.  0.
         14    1    1    2    0    0  0.65115938207E-02  0.21942841980E-01  0.48857928282E-02  0.23404276101E-01  0.00000000000E+00 0. -1.
     999901    1    3    3    0    0 -0.49184138937E-02 -0.14753101586E+00  0.17386589013E-01  0.89246394040E+00  0.88000000000E+00 0. -1.
        -11    1    4    4    0    0  0.37555203277E-02  0.25153141363E-01 -0.25167255678E-02  0.25561288738E-01  0.51100000000E-03 0.  1.
         11    1    4    4    0    0 -0.53487002548E-02  0.10043503251E+00 -0.19755656273E-01  0.10250049476E+00  0.51100000000E-03 0. -1.
</event>
<event>
 8    1  0.1109294E+005  0.1043930E+01  0.7957747E-01            NaN
         13   -1    0    0    0    0  0.00000000000E+00  0.00000000000E+00  0.74505805969E-08  0.10566000000E+00  0.10566000000E+00 0.  1.
     999900   -1    0    0    0    0 -0.00000000000E+00 -0.00000000000E+00 -0.74505805969E-08  0.93827000000E+00  0.93827000000E+00 0.  1.
     999902    2    1    2    0    0  0.12649402545E-02 -0.95473021996E-02  0.21704132468E-01  0.10201850970E+01  0.10199087271E+01 0.  0.
     999903    2    3    3    0    0 -0.68829860889E-01 -0.10910107994E+00  0.18516993263E-01  0.13179644686E+00  0.19667968160E-01 0.  0.
         14    1    1    2    0    0 -0.12649402545E-02  0.95473021996E-02 -0.21704132468E-01  0.23744903018E-01  0.00000000000E+00 0. -1.
     999901    1    3    3    0    0  0.70094801144E-01  0.99553777739E-01  0.31871392054E-02  0.88838865012E+00  0.88000000000E+00 0.  1.
        -11    1    4    4    0    0 -0.52649851985E-01 -0.92151990365E-01  0.21121496147E-01  0.10821448592E+00  0.51100000000E-03 0.  1.
         11    1    4    4    0    0 -0.16180008905E-01 -0.16949089573E-01 -0.26045028842E-02  0.23581960940E-01  0.51100000000E-03 0. -1.
</event>
<event>
 8    1  0.1109294E+005  0.1043930E+01  0.7957747E-01            NaN
         13   -1    0    0    0    0  0.00000000000E+00  0.00000000000E+00  0.74505805969E-08  0.10566000000E+00  0.10566000000E+00 0.  1.
     999900   -1    0    0    0    0 -0.00000000000E+00 -0.00000000000E+00 -0.74505805969E-08  0.93827000000E+00  0.93827000000E+00 0.  1.
     999902    2    1    2    0    0  0.19711470225E-01 -0.58664446970E-02  0.11020639320E-01  0.10205973679E+01  0.10203306207E+01 0.  0.
     999903    2    3    3    0    0  0.94708132971E-01  0.61213316168E-01 -0.64971479691E-01  0.13160974370E+00  0.19573730801E-01 0.  0.
         14    1    1    2    0    0 -0.19711470225E-01  0.58664446970E-02 -0.11020639320E-01  0.23332632145E-01  0.00000000000E+00 0.  1.
     999901    1    3    3    0    0 -0.74996662746E-01 -0.67079760865E-01  0.75992119010E-01  0.88898762415E+00  0.88000000000E+00 0. -1.
        -11    1    4    4    0    0  0.65159674750E-01  0.48567610995E-01 -0.54294453111E-01  0.97738144093E-01  0.51100000000E-03 0.  1.
         11    1    4    4    0    0  0.29548458222E-01  0.12645705174E-01 -0.10677026580E-01  0.33871599611E-01  0.51100000000E-03 0. -1.
</event>
<event>
 8    1  0.1109294E+005  0.1043930E+01  0.7957747E-01            NaN
         13   -1    0    0    0    0  0.00000000000E+00  0.00000000000E+00  0.74505805969E-08  0.10566000000E+00  0.10566000000E+00 0.  1.
     999900   -1    0    0    0    0 -0.00000000000E+00 -0.00000000000E+00 -0.74505805969E-08  0.93827000000E+00  0.93827000000E+00 0. -1.
     999902    2    1    2    0    0  0.14242818059E-01 -0.18531024849E-01 -0.45082142846E-02  0.10201270434E+01  0.10198493045E+01 0.  0.
     999903    2    3    3    0    0 -0.82699098073E-01  0.40708114126E-01  0.86746975854E-01  0.12814356795E+00  0.19986115449E-01 0.  0.
         14    1    1    2    0    0 -0.14242818059E-01  0.18531024849E-01  0.45082142846E-02  0.23802956628E-01  0.00000000000E+00 0. -1.
     999901    1    3    3    0    0  0.96941916132E-01 -0.59239138975E-01 -0.91255190138E-01  0.89198347542E+00  0.88000000000E+00 0.  1.
        -11    1    4    4    0    0 -0.35924111039E-01  0.68869656286E-02  0.34631364176E-01  0.50374244959E-01  0.51100000000E-03 0. -1.
         11    1    4    4    0    0 -0.46774987033E-01  0.33821148498E-01  0.52115611677E-01  0.77769322995E-01  0.51100000000E-03 0.  1.
</event>
<event>
 8    1  0.1109294E+005  0.1043930E+01  0.7957747E-01            NaN
         13   -1    0    0    0    0  0.00000000000E+00  0.00000000000E+00  0.74505805969E-08  0.10566000000E+00  0.10566000000E+00 0. -1.
     999900   -1    0    0    0    0 -0.00000000000E+00 -0.00000000000E+00 -0.74505805969E-08  0.93827000000E+00  0.93827000000E+00 0. -1.
     999902    2    1    2    0    0  0.14092545718E-01 -0.19231683126E-01  0.39143556858E-02  0.10197684673E+01  0.10194821957E+01 0.  0.
     999903    2    3    3    0    0 -0.48532698036E-02  0.10108533069E+00  0.76393939841E-01  0.12842766951E+00  0.20392006824E-01 0.  0.
         14    1    1    2    0    0 -0.14092545718E-01  0.19231683126E-01 -0.39143556858E-02  0.24161532673E-01  0.00000000000E+00 0. -1.
     999901    1    3    3    0    0  0.18945815521E-01 -0.12031701382E+00 -0.72479584155E-01  0.89134079782E+00  0.88000000000E+00 0.  1.
        -11    1    4    4    0    0 -0.77818592363E-02  0.17130424404E-01  0.97604454899E-02  0.21202268525E-01  0.51100000000E-03 0. -1.
         11    1    4    4    0    0  0.29285894328E-02  0.83954906285E-01  0.66633494351E-01  0.10722540098E+00  0.51100000000E-03 0.  1.
</event>
<event>
 8    1  0.1109294E+005  0.1043930E+01  0.7957747E-01            NaN
         13   -1    0    0    0    0  0.00000000000E+00  0.00000000000E+00  0.74505805969E-08  0.10566000000E+00  0.10566000000E+00 0. -1.
     999900   -1    0    0    0    0 -0.00000000000E+00 -0.00000000000E+00 -0.74505805969E-08  0.93827000000E+00  0.93827000000E+00 0. -1.
     999902    2    1    2    0    0  0.10719885504E-01 -0.20056687406E-01 -0.72723281964E-02  0.10200537898E+01  0.10197743185E+01 0.  0.
     999903    2    3    3    0    0  0.12313713957E+00 -0.36197859338E-01  0.24766971617E-01  0.13217728198E+00  0.19605887546E-01 0.  0.
         14    1    1    2    0    0 -0.10719885504E-01  0.20056687406E-01  0.72723281964E-02  0.23876210175E-01  0.00000000000E+00 0.  1.
     999901    1    3    3    0    0 -0.11241725407E+00  0.16141171932E-01 -0.32039299813E-01  0.88787650784E+00  0.88000000000E+00 0. -1.
        -11    1    4    4    0    0  0.34678219429E-01 -0.12913827989E-01 -0.14003010378E-02  0.37034684015E-01  0.51100000000E-03 0. -1.
         11    1    4    4    0    0  0.88458920145E-01 -0.23284031349E-01  0.26167272655E-01  0.95142597969E-01  0.51100000000E-03 0.  1.
</event>
<event>
 8    1  0.1109294E+005  0.1043930E+01  0.7957747E-01            NaN
         13   -1    0    0    0    0  0.00000000000E+00  0.00000000000E+00  0.74505805969E-08  0.10566000000E+00  0.10566000000E+00 0. -1.
     999900   -1    0    0    0    0 -0.00000000000E+00 -0.00000000000E+00 -0.74505805969E-08  0.93827000000E+00  0.93827000000E+00 0.  1.
     999902    2    1    2    0    0 -0.35448712469E-02  0.22145348406E-01 -0.70252347226E-02  0.10204281598E+01  0.10201574844E+01 0.  0.
     999903    2    3    3    0    0  0.83230383631E-01  0.33458651372E-01 -0.94035625716E-01  0.13181759056E+00  0.22054481787E-01 0.  0.
         14    1    1    2    0    0  0.35448712469E-02 -0.22145348406E-01  0.70252347226E-02  0.23501840164E-01  0.00000000000E+00 0.  1.
     999901    1    3    3    0    0 -0.86775254878E-01 -0.11313302966E-01  0.87010390994E-01  0.88861056927E+00  0.88000000000E+00 0. -1.
        -11    1    4    4    0    0  0.46493338115E-01  0.17368004886E-01 -0.67263917519E-01  0.83594101489E-01  0.51100000000E-03 0.  1.
         11    1    4    4    0    0  0.36737045516E-01  0.16090646486E-01 -0.26771708197E-01  0.48223489073E-01  0.51100000000E-03 0. -1.
</event>
<event>
 8    1  0.1109294E+005  0.1043930E+01  0.7957747E-01            NaN
         13   -1    0    0    0    0  0.00000000000E+00  0.00000000000E+00  0.74505805969E-08  0.10566000000E+00  0.10566000000E+00 0. -1.
     999900   -1    0    0    0    0 -0.00000000000E+00 -0.00000000000E+00 -0.74505805969E-08  0.93827000000E+00  0.93827000000E+00 0.  1.
     999902    2    1    2    0    0 -0.44839151492E-02 -0.10625431391E-01  0.20970551658E-01  0.10199974004E+01  0.10197165917E+01 0.  0.
     999903    2    3    3    0    0 -0.19139080160E-01 -0.11997471661E+00  0.49527494953E-01  0.13264879975E+00  0.19557461618E-01 0.  0.
         14    1    1    2    0    0  0.44839151492E-02  0.10625431391E-01 -0.20970551658E-01  0.23932599611E-01  0.00000000000E+00 0.  1.
     999901    1    3    3    0    0  0.14655165011E-01  0.10934928522E+00 -0.28556943296E-01  0.88734860064E+00  0.88000000000E+00 0. -1.
        -11    1    4    4    0    0 -0.22542354658E-02 -0.52651146445E-01  0.13305999152E-01  0.54355639394E-01  0.51100000000E-03 0.  1.
         11    1    4    4    0    0 -0.16884844694E-01 -0.67323570164E-01  0.36221495802E-01  0.78293160360E-01  0.51100000000E-03 0. -1.
</event>
<event>
 8    1  0.1109294E+005  0.1043930E+01  0.7957747E-01            NaN
         13   -1    0    0    0    0  0.00000000000E+00  0.00000000000E+00  0.74505805969E-08  0.10566000000E+00  0.10566000000E+00 0. -1.
     999900   -1    0    0    0    0 -0.00000000000E+00 -0.00000000000E+00 -0.74505805969E-08  0.93827000000E+00  0.93827000000E+00 0. -1.
     999902    2    1    2    0    0  0.82670479308E-02  0.37650863630E-02  0.21602255107E-01  0.10204954660E+01  0.10202263566E+01 0.  0.
     999903    2    3    3    0    0  0.10954180989E+00  0.48605824280E-01  0.54121262739E-01  0.13295687248E+00  0.19659211351E-01 0.  0.
         14    1    1    2    0    0 -0.82670479308E-02 -0.37650863630E-02 -0.21602255107E-01  0.23434533973E-01  0.00000000000E+00 0.  1.
     999901    1    3    3    0    0 -0.10127476196E+00 -0.44840737917E-01 -0.32519007632E-01  0.88753859355E+00  0.88000000000E+00 0.  1.
        -11    1    4    4    0    0  0.68953180908E-01  0.36034184041E-01  0.43572744398E-01  0.89173139185E-01  0.51100000000E-03 0.  1.
         11    1    4    4    0    0  0.40588628979E-01  0.12571640239E-01  0.10548518342E-01  0.43783733291E-01  0.51100000000E-03 0. -1.
</event>
<event>
 8    1  0.1109294E+005  0.1043930E+01  0.7957747E-01            NaN
         13   -1    0    0    0    0  0.00000000000E+00  0.00000000000E+00  0.74505805969E-08  0.10566000000E+00  0.10566000000E+00 0.  1.
     999900   -1    0    0    0    0 -0.00000000000E+00 -0.00000000000E+00 -0.74505805969E-08  0.93827000000E+00  0.93827000000E+00 0. -1.
     999902    2    1    2    0    0 -0.21620676555E-02  0.18314192934E-01  0.13235020646E-01  0.10212308817E+01  0.10209785815E+01 0.  0.
     999903    2    3    3    0    0  0.11627732108E+00 -0.55196684055E-02  0.58664320654E-01  0.13181547649E+00  0.19568729832E-01 0.  0.
         14    1    1    2    0    0  0.21620676555E-02 -0.18314192934E-01 -0.13235020646E-01  0.22699118284E-01  0.00000000000E+00 0. -1.
     999901    1    3    3    0    0 -0.11843938874E+00  0.23833861340E-01 -0.45429300007E-01  0.88941540522E+00  0.88000000000E+00 0. -1.
        -11    1    4    4    0    0  0.36852590073E-01  0.97836160475E-03  0.91270365851E-02  0.37982028702E-01  0.51100000000E-03 0.  1.
         11    1    4    4    0    0  0.79424731010E-01 -0.64980300103E-02  0.49537284068E-01  0.93833447789E-01  0.51100000000E-03 0. -1.
</event>
<event>
 8    1  0.1109294E+005  0.1043930E+01  0.7957747E-01            NaN
         13   -1    0    0    0    0  0.00000000000E+00  0.00000000000E+00  0.74505805969E-08  0.10566000000E+00  0.10566000000E+00 0. -1.
     999900   -1    0    0    0    0 -0.00000000000E+00 -0.00000000000E+00 -0.74505805969E-08  0.93827000000E+00  0.93827000000E+00 0.  1.
     999902    2    1    2    0    0 -0.14482547877E-01 -0.17649054629E-01 -0.30319924555E-02  0.10208990143E+01  0.10206391974E+01 0.  0.
     999903    2    3    3    0    0 -0.91460474648E-01  0.39579719361E-01 -0.85842830089E-01  0.13182175751E+00  0.87413767425E-02 0.  0.
         14    1    1    2    0    0  0.14482547877E-01  0.17649054629E-01  0.30319924555E-02  0.23030985662E-01  0.00000000000E+00 0. -1.
     999901    1    3    3    0    0  0.76977926771E-01 -0.57228773990E-01  0.82810837634E-01  0.88907725683E+00  0.88000000000E+00 0. -1.
        -11    1    4    4    0    0 -0.41911852336E-01  0.22103363879E-01 -0.43813691210E-01  0.64537297119E-01  0.51100000000E-03 0.  1.
         11    1    4    4    0    0 -0.49548622312E-01  0.17476355482E-01 -0.42029138880E-01  0.67284460389E-01  0.51100000000E-03 0. -1.
</event>
<event>
 8    1  0.1109294E+005  0.1043930E+01  0.7957747E-01            NaN
         13   -1    0    0    0    0  0.00000000000E+00  0.00000000000E+00  0.74505805969E-08  0.10566000000E+00  0.10566000000E+00 0. -1.
     999900   -1    0    0    0    0 -0.00000000000E+00 -0.00000000000E+00 -0.74505805969E-08  0.93827000000E+00  0.93827000000E+00 0. -1.
     999902    2    1    2    0    0 -0.90230737231E-03  0.74562059108E-02 -0.12027726343E-01  0.10297498954E+01  0.10296522577E+01 0.  0.
     999903    2    3    3    0    0  0.83511070381E-01  0.10054233180E+00  0.43163359187E-01  0.13911152823E+00  0.20151485049E-01 0.  0.
         14    1    1    2    0    0  0.90230737231E-03 -0.74562059108E-02  0.12027726343E-01  0.14180104589E-01  0.00000000000E+00 0. -1.
     999901    1    3    3    0    0 -0.84413377753E-01 -0.93086125889E-01 -0.55191085530E-01  0.89063836718E+00  0.88000000000E+00 0. -1.
        -11    1    4    4    0    0  0.78156255210E-01  0.86360831399E-01  0.42298808269E-01  0.12391950504E+00  0.51100000000E-03 0.  1.
         11    1    4    4    0    0  0.53548151712E-02  0.14181500400E-01  0.86455091783E-03  0.15192023183E-01  0.51100000000E-03 0. -1.
</event>
<event>
 8    1  0.1109294E+005  0.1043930E+01  0.7957747E-01            NaN
         13   -1    0    0    0    0  0.00000000000E+00  0.00000000000E+00  0.74505805969E-08  0.10566000000E+00  0.10566000000E+00 0.  1.
     999900   -1    0    0    0    0 -0.00000000000E+00 -0.00000000000E+00 -0.74505805969E-08  0.93827000000E+00  0.93827000000E+00 0. -1.
     999902    2    1    2    0    0  0.15387590712E-01  0.73377105125E-02 -0.24272339575E-01  0.10142691434E+01  0.10138353559E+01 0.  0.
     999903    2    3    3    0    0  0.55961773967E-01  0.93763764963E-01 -0.63383420548E-01  0.12824126358E+00  0.22472203236E-01 0.  0.
         14    1    1    2    0    0 -0.15387590712E-01 -0.73377105125E-02  0.24272339575E-01  0.29660856561E-01  0.00000000000E+00 0.  1.
     999901    1    3    3    0    0 -0.40574183255E-01 -0.86426054450E-01  0.39111080973E-01  0.88602787986E+00  0.88000000000E+00 0.  1.
        -11    1    4    4    0    0  0.27847784193E-01  0.28636076866E-01 -0.16564288671E-01  0.43245355391E-01  0.51100000000E-03 0.  1.
         11    1    4    4    0    0  0.28113989774E-01  0.65127688097E-01 -0.46819131877E-01  0.84995908188E-01  0.51100000000E-03 0. -1.
</event>
<event>
 8    1  0.1109294E+005  0.1043930E+01  0.7957747E-01            NaN
         13   -1    0    0    0    0  0.00000000000E+00  0.00000000000E+00  0.74505805969E-08  0.10566000000E+00  0.10566000000E+00 0. -1.
     999900   -1    0    0    0    0 -0.00000000000E+00 -0.00000000000E+00 -0.74505805969E-08  0.93827000000E+00  0.93827000000E+00 0.  1.
     999902    2    1    2    0    0  0.45862936361E-02 -0.22037669084E-01 -0.20276365641E-02  0.10213290209E+01  0.10210789218E+01 0.  0.
     999903    2    3    3    0    0 -0.34652498389E-01  0.12083483057E+00 -0.19135204500E-01  0.12877935679E+00  0.20398891135E-01 0.  0.
         14    1    1    2    0    0 -0.45862936361E-02  0.22037669084E-01  0.20276365641E-02  0.22600979138E-01  0.00000000000E+00 0. -1.
     999901    1    3    3    0    0  0.39238792025E-01 -0.14287249966E+00  0.17107567936E-01  0.89254966407E+00  0.88000000000E+00 0.  1.
        -11    1    4    4    0    0 -0.40413318320E-02  0.38732261039E-01  0.63796840651E-03  0.38951104386E-01  0.51100000000E-03 0. -1.
         11    1    4    4    0    0 -0.30611166557E-01  0.82102569533E-01 -0.19773172906E-01  0.89828252402E-01  0.51100000000E-03 0.  1.
</event>
<event>
 8    1  0.1109294E+005  0.1043930E+01  0.7957747E-01            NaN
         13   -1    0    0    0    0  0.00000000000E+00  0.00000000000E+00  0.74505805969E-08  0.10566000000E+00  0.10566000000E+00 0. -1.
     999900   -1    0    0    0    0 -0.00000000000E+00 -0.00000000000E+00 -0.74505805969E-08  0.93827000000E+00  0.93827000000E+00 0.  1.
     999902    2    1    2    0    0  0.10084700778E-01 -0.84972918380E-02  0.21067109990E-01  0.10190758599E+01  0.10187727322E+01 0.  0.
     999903    2    3    3    0    0 -0.10543666652E+00 -0.66700349660E-01 -0.23393344368E-01  0.12850889762E+00  0.20036489595E-01 0.  0.
         14    1    1    2    0    0 -0.10084700778E-01  0.84972918380E-02 -0.21067109990E-01  0.24854140132E-01  0.00000000000E+00 0.  1.
     999901    1    3    3    0    0  0.11552136730E+00  0.58203057822E-01  0.44460454358E-01  0.89056696225E+00  0.88000000000E+00 0. -1.
        -11    1    4    4    0    0 -0.68571605082E-01 -0.52657068870E-01 -0.11000329761E-01  0.87155609695E-01  0.51100000000E-03 0.  1.
         11    1    4    4    0    0 -0.36865061440E-01 -0.14043280790E-01 -0.12393014607E-01  0.41353287927E-01  0.51100000000E-03 0. -1.
</event>
<event>
 8    1  0.1109294E+005  0.1043930E+01  0.7957747E-01            NaN
         13   -1    0    0    0    0  0.00000000000E+00  0.00000000000E+00  0.74505805969E-08  0.10566000000E+00  0.10566000000E+00 0.  1.
     999900   -1    0    0    0    0 -0.00000000000E+00 -0.00000000000E+00 -0.74505805969E-08  0.93827000000E+00  0.93827000000E+00 0.  1.
     999902    2    1    2    0    0  0.13829033138E-01 -0.84921364727E-02 -0.17362578827E-01  0.10201641067E+01  0.10198872423E+01 0.  0.
     999903    2    3    3    0    0 -0.68077957126E-01 -0.63650505467E-01 -0.90745863500E-01  0.13160555087E+00  0.19980344958E-01 0.  0.
         14    1    1    2    0    0 -0.13829033138E-01  0.84921364727E-02  0.17362578827E-01  0.23765893270E-01  0.00000000000E+00 0.  1.
     999901    1    3    3    0    0  0.81906990264E-01  0.55158368994E-01  0.73383284673E-01  0.88855855586E+00  0.88000000000E+00 0. -1.
        -11    1    4    4    0    0 -0.57654477378E-01 -0.53384832823E-01 -0.64947149647E-01  0.10194298654E+00  0.51100000000E-03 0. -1.
         11    1    4    4    0    0 -0.10423479748E-01 -0.10265672644E-01 -0.25798713852E-01  0.29662564325E-01  0.51100000000E-03 0.  1.
</event>
<event>
 8    1  0.1109294E+005  0.1043930E+01  0.7957747E-01            NaN
         13   -1    0    0    0    0  0.00000000000E+00  0.00000000000E+00  0.74505805969E-08  0.10566000000E+00  0.10566000000E+00 0. -1.
     999900   -1    0    0    0    0 -0.00000000000E+00 -0.00000000000E+00 -0.74505805969E-08  0.93827000000E+00  0.93827000000E+00 0.  1.
     999902    2    1    2    0    0 -0.30228501635E-02 -0.23537391506E-01  0.24905510599E-03  0.10201979868E+01  0.10199219205E+01 0.  0.
     999903    2    3    3    0    0  0.11952848360E+00  0.41964375064E-01 -0.12292833130E-01  0.12920606215E+00  0.22249170439E-01 0.  0.
         14    1    1    2    0    0  0.30228501635E-02  0.23537391506E-01 -0.24905510599E-03  0.23732013199E-01  0.00000000000E+00 0.  1.
     999901    1    3    3    0    0 -0.12255133376E+00 -0.65501766570E-01  0.12541888236E-01  0.89099192465E+00  0.88000000000E+00 0. -1.
        -11    1    4    4    0    0  0.73862578626E-01  0.18983315093E-01  0.14056698210E-02  0.76277675645E-01  0.51100000000E-03 0.  1.
         11    1    4    4    0    0  0.45665904970E-01  0.22981059971E-01 -0.13698502951E-01  0.52928386507E-01  0.51100000000E-03 0. -1.
</event>
<event>
 8    1  0.1109294E+005  0.1043930E+01  0.7957747E-01            NaN
         13   -1    0    0    0    0  0.00000000000E+00  0.00000000000E+00  0.74505805969E-08  0.10566000000E+00  0.10566000000E+00 0. -1.
     999900   -1    0    0    0    0 -0.00000000000E+00 -0.00000000000E+00 -0.74505805969E-08  0.93827000000E+00  0.93827000000E+00 0. -1.
     999902    2    1    2    0    0  0.91233385064E-02  0.12018695932E-01 -0.19442227279E-01  0.10193193405E+01  0.10190221948E+01 0.  0.
     999903    2    3    3    0    0 -0.29574237637E-01  0.11602813288E+00  0.46033547696E-01  0.12993610342E+00  0.20667373006E-01 0.  0.
         14    1    1    2    0    0 -0.91233385064E-02 -0.12018695932E-01  0.19442227279E-01  0.24610659458E-01  0.00000000000E+00 0. -1.
     999901    1    3    3    0    0  0.38697576143E-01 -0.10400943694E+00 -0.65475774975E-01  0.88938323713E+00  0.88000000000E+00 0.  1.
        -11    1    4    4    0    0 -0.15969398791E-02  0.16703543150E-01  0.14082090615E-01  0.21911754103E-01  0.51100000000E-03 0. -1.
         11    1    4    4    0    0 -0.27977297758E-01  0.99324589725E-01  0.31951457080E-01  0.10802434931E+00  0.51100000000E-03 0.  1.
</event>
<event>
 8    1  0.1109294E+005  0.1043930E+01  0.7957747E-01            NaN
         13   -1    0    0    0    0  0.00000000000E+00  0.00000000000E+00  0.74505805969E-08  0.10566000000E+00  0.10566000000E+00 0. -1.
     999900   -1    0    0    0    0 -0.00000000000E+00 -0.00000000000E+00 -0.74505805969E-08  0.93827000000E+00  0.93827000000E+00 0.  1.
     999902    2    1    2    0    0 -0.19485855592E-02  0.18848332634E-01  0.12774770853E-01  0.10210771796E+01  0.10208214121E+01 0.  0.
     999903    2    3    3    0    0  0.38827607526E-01  0.66155917889E-02 -0.12204932847E+00  0.12979166104E+00  0.19962152568E-01 0.  0.
         14    1    1    2    0    0  0.19485855592E-02 -0.18848332634E-01 -0.12774770853E-01  0.22852820376E-01  0.00000000000E+00 0.  1.
     999901    1    3    3    0    0 -0.40776193085E-01  0.12232740845E-01  0.13482409933E+00  0.89128551858E+00  0.88000000000E+00 0. -1.
        -11    1    4    4    0    0  0.95436908065E-02  0.43795448269E-02 -0.62654678318E-01  0.63530561804E-01  0.51100000000E-03 0. -1.
         11    1    4    4    0    0  0.29283916720E-01  0.22360469620E-02 -0.59394650155E-01  0.66261099240E-01  0.51100000000E-03 0.  1.
</event>
<event>
 7    1  0.1109294E+005  0.1043930E+01  0.7957747E-01            NaN
         13   -1    0    0    0    0  0.00000000000E+00  0.00000000000E+00  0.74505805969E-08  0.10566000000E+00  0.10566000000E+00 0. -1.
     999900   -1    0    0    0    0 -0.00000000000E+00 -0.00000000000E+00 -0.74505805969E-08  0.93827000000E+00  0.93827000000E+00 0.  1.
     999903    2    1    2    0    0  0.65659238837E-01 -0.80106071334E-01  0.74603854324E-02  0.10617541848E+00  0.22123377439E-01 0.  0.
         14    1    1    2    0    0 -0.36370940522E-01  0.17096593926E-01  0.35988112938E-01  0.53947039873E-01  0.00000000000E+00 0. -1.
     999901    1    1    2    0    0 -0.29288298316E-01  0.63009477408E-01 -0.43448498370E-01  0.88380754165E+00  0.88000000000E+00 0.  1.
        -11    1    3    3    0    0  0.29496594538E-01 -0.22916360493E-01 -0.39132715526E-02  0.37560397799E-01  0.51100000000E-03 0.  1.
         11    1    3    3    0    0  0.36162644299E-01 -0.57189710841E-01  0.11373656985E-01  0.68615020680E-01  0.51100000000E-03 0. -1.
</event>
<event>
 8    1  0.1109294E+005  0.1043930E+01  0.7957747E-01            NaN
         13   -1    0    0    0    0  0.00000000000E+00  0.00000000000E+00  0.74505805969E-08  0.10566000000E+00  0.10566000000E+00 0. -1.
     999900   -1    0    0    0    0 -0.00000000000E+00 -0.00000000000E+00 -0.74505805969E-08  0.93827000000E+00  0.93827000000E+00 0.  1.
     999902    2    1    2    0    0  0.10545108703E-01  0.17431255400E-01  0.11930302571E-01  0.10203211012E+01  0.10200479251E+01 0.  0.
     999903    2    3    3    0    0 -0.37210137529E-01 -0.11232011729E+00 -0.43884070838E-01  0.12777909854E+00  0.20032055986E-01 0.  0.
         14    1    1    2    0    0 -0.10545108703E-01 -0.17431255400E-01 -0.11930302571E-01  0.23608898785E-01  0.00000000000E+00 0.  1.
     999901    1    3    3    0    0  0.47755246233E-01  0.12975137269E+00  0.55814373409E-01  0.89254200267E+00  0.88000000000E+00 0.  1.
        -11    1    4    4    0    0 -0.32578431982E-01 -0.82933961151E-01 -0.40355428309E-01  0.97817267687E-01  0.51100000000E-03 0. -1.
         11    1    4    4    0    0 -0.46317055473E-02 -0.29386156141E-01 -0.35286425288E-02  0.29961830854E-01  0.51100000000E-03 0.  1.
</event>
<event>
 8    1  0.1109294E+005  0.1043930E+01  0.7957747E-01            NaN
         13   -1    0    0    0    0  0.00000000000E+00  0.00000000000E+00  0.74505805969E-08  0.10566000000E+00  0.10566000000E+00 0. -1.
     999900   -1    0    0    0    0 -0.00000000000E+00 -0.00000000000E+00 -0.74505805969E-08  0.93827000000E+00  0.93827000000E+00 0. -1.
     999902    2    1    2    0    0 -0.86591305472E-02  0.90031356722E-03  0.16748479002E-01  0.10250540191E+01  0.10248802073E+01 0.  0.
     999903    2    3    3    0    0  0.88724203128E-01  0.79985622819E-01 -0.55291951742E-01  0.13324247875E+00  0.20656092048E-01 0.  0.
         14    1    1    2    0    0  0.86591305472E-02 -0.90031356722E-03 -0.16748479002E-01  0.18875980908E-01  0.00000000000E+00 0.  1.
     999901    1    3    3    0    0 -0.97383333675E-01 -0.79085309252E-01  0.72040430744E-01  0.89181154034E+00  0.88000000000E+00 0. -1.
        -11    1    4    4    0    0  0.24078621405E-01  0.14492779342E-01 -0.20792983762E-01  0.34963265817E-01  0.51100000000E-03 0. -1.
         11    1    4    4    0    0  0.64645581723E-01  0.65492843477E-01 -0.34498967979E-01  0.98279212938E-01  0.51100000000E-03 0.  1.
</event>
<event>
 8    1  0.1334961E+005  0.1043930E+01  0.7957747E-01            NaN
         13   -1    0    0    0    0  0.00000000000E+00  0.00000000000E+00  0.74505805969E-08  0.10566000000E+00  0.10566000000E+00 0. -1.
     999900   -1    0    0    0    0 -0.00000000000E+00 -0.00000000000E+00 -0.74505805969E-08  0.93827000000E+00  0.93827000000E+00 0.  1.
     999902    2    1    2    0    0 -0.72613113364E-02  0.14564987209E-01 -0.15804282868E-01  0.10212443029E+01  0.10209923043E+01 0.  0.
     999903    2    3    3    0    0 -0.75585947881E-01 -0.85759587199E-01  0.58302632053E-01  0.12982683001E+00  0.19694328414E-01 0.  0.
         14    1    1    2    0    0  0.72613113364E-02 -0.14564987209E-01  0.15804282868E-01  0.22685697073E-01  0.00000000000E+00 0. -1.
     999901    1    3    3    0    0  0.68324636545E-01  0.10032457441E+00 -0.74106914920E-01  0.89141747292E+00  0.88000000000E+00 0.  1.
        -11    1    4    4    0    0 -0.26590671490E-01 -0.33770133127E-01  0.32427666736E-01  0.53845151988E-01  0.51100000000E-03 0. -1.
         11    1    4    4    0    0 -0.48995276392E-01 -0.51989454072E-01  0.25874965317E-01  0.75981678019E-01  0.51100000000E-03 0.  1.
</event>
<event>
 8    1  0.1109294E+005  0.1043930E+01  0.7957747E-01            NaN
         13   -1    0    0    0    0  0.00000000000E+00  0.00000000000E+00  0.74505805969E-08  0.10566000000E+00  0.10566000000E+00 0. -1.
     999900   -1    0    0    0    0 -0.00000000000E+00 -0.00000000000E+00 -0.74505805969E-08  0.93827000000E+00  0.93827000000E+00 0. -1.
     999902    2    1    2    0    0 -0.19085212457E-01 -0.62543921849E-02  0.12405401837E-01  0.10203237137E+01  0.10200505988E+01 0.  0.
     999903    2    3    3    0    0 -0.93577869655E-01 -0.29114560646E-01 -0.85329138913E-01  0.13149089272E+00  0.20107650003E-01 0.  0.
         14    1    1    2    0    0  0.19085212457E-01  0.62543921849E-02 -0.12405401837E-01  0.23606286258E-01  0.00000000000E+00 0.  1.
     999901    1    3    3    0    0  0.74492657198E-01  0.22860168461E-01  0.97734540750E-01  0.88883282103E+00  0.88000000000E+00 0.  1.
        -11    1    4    4    0    0 -0.73577631407E-01 -0.14055957170E-01 -0.66374202509E-01  0.10008513204E+00  0.51100000000E-03 0.  1.
         11    1    4    4    0    0 -0.20000238248E-01 -0.15058603476E-01 -0.18954936404E-01  0.31405760677E-01  0.51100000000E-03 0. -1.
</event>
<event>
 8    1  0.1109294E+005  0.1043930E+01  0.7957747E-01            NaN
         13   -1    0    0    0    0  0.00000000000E+00  0.00000000000E+00  0.74505805969E-08  0.10566000000E+00  0.10566000000E+00 0.  1.
     999900   -1    0    0    0    0 -0.00000000000E+00 -0.00000000000E+00 -0.74505805969E-08  0.93827000000E+00  0.93827000000E+00 0.  1.
     999902    2    1    2    0    0 -0.60900875546E-02  0.21903371343E-01  0.63482910021E-02  0.10203260249E+01  0.10200529640E+01 0.  0.
     999903    2    3    3    0    0 -0.48361852449E-01 -0.55225834608E-02 -0.11904059206E+00  0.13001065542E+00  0.19045741390E-01 0.  0.
         14    1    1    2    0    0  0.60900875546E-02 -0.21903371343E-01 -0.63482910021E-02  0.23603975115E-01  0.00000000000E+00 0.  1.
     999901    1    3    3    0    0  0.42271764895E-01  0.27425954803E-01  0.12538888306E+00  0.89031536946E+00  0.88000000000E+00 0. -1.
        -11    1    4    4    0    0 -0.18040342793E-01  0.60679600966E-02 -0.33754875374E-01  0.38754700881E-01  0.51100000000E-03 0. -1.
         11    1    4    4    0    0 -0.30321509656E-01 -0.11590543557E-01 -0.85285716686E-01  0.91255954542E-01  0.51100000000E-03 0.  1.
</event>
<event>
 8    1  0.1109294E+005  0.1043930E+01  0.7957747E-01            NaN
         13   -1    0    0    0    0  0.00000000000E+00  0.00000000000E+00  0.74505805969E-08  0.10566000000E+00  0.10566000000E+00 0. -1.
     999900   -1    0    0    0    0 -0.00000000000E+00 -0.00000000000E+00 -0.74505805969E-08  0.93827000000E+00  0.93827000000E+00 0. -1.
     999902    2    1    2    0    0 -0.10844899909E-01  0.24925502208E-02  0.20999374596E-01  0.10201645125E+01  0.10198876577E+01 0.  0.
     999903    2    3    3    0    0  0.61788397014E-01 -0.81232536706E-01  0.80155756946E-01  0.13124102676E+00  0.19563504499E-01 0.  0.
         14    1    1    2    0    0  0.10844899909E-01 -0.24925502208E-02 -0.20999374596E-01  0.23765487457E-01  0.00000000000E+00 0.  1.
     999901    1    3    3    0    0 -0.72633296923E-01  0.83725086927E-01 -0.59156382350E-01  0.88892348578E+00  0.88000000000E+00 0.  1.
        -11    1    4    4    0    0  0.41389661817E-01 -0.48821609535E-01  0.38679599713E-01  0.74786537678E-01  0.51100000000E-03 0. -1.
         11    1    4    4    0    0  0.20398735196E-01 -0.32410927171E-01  0.41476157233E-01  0.56454489082E-01  0.51100000000E-03 0.  1.
</event>
<event>
 8    1  0.1109294E+005  0.1043930E+01  0.7957747E-01            NaN
         13   -1    0    0    0    0  0.00000000000E+00  0.00000000000E+00  0.74505805969E-08  0.10566000000E+00  0.10566000000E+00 0. -1.
     999900   -1    0    0    0    0 -0.00000000000E+00 -0.00000000000E+00 -0.74505805969E-08  0.93827000000E+00  0.93827000000E+00 0. -1.
     999902    2    1    2    0    0  0.12874982951E-03 -0.79629295825E-03 -0.24241227988E-01  0.10196753552E+01  0.10193868462E+01 0.  0.
     999903    2    3    3    0    0  0.12707321370E+00 -0.31409684636E-02 -0.21991775158E-01  0.13056037140E+00  0.20122253428E-01 0.  0.
         14    1    1    2    0    0 -0.12874982951E-03  0.79629295825E-03  0.24241227988E-01  0.24254644779E-01  0.00000000000E+00 0. -1.
     999901    1    3    3    0    0 -0.12694446387E+00  0.23446755053E-02 -0.22494528300E-02  0.88911498382E+00  0.88000000000E+00 0. -1.
        -11    1    4    4    0    0  0.40050991577E-01  0.36003300559E-02 -0.15271100644E-01  0.43017577090E-01  0.51100000000E-03 0.  1.
         11    1    4    4    0    0  0.87022222125E-01 -0.67412985194E-02 -0.67206745134E-02  0.87542794314E-01  0.51100000000E-03 0. -1.
</event>
<event>
 8    1  0.1109294E+005  0.1043930E+01  0.7957747E-01            NaN
         13   -1    0    0    0    0  0.00000000000E+00  0.00000000000E+00  0.74505805969E-08  0.10566000000E+00  0.10566000000E+00 0.  1.
     999900   -1    0    0    0    0 -0.00000000000E+00 -0.00000000000E+00 -0.74505805969E-08  0.93827000000E+00  0.93827000000E+00 0. -1.
     999902    2    1    2    0    0  0.21010682246E-01 -0.12554012259E-01  0.64323727675E-02  0.10186233327E+01  0.10183089249E+01 0.  0.
     999903    2    3    3    0    0 -0.15452849945E-01 -0.33153792150E-01 -0.12150858696E+00  0.12838581981E+00  0.19509421261E-01 0.  0.
         14    1    1    2    0    0 -0.21010682246E-01  0.12554012259E-01 -0.64323727675E-02  0.25306667336E-01  0.00000000000E+00 0.  1.
     999901    1    3    3    0    0  0.36463532191E-01  0.20599779891E-01  0.12794095973E+00  0.89023751285E+00  0.88000000000E+00 0.  1.
        -11    1    4    4    0    0 -0.15201854784E-01 -0.21330687327E-01 -0.56112456286E-01  0.61927081977E-01  0.51100000000E-03 0.  1.
         11    1    4    4    0    0 -0.25099516069E-03 -0.11823104823E-01 -0.65396130677E-01  0.66458737836E-01  0.51100000000E-03 0. -1.
</event>
<event>
 8    1  0.1109294E+005  0.1043930E+01  0.7957747E-01            NaN
         13   -1    0    0    0    0  0.00000000000E+00  0.00000000000E+00  0.74505805969E-08  0.10566000000E+00  0.10566000000E+00 0. -1.
     999900   -1    0    0    0    0 -0.00000000000E+00 -0.00000000000E+00 -0.74505805969E-08  0.93827000000E+00  0.93827000000E+00 0.  1.
     999902    2    1    2    0    0 -0.44357442341E-02  0.20861941991E-01  0.74256494008E-02  0.10213460074E+01  0.10210962884E+01 0.  0.
     999903    2    3    3    0    0 -0.12119587666E+00  0.48563316721E-01  0.16841343014E-01  0.13315180010E+00  0.19973351887E-01 0.  0.
         14    1    1    2    0    0  0.44357442341E-02 -0.20861941991E-01 -0.74256494008E-02  0.22583992552E-01  0.00000000000E+00 0.  1.
     999901    1    3    3    0    0  0.11676013242E+00 -0.27701374730E-01 -0.94156936134E-02  0.88819420735E+00  0.88000000000E+00 0.  1.
        -11    1    4    4    0    0 -0.19342466822E-01  0.12652906575E-01  0.91994079514E-02  0.24882067744E-01  0.51100000000E-03 0.  1.
         11    1    4    4    0    0 -0.10185340983E+00  0.35910410146E-01  0.76419350629E-02  0.10826973235E+00  0.51100000000E-03 0. -1.
</event>
<event>
 8    1  0.1109294E+005  0.1043930E+01  0.7957747E-01            NaN
         13   -1    0    0    0    0  0.00000000000E+00  0.00000000000E+00  0.74505805969E-08  0.10566000000E+00  0.10566000000E+00 0.  1.
     999900   -1    0    0    0    0 -0.00000000000E+00 -0.00000000000E+00 -0.74505805969E-08  0.93827000000E+00  0.93827000000E+00 0. -1.
     999902    2    1    2    0    0 -0.20543496661E-01  0.10309346224E-01  0.49459318560E-02  0.10204187236E+01  0.10201478282E+01 0.  0.
     999903    2    3    3    0    0 -0.49998065053E-01 -0.47403053097E-01 -0.10923752956E+00  0.13067934859E+00  0.19934852162E-01 0.  0.
         14    1    1    2    0    0  0.20543496661E-01 -0.10309346224E-01 -0.49459318560E-02  0.23511276370E-01  0.00000000000E+00 0. -1.
     999901    1    3    3    0    0  0.29454568392E-01  0.57712399321E-01  0.11418346142E+00  0.88973937504E+00  0.88000000000E+00 0.  1.
        -11    1    4    4    0    0 -0.92145830339E-02 -0.18247265435E-01 -0.42929200307E-01  0.47550484712E-01  0.51100000000E-03 0. -1.
         11    1    4    4    0    0 -0.40783482020E-01 -0.29155787662E-01 -0.66308329257E-01  0.83128863878E-01  0.51100000000E-03 0.  1.
</event>
<event>
 8    1  0.1109294E+005  0.1043930E+01  0.7957747E-01            NaN
         13   -1    0    0    0    0  0.00000000000E+00  0.00000000000E+00  0.74505805969E-08  0.10566000000E+00  0.10566000000E+00 0. -1.
     999900   -1    0    0    0    0 -0.00000000000E+00 -0.00000000000E+00 -0.74505805969E-08  0.93827000000E+00  0.93827000000E+00 0. -1.
     999902    2    1    2    0    0 -0.16538160226E-01  0.11808303471E-01  0.11864893648E-01  0.10203986916E+01  0.10201273290E+01 0.  0.
     999903    2    3    3    0    0 -0.14819063684E-01 -0.11303382220E+00  0.60010347227E-01  0.13028268997E+00  0.19392986402E-01 0.  0.
         14    1    1    2    0    0  0.16538160226E-01 -0.11808303471E-01 -0.11864893648E-01  0.23531308417E-01  0.00000000000E+00 0.  1.
     999901    1    3    3    0    0 -0.17190965413E-02  0.12484212567E+00 -0.48145453579E-01  0.89011600162E+00  0.88000000000E+00 0. -1.
        -11    1    4    4    0    0 -0.79145065746E-02 -0.98773013412E-01  0.56424760866E-01  0.11402965558E+00  0.51100000000E-03 0. -1.
         11    1    4    4    0    0 -0.69045571098E-02 -0.14260808785E-01  0.35855863614E-02  0.16253034383E-01  0.51100000000E-03 0.  1.
</event>
<event>
 8    1  0.1109294E+005  0.1043930E+01  0.7957747E-01            NaN
         13   -1    0    0    0    0  0.00000000000E+00  0.00000000000E+00  0.74505805969E-08  0.10566000000E+00  0.10566000000E+00 0. -1.
     999900   -1    0    0    0    0 -0.00000000000E+00 -0.00000000000E+00 -0.74505805969E-08  0.93827000000E+00  0.93827000000E+00 0. -1.
     999902    2    1    2    0    0  0.15746026558E-01  0.10518897056E-01  0.14111467373E-01  0.10203139449E+01  0.10200406012E+01 0.  0.
     999903    2    3    3    0    0  0.44423310592E-01  0.99916276440E-01  0.73946981597E-01  0.13329953304E+00  0.18544988552E-01 0.  0.
         14    1    1    2    0    0 -0.15746026558E-01 -0.10518897056E-01 -0.14111467373E-01  0.23616055112E-01  0.00000000000E+00 0.  1.
     999901    1    3    3    0    0 -0.28677284035E-01 -0.89397379384E-01 -0.59835514224E-01  0.88701441185E+00  0.88000000000E+00 0. -1.
        -11    1    4    4    0    0  0.34229771574E-01  0.56605741222E-01  0.39713263153E-01  0.77157576378E-01  0.51100000000E-03 0. -1.
         11    1    4    4    0    0  0.10193539019E-01  0.43310535218E-01  0.34233718444E-01  0.56141956664E-01  0.51100000000E-03 0.  1.
</event>
<event>
 8    1  0.1109294E+005  0.1043930E+01  0.7957747E-01            NaN
         13   -1    0    0    0    0  0.00000000000E+00  0.00000000000E+00  0.74505805969E-08  0.10566000000E+00  0.10566000000E+00 0.  1.
     999900   -1    0    0    0    0 -0.00000000000E+00 -0.00000000000E+00 -0.74505805969E-08  0.93827000000E+00  0.93827000000E+00 0.  1.
     999902    2    1    2    0    0 -0.66940376934E-02 -0.12977360545E-01 -0.18093248381E-01  0.10206794588E+01  0.10204146069E+01 0.  0.
     999903    2    3    3    0    0 -0.59229121188E-01 -0.97446396705E-01  0.62736699368E-01  0.13139410895E+00  0.18017474642E-01 0.  0.
         14    1    1    2    0    0  0.66940376934E-02  0.12977360545E-01  0.18093248381E-01  0.23250541162E-01  0.00000000000E+00 0.  1.
     999901    1    3    3    0    0  0.52535083495E-01  0.84469036160E-01 -0.80829947749E-01  0.88928534989E+00  0.88000000000E+00 0.  1.
        -11    1    4    4    0    0 -0.23685215519E-01 -0.23455617915E-01  0.16902680906E-01  0.37378030830E-01  0.51100000000E-03 0. -1.
         11    1    4    4    0    0 -0.35543905669E-01 -0.73990778790E-01  0.45834018462E-01  0.94016078123E-01  0.51100000000E-03 0.  1.
</event>
<event>
 8    1  0.1109294E+005  0.1043930E+01  0.7957747E-01            NaN
         13   -1    0    0    0    0  0.00000000000E+00  0.00000000000E+00  0.74505805969E-08  0.10566000000E+00  0.10566000000E+00 0.  1.
     999900   -1    0    0    0    0 -0.00000000000E+00 -0.00000000000E+00 -0.74505805969E-08  0.93827000000E+00  0.93827000000E+00 0.  1.
     999902    2    1    2    0    0 -0.20053156387E-02 -0.23202667038E-01  0.66408014710E-03  0.10206313723E+01  0.10203654111E+01 0.  0.
     999903    2    3    3    0    0 -0.57313177259E-01 -0.43145952395E-01  0.10902091276E+00  0.13203815980E+00  0.20053496693E-01 0.  0.
         14    1    1    2    0    0  0.20053156387E-02  0.23202667038E-01 -0.66408014710E-03  0.23298627661E-01  0.00000000000E+00 0.  1.
     999901    1    3    3    0    0  0.55307861620E-01  0.19943285357E-01 -0.10835683261E+00  0.88859321253E+00  0.88000000000E+00 0.  1.
        -11    1    4    4    0    0 -0.32877190570E-01 -0.12256910107E-01  0.50412707222E-01  0.61423478211E-01  0.51100000000E-03 0.  1.
         11    1    4    4    0    0 -0.24435986689E-01 -0.30889042288E-01  0.58608205539E-01  0.70614681593E-01  0.51100000000E-03 0. -1.
</event>
<event>
 8    1  0.1109294E+005  0.1043930E+01  0.7957747E-01            NaN
         13   -1    0    0    0    0  0.00000000000E+00  0.00000000000E+00  0.74505805969E-08  0.10566000000E+00  0.10566000000E+00 0. -1.
     999900   -1    0    0    0    0 -0.00000000000E+00 -0.00000000000E+00 -0.74505805969E-08  0.93827000000E+00  0.93827000000E+00 0. -1.
     999902    2    1    2    0    0  0.20502415570E-01 -0.30350898186E-02  0.96858831531E-02  0.10210525625E+01  0.10207962374E+01 0.  0.
     999903    2    3    3    0    0 -0.84745373859E-02  0.12877587155E+00 -0.38384001271E-02  0.13066124426E+00  0.20064509988E-01 0.  0.
         14    1    1    2    0    0 -0.20502415570E-01  0.30350898186E-02 -0.96858831531E-02  0.22877437507E-01  0.00000000000E+00 0.  1.
     999901    1    3    3    0    0  0.28976952956E-01 -0.13181096136E+00  0.13524283280E-01  0.89039131823E+00  0.88000000000E+00 0.  1.
        -11    1    4    4    0    0 -0.12784364365E-01  0.53097746928E-01 -0.50372119049E-02  0.54849296493E-01  0.51100000000E-03 0.  1.
         11    1    4    4    0    0  0.43098269788E-02  0.75678124618E-01  0.11988117778E-02  0.75811947772E-01  0.51100000000E-03 0. -1.
</event>
<event>
 8    1  0.1109294E+005  0.1043930E+01  0.7957747E-01            NaN
         13   -1    0    0    0    0  0.00000000000E+00  0.00000000000E+00  0.74505805969E-08  0.10566000000E+00  0.10566000000E+00 0.  1.
     999900   -1    0    0    0    0 -0.00000000000E+00 -0.00000000000E+00 -0.74505805969E-08  0.93827000000E+00  0.93827000000E+00 0.  1.
     999902    2    1    2    0    0 -0.21866172877E-01 -0.24689519262E-02 -0.11282059104E-01  0.10192012698E+01  0.10189012309E+01 0.  0.
     999903    2    3    3    0    0 -0.44098815505E-01  0.64064545870E-01 -0.10419454384E+00  0.13153369320E+00  0.19890648887E-01 0.  0.
         14    1    1    2    0    0  0.21866172877E-01  0.24689519262E-02  0.11282059104E-01  0.24728730205E-01  0.00000000000E+00 0.  1.
     999901    1    3    3    0    0  0.22232642628E-01 -0.66533497796E-01  0.92912484735E-01  0.88766757660E+00  0.88000000000E+00 0. -1.
        -11    1    4    4    0    0 -0.10546112068E-01  0.31315056088E-01 -0.49128070968E-01  0.59208797451E-01  0.51100000000E-03 0. -1.
         11    1    4    4    0    0 -0.33552703437E-01  0.32749489782E-01 -0.55066472871E-01  0.72324895744E-01  0.51100000000E-03 0.  1.
</event>
<event>
 8    1  0.1109294E+005  0.1043930E+01  0.7957747E-01            NaN
         13   -1    0    0    0    0  0.00000000000E+00  0.00000000000E+00  0.74505805969E-08  0.10566000000E+00  0.10566000000E+00 0.  1.
     999900   -1    0    0    0    0 -0.00000000000E+00 -0.00000000000E+00 -0.74505805969E-08  0.93827000000E+00  0.93827000000E+00 0. -1.
     999902    2    1    2    0    0  0.23579109540E-01  0.26900812563E-02 -0.20495579281E-02  0.10201095963E+01  0.10198314453E+01 0.  0.
     999903    2    3    3    0    0 -0.45877320039E-02  0.12408327651E-01  0.12802799161E+00  0.13004893312E+00  0.18615705485E-01 0.  0.
         14    1    1    2    0    0 -0.23579109540E-01 -0.26900812563E-02  0.20495579281E-02  0.23820403682E-01  0.00000000000E+00 0.  1.
     999901    1    3    3    0    0  0.28166841544E-01 -0.97182463945E-02 -0.13007754954E+00  0.89006066320E+00  0.88000000000E+00 0. -1.
        -11    1    4    4    0    0 -0.95526461899E-02  0.14391452113E-01  0.90057578734E-01  0.91700575525E-01  0.51100000000E-03 0.  1.
         11    1    4    4    0    0  0.49649141860E-02 -0.19831244621E-02  0.37970412875E-01  0.38348357598E-01  0.51100000000E-03 0. -1.
</event>
<event>
 8    1  0.1109294E+005  0.1043930E+01  0.7957747E-01            NaN
         13   -1    0    0    0    0  0.00000000000E+00  0.00000000000E+00  0.74505805969E-08  0.10566000000E+00  0.10566000000E+00 0. -1.
     999900   -1    0    0    0    0 -0.00000000000E+00 -0.00000000000E+00 -0.74505805969E-08  0.93827000000E+00  0.93827000000E+00 0.  1.
     999902    2    1    2    0    0  0.26758589731E-02  0.93345763445E-02 -0.22486202055E-01  0.10194366576E+01  0.10191423724E+01 0.  0.
     999903    2    3    3    0    0 -0.99649971392E-01  0.14693238008E-01 -0.81943273932E-01  0.13149835224E+00  0.20763151424E-01 0.  0.
         14    1    1    2    0    0 -0.26758589731E-02 -0.93345763445E-02  0.22486202055E-01  0.24493342354E-01  0.00000000000E+00 0. -1.
     999901    1    3    3    0    0  0.10232583037E+00 -0.53586616640E-02  0.59457071877E-01  0.88793830541E+00  0.88000000000E+00 0. -1.
        -11    1    4    4    0    0 -0.20621493132E-01 -0.53530674838E-02 -0.17228172050E-01  0.27403874610E-01  0.51100000000E-03 0.  1.
         11    1    4    4    0    0 -0.79028478260E-01  0.20046305492E-01 -0.64715101882E-01  0.10409447763E+00  0.51100000000E-03 0. -1.
</event>
<event>
 8    1  0.1109294E+005  0.1043930E+01  0.7957747E-01            NaN
         13   -1    0    0    0    0  0.00000000000E+00  0.00000000000E+00  0.74505805969E-08  0.10566000000E+00  0.10566000000E+00 0. -1.
     999900   -1    0    0    0    0 -0.00000000000E+00 -0.00000000000E+00 -0.74505805969E-08  0.93827000000E+00  0.93827000000E+00 0.  1.
     999902    2    1    2    0    0 -0.91655672004E-02  0.19460736649E-01  0.49753139619E-02  0.10218510136E+01  0.10216124570E+01 0.  0.
     999903    2    3    3    0    0 -0.41229723220E-01 -0.82356075868E-02 -0.12302526611E+00  0.13158175874E+00  0.20268888061E-01 0.  0.
         14    1    1    2    0    0  0.91655672004E-02 -0.19460736649E-01 -0.49753139619E-02  0.22078986436E-01  0.00000000000E+00 0.  1.
     999901    1    3    3    0    0  0.32064156020E-01  0.27696344236E-01  0.12800058007E+00  0.89026925482E+00  0.88000000000E+00 0. -1.
        -11    1    4    4    0    0 -0.18112672414E-01 -0.42905690328E-02 -0.84085773055E-01  0.86122913536E-01  0.51100000000E-03 0. -1.
         11    1    4    4    0    0 -0.23117050806E-01 -0.39450385540E-02 -0.38939493052E-01  0.45458845204E-01  0.51100000000E-03 0.  1.
</event>
<event>
 8    1  0.1109294E+005  0.1043930E+01  0.7957747E-01            NaN
         13   -1    0    0    0    0  0.00000000000E+00  0.00000000000E+00  0.74505805969E-08  0.10566000000E+00  0.10566000000E+00 0.  1.
     999900   -1    0    0    0    0 -0.00000000000E+00 -0.00000000000E+00 -0.74505805969E-08  0.93827000000E+00  0.93827000000E+00 0. -1.
     999902    2    1    2    0    0 -0.22630353276E-01 -0.10072513600E-02  0.10089250187E-02  0.10212547850E+01  0.10210030218E+01 0.  0.
     999903    2    3    3    0    0  0.31243425246E-01  0.12420798142E+00  0.15111571319E-01  0.13064818098E+00  0.20900079785E-01 0.  0.
         14    1    1    2    0    0  0.22630353276E-01  0.10072513600E-02 -0.10089250187E-02  0.22675214980E-01  0.00000000000E+00 0.  1.
     999901    1    3    3    0    0 -0.53873778522E-01 -0.12521523278E+00 -0.14102646300E-01  0.89060660404E+00  0.88000000000E+00 0.  1.
        -11    1    4    4    0    0  0.12642760904E-01  0.62606194866E-01  0.17589358737E-01  0.66249692079E-01  0.51100000000E-03 0.  1.
         11    1    4    4    0    0  0.18600664342E-01  0.61601786555E-01 -0.24777874182E-02  0.64398488897E-01  0.51100000000E-03 0. -1.
</event>
<event>
 8    1  0.1109294E+005  0.1043930E+01  0.7957747E-01            NaN
         13   -1    0    0    0    0  0.00000000000E+00  0.00000000000E+00  0.74505805969E-08  0.10566000000E+00  0.10566000000E+00 0. -1.
     999900   -1    0    0    0    0 -0.00000000000E+00 -0.00000000000E+00 -0.74505805969E-08  0.93827000000E+00  0.93827000000E+00 0. -1.
     999902    2    1    2    0    0 -0.22664720266E-02 -0.86754050615E-02 -0.28351694646E-01  0.10141941943E+01  0.10137581791E+01 0.  0.
     999903    2    3    3    0    0 -0.49661952508E-01  0.89758760696E-01 -0.70891320077E-01  0.12641875186E+00  0.20812902504E-01 0.  0.
         14    1    1    2    0    0  0.22664720266E-02  0.86754050615E-02  0.28351694646E-01  0.29735805651E-01  0.00000000000E+00 0. -1.
     999901    1    3    3    0    0  0.47395480482E-01 -0.98434165757E-01  0.42539625431E-01  0.88777544249E+00  0.88000000000E+00 0. -1.
        -11    1    4    4    0    0 -0.38619861385E-01  0.81108242847E-01 -0.55537613121E-01  0.10561594739E+00  0.51100000000E-03 0.  1.
         11    1    4    4    0    0 -0.11042091123E-01  0.86505178487E-02 -0.15353706956E-01  0.20802804467E-01  0.51100000000E-03 0. -1.
</event>
<event>
 8    1  0.1109294E+005  0.1043930E+01  0.7957747E-01            NaN
         13   -1    0    0    0    0  0.00000000000E+00  0.00000000000E+00  0.74505805969E-08  0.10566000000E+00  0.10566000000E+00 0. -1.
     999900   -1    0    0    0    0 -0.00000000000E+00 -0.00000000000E+00 -0.74505805969E-08  0.93827000000E+00  0.93827000000E+00 0.  1.
     999902    2    1    2    0    0 -0.16000637348E-01  0.17701282429E-01  0.13039715174E-02  0.10200332191E+01  0.10197532603E+01 0.  0.
     999903    2    3    3    0    0  0.62609171764E-01 -0.74795912756E-01  0.80535339361E-01  0.12817401338E+00  0.20695406851E-01 0.  0.
         14    1    1    2    0    0  0.16000637348E-01 -0.17701282429E-01 -0.13039715174E-02  0.23896780889E-01  0.00000000000E+00 0.  1.
     999901    1    3    3    0    0 -0.78609809112E-01  0.92497195184E-01 -0.79231367844E-01  0.89185920574E+00  0.88000000000E+00 0.  1.
        -11    1    4    4    0    0  0.45255089079E-02 -0.17151694524E-01  0.11890025966E-01  0.21361055554E-01  0.51100000000E-03 0. -1.
         11    1    4    4    0    0  0.58083662856E-01 -0.57644218232E-01  0.68645313395E-01  0.10681295782E+00  0.51100000000E-03 0.  1.
</event>
<event>
 8    1  0.1109294E+005  0.1043930E+01  0.7957747E-01            NaN
         13   -1    0    0    0    0  0.00000000000E+00  0.00000000000E+00  0.74505805969E-08  0.10566000000E+00  0.10566000000E+00 0. -1.
     999900   -1    0    0    0    0 -0.00000000000E+00 -0.00000000000E+00 -0.74505805969E-08  0.93827000000E+00  0.93827000000E+00 0. -1.
     999902    2    1    2    0    0  0.47322648909E-02 -0.14828637499E-01  0.16644314537E-01  0.10211414935E+01  0.10208871797E+01 0.  0.
     999903    2    3    3    0    0 -0.39678094172E-01 -0.65157470369E-01  0.10826621289E+00  0.13384230854E+00  0.19296206880E-01 0.  0.
         14    1    1    2    0    0 -0.47322648909E-02  0.14828637499E-01 -0.16644314537E-01  0.22788506478E-01  0.00000000000E+00 0.  1.
     999901    1    3    3    0    0  0.44410359063E-01  0.50328832870E-01 -0.91621898353E-01  0.88729918498E+00  0.88000000000E+00 0. -1.
        -11    1    4    4    0    0 -0.18655904256E-01 -0.34134304613E-01  0.38994977137E-01  0.55082328182E-01  0.51100000000E-03 0.  1.
         11    1    4    4    0    0 -0.21022189916E-01 -0.31023165756E-01  0.69271235753E-01  0.78759980359E-01  0.51100000000E-03 0. -1.
</event>
<event>
 7    1  0.1109294E+005  0.1043930E+01  0.7957747E-01            NaN
         13   -1    0    0    0    0  0.00000000000E+00  0.00000000000E+00  0.74505805969E-08  0.10566000000E+00  0.10566000000E+00 0.  1.
     999900   -1    0    0    0    0 -0.00000000000E+00 -0.00000000000E+00 -0.74505805969E-08  0.93827000000E+00  0.93827000000E+00 0. -1.
     999903    2    1    2    0    0 -0.77781369050E-01 -0.70758725534E-01  0.27954141222E-01  0.11050771568E+00  0.19333458141E-01 0.  0.
         14    1    1    2    0    0 -0.74807801893E-02 -0.36739356785E-01 -0.20558050961E-01  0.42759512024E-01  0.00000000000E+00 0. -1.
     999901    1    1    2    0    0  0.85262149240E-01  0.10749808232E+00 -0.73960902608E-02  0.89066277229E+00  0.88000000000E+00 0. -1.
        -11    1    3    3    0    0 -0.64768996636E-01 -0.49026573581E-01  0.25041602584E-01  0.85005710534E-01  0.51100000000E-03 0. -1.
         11    1    3    3    0    0 -0.13012372414E-01 -0.21732151954E-01  0.29125386378E-02  0.25502005150E-01  0.51100000000E-03 0.  1.
</event>
<event>
 8    1  0.1109294E+005  0.1043930E+01  0.7957747E-01            NaN
         13   -1    0    0    0    0  0.00000000000E+00  0.00000000000E+00  0.74505805969E-08  0.10566000000E+00  0.10566000000E+00 0. -1.
     999900   -1    0    0    0    0 -0.00000000000E+00 -0.00000000000E+00 -0.74505805969E-08  0.93827000000E+00  0.93827000000E+00 0. -1.
     999902    2    1    2    0    0 -0.21555325472E-01 -0.59013806517E-02  0.83717221256E-02  0.10200648773E+01  0.10197856686E+01 0.  0.
     999903    2    3    3    0    0  0.57078112408E-01 -0.29362075085E-01  0.11172711940E+00  0.13022446471E+00  0.18852576241E-01 0.  0.
         14    1    1    2    0    0  0.21555325472E-01  0.59013806517E-02 -0.83717221256E-02  0.23865122693E-01  0.00000000000E+00 0.  1.
     999901    1    3    3    0    0 -0.78633437880E-01  0.23460694433E-01 -0.10335539728E+00  0.88984041259E+00  0.88000000000E+00 0. -1.
        -11    1    4    4    0    0  0.54956144432E-01 -0.26622944013E-01  0.93581860100E-01  0.11174428227E+00  0.51100000000E-03 0.  1.
         11    1    4    4    0    0  0.21219679757E-02 -0.27391310721E-02  0.18145259302E-01  0.18480182447E-01  0.51100000000E-03 0. -1.
</event>
<event>
 8    1  0.1109294E+005  0.1043930E+01  0.7957747E-01            NaN
         13   -1    0    0    0    0  0.00000000000E+00  0.00000000000E+00  0.74505805969E-08  0.10566000000E+00  0.10566000000E+00 0. -1.
     999900   -1    0    0    0    0 -0.00000000000E+00 -0.00000000000E+00 -0.74505805969E-08  0.93827000000E+00  0.93827000000E+00 0. -1.
     999902    2    1    2    0    0  0.14977806179E-03 -0.12441901168E-01 -0.20650590130E-01  0.10198204539E+01  0.10195354276E+01 0.  0.
     999903    2    3    3    0    0 -0.25485581563E-01  0.11682824829E+00  0.40525690410E-01  0.12790651163E+00  0.20479005559E-01 0.  0.
         14    1    1    2    0    0 -0.14977806179E-03  0.12441901168E-01  0.20650590130E-01  0.24109546053E-01  0.00000000000E+00 0. -1.
     999901    1    3    3    0    0  0.25635359625E-01 -0.12927014945E+00 -0.61176280540E-01  0.89191394232E+00  0.88000000000E+00 0. -1.
        -11    1    4    4    0    0 -0.21105723932E-01  0.49685243372E-01  0.19762777806E-01  0.57488290106E-01  0.51100000000E-03 0. -1.
         11    1    4    4    0    0 -0.43798576309E-02  0.67143004913E-01  0.20762912604E-01  0.70418221522E-01  0.51100000000E-03 0.  1.
</event>
<event>
 8    1  0.1109294E+005  0.1043930E+01  0.7957747E-01            NaN
         13   -1    0    0    0    0  0.00000000000E+00  0.00000000000E+00  0.74505805969E-08  0.10566000000E+00  0.10566000000E+00 0. -1.
     999900   -1    0    0    0    0 -0.00000000000E+00 -0.00000000000E+00 -0.74505805969E-08  0.93827000000E+00  0.93827000000E+00 0. -1.
     999902    2    1    2    0    0  0.77132739875E-02 -0.22344883984E-01  0.91434223656E-02  0.10185845742E+01  0.10182691904E+01 0.  0.
     999903    2    3    3    0    0 -0.11662425337E+00  0.46542911108E-01  0.20017712409E-02  0.12714957815E+00  0.19888415928E-01 0.  0.
         14    1    1    2    0    0 -0.77132739875E-02  0.22344883984E-01 -0.91434223656E-02  0.25345425789E-01  0.00000000000E+00 0. -1.
     999901    1    3    3    0    0  0.12433752735E+00 -0.68887795093E-01  0.71416511248E-02  0.89143499606E+00  0.88000000000E+00 0. -1.
        -11    1    4    4    0    0 -0.10465204365E+00  0.45675704117E-01 -0.27751128969E-02  0.11422032463E+00  0.51100000000E-03 0.  1.
         11    1    4    4    0    0 -0.11972209719E-01  0.86720699151E-03  0.47768841378E-02  0.12929253520E-01  0.51100000000E-03 0. -1.
</event>
<event>
 8    1  0.1109294E+005  0.1043930E+01  0.7957747E-01            NaN
         13   -1    0    0    0    0  0.00000000000E+00  0.00000000000E+00  0.74505805969E-08  0.10566000000E+00  0.10566000000E+00 0.  1.
     999900   -1    0    0    0    0 -0.00000000000E+00 -0.00000000000E+00 -0.74505805969E-08  0.93827000000E+00  0.93827000000E+00 0.  1.
     999902    2    1    2    0    0 -0.20404540484E-01  0.83552763745E-02 -0.21285921520E-02  0.10217785481E+01  0.10215384058E+01 0.  0.
     999903    2    3    3    0    0  0.89185065280E-01 -0.72986079434E-01  0.55408979275E-01  0.12940145856E+00  0.19840333481E-01 0.  0.
         14    1    1    2    0    0  0.20404540484E-01 -0.83552763745E-02  0.21285921520E-02  0.22151451876E-01  0.00000000000E+00 0.  1.
     999901    1    3    3    0    0 -0.10958960576E+00  0.81341355809E-01 -0.57537571427E-01  0.89237708957E+00  0.88000000000E+00 0.  1.
        -11    1    4    4    0    0  0.26594746100E-01 -0.27712988506E-01  0.27595300262E-01  0.47297483755E-01  0.51100000000E-03 0. -1.
         11    1    4    4    0    0  0.62590319180E-01 -0.45273090929E-01  0.27813679013E-01  0.82103974803E-01  0.51100000000E-03 0.  1.
</event>
<event>
 8    1  0.1109294E+005  0.1043930E+01  0.7957747E-01            NaN
         13   -1    0    0    0    0  0.00000000000E+00  0.00000000000E+00  0.74505805969E-08  0.10566000000E+00  0.10566000000E+00 0. -1.
     999900   -1    0    0    0    0 -0.00000000000E+00 -0.00000000000E+00 -0.74505805969E-08  0.93827000000E+00  0.93827000000E+00 0.  1.
     999902    2    1    2    0    0 -0.19139623531E-03 -0.75796633909E-02  0.21502955501E-01  0.10211294512E+01  0.10208748656E+01 0.  0.
     999903    2    3    3    0    0 -0.93712623105E-01  0.88178670568E-01 -0.86519066226E-02  0.13049754402E+00  0.19930374697E-01 0.  0.
         14    1    1    2    0    0  0.19139623531E-03  0.75796633909E-02 -0.21502955501E-01  0.22800548785E-01  0.00000000000E+00 0.  1.
     999901    1    3    3    0    0  0.93521226870E-01 -0.95758333959E-01  0.30154862123E-01  0.89063190719E+00  0.88000000000E+00 0. -1.
        -11    1    4    4    0    0 -0.36536785257E-01  0.29422727357E-01 -0.12068144739E-01  0.48441044585E-01  0.51100000000E-03 0. -1.
         11    1    4    4    0    0 -0.57175837848E-01  0.58755943211E-01  0.34162381162E-02  0.82056499439E-01  0.51100000000E-03 0.  1.
</event>
<event>
 8    1  0.1109294E+005  0.1043930E+01  0.7957747E-01            NaN
         13   -1    0    0    0    0  0.00000000000E+00  0.00000000000E+00  0.74505805969E-08  0.10566000000E+00  0.10566000000E+00 0.  1.
     999900   -1    0    0    0    0 -0.00000000000E+00 -0.00000000000E+00 -0.74505805969E-08  0.93827000000E+00  0.93827000000E+00 0. -1.
     999902    2    1    2    0    0  0.21146336500E-01 -0.96551572165E-02 -0.29677133937E-02  0.10204950489E+01  0.10202259299E+01 0.  0.
     999903    2    3    3    0    0  0.10356614993E+00  0.69030178236E-01  0.39182377736E-01  0.13214768566E+00  0.20895913041E-01 0.  0.
         14    1    1    2    0    0 -0.21146336500E-01  0.96551572165E-02  0.29677133937E-02  0.23434951057E-01  0.00000000000E+00 0.  1.
     999901    1    3    3    0    0 -0.82419813435E-01 -0.78685335452E-01 -0.42150091130E-01  0.88834736328E+00  0.88000000000E+00 0. -1.
        -11    1    4    4    0    0  0.30738662549E-01  0.11719381506E-01  0.16163181260E-01  0.36656770557E-01  0.51100000000E-03 0. -1.
         11    1    4    4    0    0  0.72827487385E-01  0.57310796730E-01  0.23019196477E-01  0.95490915108E-01  0.51100000000E-03 0.  1.
</event>
<event>
 8    1  0.1109294E+005  0.1043930E+01  0.7957747E-01            NaN
         13   -1    0    0    0    0  0.00000000000E+00  0.00000000000E+00  0.74505805969E-08  0.10566000000E+00  0.10566000000E+00 0. -1.
     999900   -1    0    0    0    0 -0.00000000000E+00 -0.00000000000E+00 -0.74505805969E-08  0.93827000000E+00  0.93827000000E+00 0.  1.
     999902    2    1    2    0    0  0.71087190557E-02  0.21186978606E-01  0.59981992928E-02  0.10207912804E+01  0.10205289990E+01 0.  0.
     999903    2    3    3    0    0 -0.58970357351E-01  0.10945001304E+00  0.43035087106E-01  0.13313789162E+00  0.20417420580E-01 0.  0.
         14    1    1    2    0    0 -0.71087190557E-02 -0.21186978606E-01 -0.59981992928E-02  0.23138719580E-01  0.00000000000E+00 0. -1.
     999901    1    3    3    0    0  0.66079076406E-01 -0.88263034433E-01 -0.37036887813E-01  0.88765338880E+00  0.88000000000E+00 0.  1.
        -11    1    4    4    0    0 -0.41430607984E-01  0.86000290100E-01  0.40640998165E-01  0.10375209409E+00  0.51100000000E-03 0.  1.
         11    1    4    4    0    0 -0.17539749366E-01  0.23449722938E-01  0.23940889411E-02  0.29385797532E-01  0.51100000000E-03 0. -1.
</event>
<event>
 8    1  0.1109294E+005  0.1043930E+01  0.7957747E-01            NaN
         13   -1    0    0    0    0  0.00000000000E+00  0.00000000000E+00  0.74505805969E-08  0.10566000000E+00  0.10566000000E+00 0. -1.
     999900   -1    0    0    0    0 -0.00000000000E+00 -0.00000000000E+00 -0.74505805969E-08  0.93827000000E+00  0.93827000000E+00 0.  1.
     999902    2    1    2    0    0  0.31471850419E-02  0.22785130435E-01  0.11485260644E-01  0.10182205046E+01  0.10178958777E+01 0.  0.
     999903    2    3    3    0    0 -0.46376054622E-01 -0.93471841400E-01  0.70305559710E-01  0.12725021195E+00  0.19026853092E-01 0.  0.
         14    1    1    2    0    0 -0.31471850419E-02 -0.22785130435E-01 -0.11485260644E-01  0.25709495419E-01  0.00000000000E+00 0. -1.
     999901    1    3    3    0    0  0.49523239664E-01  0.11625697183E+00 -0.58820299065E-01  0.89097029263E+00  0.88000000000E+00 0.  1.
        -11    1    4    4    0    0 -0.24067112458E-01 -0.45225533923E-01  0.45785342634E-01  0.68710505323E-01  0.51100000000E-03 0. -1.
         11    1    4    4    0    0 -0.22308942164E-01 -0.48246307477E-01  0.24520217075E-01  0.58539706628E-01  0.51100000000E-03 0.  1.
</event>
<event>
 8    1  0.1109294E+005  0.1043930E+01  0.7957747E-01            NaN
         13   -1    0    0    0    0  0.00000000000E+00  0.00000000000E+00  0.74505805969E-08  0.10566000000E+00  0.10566000000E+00 0.  1.
     999900   -1    0    0    0    0 -0.00000000000E+00 -0.00000000000E+00 -0.74505805969E-08  0.93827000000E+00  0.93827000000E+00 0. -1.
     999902    2    1    2    0    0 -0.15735594513E-01 -0.52469155845E-04  0.17614573563E-01  0.10203104130E+01  0.10200369866E+01 0.  0.
     999903    2    3    3    0    0  0.24572228193E-01 -0.12624650969E+00 -0.20866490996E-02  0.13017683056E+00  0.19991935935E-01 0.  0.
         14    1    1    2    0    0  0.15735594513E-01  0.52469155845E-04 -0.17614573563E-01  0.23619586989E-01  0.00000000000E+00 0. -1.
     999901    1    3    3    0    0 -0.40307822707E-01  0.12619404053E+00  0.19701222663E-01  0.89013358245E+00  0.88000000000E+00 0. -1.
        -11    1    4    4    0    0 -0.24058687448E-03 -0.13346520109E-01  0.52396159242E-02  0.14349291867E-01  0.51100000000E-03 0.  1.
         11    1    4    4    0    0  0.24812815068E-01 -0.11289998958E+00 -0.73262650238E-02  0.11582753869E+00  0.51100000000E-03 0. -1.
</event>
<event>
 8    1  0.1109294E+005  0.1043930E+01  0.7957747E-01            NaN
         13   -1    0    0    0    0  0.00000000000E+00  0.00000000000E+00  0.74505805969E-08  0.10566000000E+00  0.10566000000E+00 0.  1.
     999900   -1    0    0    0    0 -0.00000000000E+00 -0.00000000000E+00 -0.74505805969E-08  0.93827000000E+00  0.93827000000E+00 0.  1.
     999902    2    1    2    0    0 -0.77245755829E-02  0.97122284518E-02 -0.20429751209E-01  0.10200266282E+01  0.10197465131E+01 0.  0.
     999903    2    3    3    0    0  0.11150869542E+00 -0.59921745939E-01 -0.16586861206E-01  0.12925155495E+00  0.20150327599E-01 0.  0.
         14    1    1    2    0    0  0.77245755829E-02 -0.97122284518E-02  0.20429751209E-01  0.23903371810E-01  0.00000000000E+00 0.  1.
     999901    1    3    3    0    0 -0.11923327100E+00  0.69633974391E-01 -0.38428900022E-02  0.89077507324E+00  0.88000000000E+00 0. -1.
        -11    1    4    4    0    0  0.75144924096E-01 -0.33369792227E-01 -0.32404226707E-02  0.82286475868E-01  0.51100000000E-03 0. -1.
         11    1    4    4    0    0  0.36363771320E-01 -0.26551953712E-01 -0.13346438536E-01  0.46965079082E-01  0.51100000000E-03 0.  1.
</event>
<event>
 8    1  0.1109294E+005  0.1043930E+01  0.7957747E-01            NaN
         13   -1    0    0    0    0  0.00000000000E+00  0.00000000000E+00  0.74505805969E-08  0.10566000000E+00  0.10566000000E+00 0. -1.
     999900   -1    0    0    0    0 -0.00000000000E+00 -0.00000000000E+00 -0.74505805969E-08  0.93827000000E+00  0.93827000000E+00 0.  1.
     999902    2    1    2    0    0 -0.67168417841E-02  0.18561330178E-01 -0.13784729684E-01  0.10198539182E+01  0.10195696920E+01 0.  0.
     999903    2    3    3    0    0 -0.86318975924E-01 -0.37432391580E-01 -0.88895050004E-01  0.13130827682E+00  0.22076777418E-01 0.  0.
         14    1    1    2    0    0  0.67168417841E-02 -0.18561330178E-01  0.13784729684E-01  0.24076081782E-01  0.00000000000E+00 0.  1.
     999901    1    3    3    0    0  0.79602134140E-01  0.55993721758E-01  0.75110320319E-01  0.88854564140E+00  0.88000000000E+00 0. -1.
        -11    1    4    4    0    0 -0.59421606097E-01 -0.16208059381E-01 -0.48929560719E-01  0.78663787687E-01  0.51100000000E-03 0. -1.
         11    1    4    4    0    0 -0.26897369827E-01 -0.21224332199E-01 -0.39965489284E-01  0.52644489129E-01  0.51100000000E-03 0.  1.
</event>
<event>
 8    1  0.1109294E+005  0.1043930E+01  0.7957747E-01            NaN
         13   -1    0    0    0    0  0.00000000000E+00  0.00000000000E+00  0.74505805969E-08  0.10566000000E+00  0.10566000000E+00 0.  1.
     999900   -1    0    0    0    0 -0.00000000000E+00 -0.00000000000E+00 -0.74505805969E-08  0.93827000000E+00  0.93827000000E+00 0.  1.
     999902    2    1    2    0    0  0.15509382429E-01  0.18442987584E-01  0.45302081405E-02  0.10194104666E+01  0.10191155439E+01 0.  0.
     999903    2    3    3    0    0  0.40025386350E-01 -0.66056382772E-01  0.10218838792E+00  0.12964740927E+00  0.20012667189E-01 0.  0.
         14    1    1    2    0    0 -0.15509382429E-01 -0.18442987584E-01 -0.45302081405E-02  0.24519533440E-01  0.00000000000E+00 0. -1.
     999901    1    3    3    0    0 -0.24516003922E-01  0.84499370356E-01 -0.97658179776E-01  0.88976305729E+00  0.88000000000E+00 0.  1.
        -11    1    4    4    0    0  0.34069145028E-01 -0.41263602497E-01  0.77273928722E-01  0.93994216392E-01  0.51100000000E-03 0. -1.
         11    1    4    4    0    0  0.59562413222E-02 -0.24792780275E-01  0.24914459194E-01  0.35653192878E-01  0.51100000000E-03 0.  1.
</event>
<event>
 8    1  0.1109294E+005  0.1043930E+01  0.7957747E-01            NaN
         13   -1    0    0    0    0  0.00000000000E+00  0.00000000000E+00  0.74505805969E-08  0.10566000000E+00  0.10566000000E+00 0.  1.
     999900   -1    0    0    0    0 -0.00000000000E+00 -0.00000000000E+00 -0.74505805969E-08  0.93827000000E+00  0.93827000000E+00 0. -1.
     999902    2    1    2    0    0  0.11395765377E-01  0.13667790842E-01 -0.15468084705E-01  0.10203517554E+01  0.10200792965E+01 0.  0.
     999903    2    3    3    0    0  0.61228354901E-01 -0.99688660378E-01  0.51121803733E-01  0.12919117206E+00  0.19752966118E-01 0.  0.
         14    1    1    2    0    0 -0.11395765377E-01 -0.13667790842E-01  0.15468084705E-01  0.23578244622E-01  0.00000000000E+00 0. -1.
     999901    1    3    3    0    0 -0.49832589524E-01  0.11335645122E+00 -0.66589888438E-01  0.89116058331E+00  0.88000000000E+00 0. -1.
        -11    1    4    4    0    0  0.23753333477E-01 -0.24311652353E-01  0.95724683694E-02  0.35315302109E-01  0.51100000000E-03 0. -1.
         11    1    4    4    0    0  0.37475021424E-01 -0.75377008025E-01  0.41549335363E-01  0.93875869954E-01  0.51100000000E-03 0.  1.
</event>
<event>
 8    1  0.1109294E+005  0.1043930E+01  0.7957747E-01            NaN
         13   -1    0    0    0    0  0.00000000000E+00  0.00000000000E+00  0.74505805969E-08  0.10566000000E+00  0.10566000000E+00 0.  1.
     999900   -1    0    0    0    0 -0.00000000000E+00 -0.00000000000E+00 -0.74505805969E-08  0.93827000000E+00  0.93827000000E+00 0. -1.
     999902    2    1    2    0    0  0.10292892171E-01 -0.14770723249E-01 -0.16279505568E-01  0.10196577896E+01  0.10193688576E+01 0.  0.
     999903    2    3    3    0    0  0.89327094234E-01  0.43788483571E-01  0.79599757968E-01  0.12900161637E+00  0.20212236378E-01 0.  0.
         14    1    1    2    0    0 -0.10292892171E-01  0.14770723249E-01  0.16279505568E-01  0.24272210366E-01  0.00000000000E+00 0.  1.
     999901    1    3    3    0    0 -0.79034202064E-01 -0.58559206820E-01 -0.95879263536E-01  0.89065617327E+00  0.88000000000E+00 0.  1.
        -11    1    4    4    0    0  0.21048447135E-01  0.15587779962E-01  0.30940536306E-01  0.40541261929E-01  0.51100000000E-03 0.  1.
         11    1    4    4    0    0  0.68278647099E-01  0.28200703610E-01  0.48659221662E-01  0.88460354440E-01  0.51100000000E-03 0. -1.
</event>
<event>
 8    1  0.1109294E+005  0.1043930E+01  0.7957747E-01            NaN
         13   -1    0    0    0    0  0.00000000000E+00  0.00000000000E+00  0.74505805969E-08  0.10566000000E+00  0.10566000000E+00 0. -1.
     999900   -1    0    0    0    0 -0.00000000000E+00 -0.00000000000E+00 -0.74505805969E-08  0.93827000000E+00  0.93827000000E+00 0. -1.
     999902    2    1    2    0    0 -0.51079004383E-02 -0.16339773908E-01 -0.16457805520E-01  0.10201826165E+01  0.10199061883E+01 0.  0.
     999903    2    3    3    0    0  0.12581293484E+00 -0.52711698753E-02 -0.26974667095E-01  0.13036612789E+00  0.20273500769E-01 0.  0.
         14    1    1    2    0    0  0.51079004383E-02  0.16339773908E-01  0.16457805520E-01  0.23747383451E-01  0.00000000000E+00 0.  1.
     999901    1    3    3    0    0 -0.13092083527E+00 -0.11068604033E-01  0.10516861575E-01  0.88981648865E+00  0.88000000000E+00 0. -1.
        -11    1    4    4    0    0  0.38092589104E-01 -0.62267803479E-02 -0.54446068729E-04  0.38601583173E-01  0.51100000000E-03 0. -1.
         11    1    4    4    0    0  0.87720345732E-01  0.95561047263E-03 -0.26920221027E-01  0.91764544721E-01  0.51100000000E-03 0.  1.
</event>
<event>
 8    1  0.1109294E+005  0.1043930E+01  0.7957747E-01            NaN
         13   -1    0    0    0    0  0.00000000000E+00  0.00000000000E+00  0.74505805969E-08  0.10566000000E+00  0.10566000000E+00 0. -1.
     999900   -1    0    0    0    0 -0.00000000000E+00 -0.00000000000E+00 -0.74505805969E-08  0.93827000000E+00  0.93827000000E+00 0.  1.
     999902    2    1    2    0    0 -0.19607284304E-01 -0.12202265239E-01  0.16472082908E-02  0.10207771563E+01  0.10205145510E+01 0.  0.
     999903    2    3    3    0    0 -0.12401438338E+00  0.42289093830E-01 -0.82810643663E-02  0.13287585486E+00  0.20481260611E-01 0.  0.
         14    1    1    2    0    0  0.19607284304E-01  0.12202265239E-01 -0.16472082908E-02  0.23152843667E-01  0.00000000000E+00 0. -1.
     999901    1    3    3    0    0  0.10440709908E+00 -0.54491359070E-01  0.99282726571E-02  0.88790130147E+00  0.88000000000E+00 0. -1.
        -11    1    4    4    0    0 -0.10595303989E+00  0.36568954080E-01  0.26013149943E-03  0.11208775069E+00  0.51100000000E-03 0. -1.
         11    1    4    4    0    0 -0.18061343489E-01  0.57201397507E-02 -0.85411958657E-02  0.20788104176E-01  0.51100000000E-03 0.  1.
</event>
<event>
 8    1  0.1109294E+005  0.1043930E+01  0.7957747E-01            NaN
         13   -1    0    0    0    0  0.00000000000E+00  0.00000000000E+00  0.74505805969E-08  0.10566000000E+00  0.10566000000E+00 0. -1.
     999900   -1    0    0    0    0 -0.00000000000E+00 -0.00000000000E+00 -0.74505805969E-08  0.93827000000E+00  0.93827000000E+00 0. -1.
     999902    2    1    2    0    0  0.11024385803E-01 -0.21283338853E-01 -0.59530015408E-02  0.10192327163E+01  0.10189334493E+01 0.  0.
     999903    2    3    3    0    0 -0.83889201979E-02  0.56606714814E-01 -0.11366574930E+00  0.12903848303E+00  0.21361961386E-01 0.  0.
         14    1    1    2    0    0 -0.11024385803E-01  0.21283338853E-01  0.59530015408E-02  0.24697283705E-01  0.00000000000E+00 0. -1.
     999901    1    3    3    0    0  0.19413306001E-01 -0.77890053667E-01  0.10771274776E+00  0.89019423327E+00  0.88000000000E+00 0.  1.
        -11    1    4    4    0    0  0.22528387128E-03  0.45191628463E-01 -0.72259641753E-01  0.85229402106E-01  0.51100000000E-03 0.  1.
         11    1    4    4    0    0 -0.86142040692E-02  0.11415086351E-01 -0.41406107547E-01  0.43809080923E-01  0.51100000000E-03 0. -1.
</event>
<event>
 8    1  0.1109294E+005  0.1043930E+01  0.7957747E-01            NaN
         13   -1    0    0    0    0  0.00000000000E+00  0.00000000000E+00  0.74505805969E-08  0.10566000000E+00  0.10566000000E+00 0. -1.
     999900   -1    0    0    0    0 -0.00000000000E+00 -0.00000000000E+00 -0.74505805969E-08  0.93827000000E+00  0.93827000000E+00 0.  1.
     999902    2    1    2    0    0  0.86762752182E-02  0.13974263769E-01 -0.16811400798E-01  0.10204101999E+01  0.10201391057E+01 0.  0.
     999903    2    3    3    0    0 -0.74047501023E-01  0.10437473625E+00  0.21660114502E-01  0.13108712809E+00  0.18372713861E-01 0.  0.
         14    1    1    2    0    0 -0.86762752182E-02 -0.13974263769E-01  0.16811400798E-01  0.23519800092E-01  0.00000000000E+00 0. -1.
     999901    1    3    3    0    0  0.82723776241E-01 -0.90400472484E-01 -0.38471515300E-01  0.88932307182E+00  0.88000000000E+00 0.  1.
        -11    1    4    4    0    0 -0.53607470403E-01  0.87902971758E-01  0.15536639999E-01  0.10412656544E+00  0.51100000000E-03 0. -1.
         11    1    4    4    0    0 -0.20440030620E-01  0.16471764495E-01  0.61234745032E-02  0.26960562649E-01  0.51100000000E-03 0.  1.
</event>
<event>
 8    1  0.1221233E+005  0.1043930E+01  0.7957747E-01            NaN
         13   -1    0    0    0    0  0.00000000000E+00  0.00000000000E+00  0.74505805969E-08  0.10566000000E+00  0.10566000000E+00 0. -1.
     999900   -1    0    0    0    0 -0.00000000000E+00 -0.00000000000E+00 -0.74505805969E-08  0.93827000000E+00  0.93827000000E+00 0.  1.
     999902    2    1    2    0    0  0.18683576858E-01  0.76959610426E-02  0.98942840153E-02  0.10214310952E+01  0.10211832752E+01 0.  0.
     999903    2    3    3    0    0 -0.58639916682E-01  0.11543206760E+00  0.10584811266E-01  0.13149487944E+00  0.20387815737E-01 0.  0.
         14    1    1    2    0    0 -0.18683576858E-01 -0.76959610426E-02 -0.98942840153E-02  0.22498904790E-01  0.00000000000E+00 0.  1.
     999901    1    3    3    0    0  0.77323493540E-01 -0.10773610656E+00 -0.69052725034E-03  0.88993621577E+00  0.88000000000E+00 0. -1.
        -11    1    4    4    0    0 -0.29008802862E-01  0.49439892105E-01  0.14222876057E-01  0.59062381421E-01  0.51100000000E-03 0. -1.
         11    1    4    4    0    0 -0.29631113820E-01  0.65992175496E-01 -0.36380647910E-02  0.72432498019E-01  0.51100000000E-03 0.  1.
</event>
<event>
 8    1  0.1109294E+005  0.1043930E+01  0.7957747E-01            NaN
         13   -1    0    0    0    0  0.00000000000E+00  0.00000000000E+00  0.74505805969E-08  0.10566000000E+00  0.10566000000E+00 0.  1.
     999900   -1    0    0    0    0 -0.00000000000E+00 -0.00000000000E+00 -0.74505805969E-08  0.93827000000E+00  0.93827000000E+00 0. -1.
     999902    2    1    2    0    0 -0.14343734408E-01 -0.17275170968E-02 -0.41216099735E-02  0.10289061955E+01  0.10287965030E+01 0.  0.
     999903    2    3    3    0    0 -0.11430914345E+00 -0.55914695904E-01 -0.55072868181E-01  0.14012874078E+00  0.20248695976E-01 0.  0.
         14    1    1    2    0    0  0.14343734408E-01  0.17275170968E-02  0.41216099735E-02  0.15023804474E-01  0.00000000000E+00 0. -1.
     999901    1    3    3    0    0  0.99965409042E-01  0.54187178807E-01  0.50951258207E-01  0.88877745475E+00  0.88000000000E+00 0.  1.
        -11    1    4    4    0    0 -0.89341195841E-01 -0.38789008548E-01 -0.33701346590E-01  0.10306540807E+00  0.51100000000E-03 0.  1.
         11    1    4    4    0    0 -0.24967947609E-01 -0.17125687355E-01 -0.21371521591E-01  0.37063332706E-01  0.51100000000E-03 0. -1.
</event>
<event>
 8    1  0.1109294E+005  0.1043930E+01  0.7957747E-01            NaN
         13   -1    0    0    0    0  0.00000000000E+00  0.00000000000E+00  0.74505805969E-08  0.10566000000E+00  0.10566000000E+00 0. -1.
     999900   -1    0    0    0    0 -0.00000000000E+00 -0.00000000000E+00 -0.74505805969E-08  0.93827000000E+00  0.93827000000E+00 0. -1.
     999902    2    1    2    0    0 -0.82629439574E-02  0.36911211144E-02 -0.17009143002E-01  0.10246631486E+01  0.10244819942E+01 0.  0.
     999903    2    3    3    0    0  0.74685960642E-01 -0.10573631084E+00 -0.27267838891E-01  0.13395549481E+00  0.21032817332E-01 0.  0.
         14    1    1    2    0    0  0.82629439574E-02 -0.36911211144E-02  0.17009143002E-01  0.19266851419E-01  0.00000000000E+00 0. -1.
     999901    1    3    3    0    0 -0.82948904600E-01  0.10942743196E+00  0.10258695889E-01  0.89070765377E+00  0.88000000000E+00 0.  1.
        -11    1    4    4    0    0  0.35620773362E-01 -0.55043775085E-01 -0.24172308516E-01  0.69880027837E-01  0.51100000000E-03 0. -1.
         11    1    4    4    0    0  0.39065187280E-01 -0.50692535759E-01 -0.30955303750E-02  0.64075466976E-01  0.51100000000E-03 0.  1.
</event>
<event>
 8    1  0.1109294E+005  0.1043930E+01  0.7957747E-01            NaN
         13   -1    0    0    0    0  0.00000000000E+00  0.00000000000E+00  0.74505805969E-08  0.10566000000E+00  0.10566000000E+00 0. -1.
     999900   -1    0    0    0    0 -0.00000000000E+00 -0.00000000000E+00 -0.74505805969E-08  0.93827000000E+00  0.93827000000E+00 0.  1.
     999902    2    1    2    0    0  0.10679947493E-01 -0.14591440643E-01 -0.15718898747E-01  0.10199705510E+01  0.10196891044E+01 0.  0.
     999903    2    3    3    0    0 -0.10437093203E+00  0.58517253432E-01  0.39790612831E-01  0.12774698490E+00  0.20455778670E-01 0.  0.
         14    1    1    2    0    0 -0.10679947493E-01  0.14591440643E-01  0.15718898747E-01  0.23959448999E-01  0.00000000000E+00 0.  1.
     999901    1    3    3    0    0  0.11505087952E+00 -0.73108694075E-01 -0.55509511579E-01  0.89222356610E+00  0.88000000000E+00 0.  1.
        -11    1    4    4    0    0 -0.52585819810E-01  0.28910867500E-01  0.92161802244E-02  0.60714955354E-01  0.51100000000E-03 0. -1.
         11    1    4    4    0    0 -0.51785112216E-01  0.29606385932E-01  0.30574432607E-01  0.67032029548E-01  0.51100000000E-03 0.  1.
</event>
<event>
 8    1  0.1109294E+005  0.1043930E+01  0.7957747E-01            NaN
         13   -1    0    0    0    0  0.00000000000E+00  0.00000000000E+00  0.74505805969E-08  0.10566000000E+00  0.10566000000E+00 0. -1.
     999900   -1    0    0    0    0 -0.00000000000E+00 -0.00000000000E+00 -0.74505805969E-08  0.93827000000E+00  0.93827000000E+00 0.  1.
     999902    2    1    2    0    0 -0.17423796319E-01  0.78145318230E-05 -0.14278748557E-01  0.10214028741E+01  0.10211544251E+01 0.  0.
     999903    2    3    3    0    0 -0.88565151918E-01 -0.57764070096E-01 -0.80189976770E-01  0.13419209133E+00  0.19915096594E-01 0.  0.
         14    1    1    2    0    0  0.17423796319E-01 -0.78145318230E-05  0.14278748557E-01  0.22527125862E-01  0.00000000000E+00 0. -1.
     999901    1    3    3    0    0  0.71141355599E-01  0.57771884628E-01  0.65911228213E-01  0.88721078281E+00  0.88000000000E+00 0. -1.
        -11    1    4    4    0    0 -0.48263974627E-01 -0.40055953687E-01 -0.38714049649E-01  0.73708408162E-01  0.51100000000E-03 0. -1.
         11    1    4    4    0    0 -0.40301177291E-01 -0.17708116410E-01 -0.41475927121E-01  0.60483683166E-01  0.51100000000E-03 0.  1.
</event>
<event>
 8    1  0.1109294E+005  0.1043930E+01  0.7957747E-01            NaN
         13   -1    0    0    0    0  0.00000000000E+00  0.00000000000E+00  0.74505805969E-08  0.10566000000E+00  0.10566000000E+00 0.  1.
     999900   -1    0    0    0    0 -0.00000000000E+00 -0.00000000000E+00 -0.74505805969E-08  0.93827000000E+00  0.93827000000E+00 0.  1.
     999902    2    1    2    0    0 -0.39948001341E-02  0.14545699466E-01  0.16745485233E-01  0.10213923187E+01  0.10211436342E+01 0.  0.
     999903    2    3    3    0    0 -0.54662250735E-01 -0.92776015549E-01  0.73153172266E-01  0.13163562828E+00  0.19524377127E-01 0.  0.
         14    1    1    2    0    0  0.39948001341E-02 -0.14545699466E-01 -0.16745485233E-01  0.22537681264E-01  0.00000000000E+00 0. -1.
     999901    1    3    3    0    0  0.50667450601E-01  0.10732171501E+00 -0.56407687033E-01  0.88975669046E+00  0.88000000000E+00 0.  1.
        -11    1    4    4    0    0 -0.20572254581E-01 -0.32781969020E-01  0.37800371716E-01  0.54101796405E-01  0.51100000000E-03 0. -1.
         11    1    4    4    0    0 -0.34089996154E-01 -0.59994046529E-01  0.35352800550E-01  0.77533831870E-01  0.51100000000E-03 0.  1.
</event>
<event>
 8    1  0.1109294E+005  0.1043930E+01  0.7957747E-01            NaN
         13   -1    0    0    0    0  0.00000000000E+00  0.00000000000E+00  0.74505805969E-08  0.10566000000E+00  0.10566000000E+00 0. -1.
     999900   -1    0    0    0    0 -0.00000000000E+00 -0.00000000000E+00 -0.74505805969E-08  0.93827000000E+00  0.93827000000E+00 0.  1.
     999902    2    1    2    0    0  0.17827622435E-01 -0.14190506703E-01 -0.26488140992E-02  0.10209907145E+01  0.10207329858E+01 0.  0.
     999903    2    3    3    0    0 -0.68329328578E-01  0.87528328270E-01  0.61460175225E-01  0.12864565564E+00  0.21029650088E-01 0.  0.
         14    1    1    2    0    0 -0.17827622435E-01  0.14190506703E-01  0.26488140992E-02  0.22939285480E-01  0.00000000000E+00 0. -1.
     999901    1    3    3    0    0  0.86156951013E-01 -0.10171883497E+00 -0.64108989324E-01  0.89234505888E+00  0.88000000000E+00 0.  1.
        -11    1    4    4    0    0 -0.24088635483E-01  0.40930083181E-01  0.35707385207E-01  0.59420640757E-01  0.51100000000E-03 0. -1.
         11    1    4    4    0    0 -0.44240693095E-01  0.46598245089E-01  0.25752790018E-01  0.69225014883E-01  0.51100000000E-03 0.  1.
</event>
<event>
 8    1  0.1109294E+005  0.1043930E+01  0.7957747E-01            NaN
         13   -1    0    0    0    0  0.00000000000E+00  0.00000000000E+00  0.74505805969E-08  0.10566000000E+00  0.10566000000E+00 0. -1.
     999900   -1    0    0    0    0 -0.00000000000E+00 -0.00000000000E+00 -0.74505805969E-08  0.93827000000E+00  0.93827000000E+00 0.  1.
     999902    2    1    2    0    0  0.65089535735E-02  0.14501557548E-01 -0.16724217885E-01  0.10208570480E+01  0.10205962725E+01 0.  0.
     999903    2    3    3    0    0 -0.49880809899E-01 -0.11632931989E+00 -0.10026583997E-02  0.12926089992E+00  0.26206279053E-01 0.  0.
         14    1    1    2    0    0 -0.65089535735E-02 -0.14501557548E-01  0.16724217885E-01  0.23072951953E-01  0.00000000000E+00 0. -1.
     999901    1    3    3    0    0  0.56389763473E-01  0.13083087744E+00 -0.15721559485E-01  0.89159614812E+00  0.88000000000E+00 0. -1.
        -11    1    4    4    0    0 -0.36713804017E-01 -0.62054651832E-01  0.85138511742E-02  0.72604614193E-01  0.51100000000E-03 0. -1.
         11    1    4    4    0    0 -0.13167005882E-01 -0.54274668063E-01 -0.95165095739E-02  0.56656285730E-01  0.51100000000E-03 0.  1.
</event>
<event>
 8    1  0.1109294E+005  0.1043930E+01  0.7957747E-01            NaN
         13   -1    0    0    0    0  0.00000000000E+00  0.00000000000E+00  0.74505805969E-08  0.10566000000E+00  0.10566000000E+00 0.  1.
     999900   -1    0    0    0    0 -0.00000000000E+00 -0.00000000000E+00 -0.74505805969E-08  0.93827000000E+00  0.93827000000E+00 0. -1.
     999902    2    1    2    0    0  0.19033335567E-01  0.11250857511E-01  0.11322250809E-02  0.10217910842E+01  0.10215512166E+01 0.  0.
     999903    2    3    3    0    0  0.61181120239E-02 -0.12868867107E+00  0.90587665374E-02  0.13060496186E+00  0.19426514240E-01 0.  0.
         14    1    1    2    0    0 -0.19033335567E-01 -0.11250857511E-01 -0.11322250809E-02  0.22138915764E-01  0.00000000000E+00 0. -1.
     999901    1    3    3    0    0  0.12915223543E-01  0.13993952858E+00 -0.79265414566E-02  0.89118612238E+00  0.88000000000E+00 0.  1.
        -11    1    4    4    0    0  0.89780403456E-02 -0.10477461054E+00  0.87663409701E-03  0.10516346243E+00  0.51100000000E-03 0. -1.
         11    1    4    4    0    0 -0.28599283217E-02 -0.23914060528E-01  0.81821324404E-02  0.25441499429E-01  0.51100000000E-03 0.  1.
</event>
<event>
 8    1  0.1109294E+005  0.1043930E+01  0.7957747E-01            NaN
         13   -1    0    0    0    0  0.00000000000E+00  0.00000000000E+00  0.74505805969E-08  0.10566000000E+00  0.10566000000E+00 0.  1.
     999900   -1    0    0    0    0 -0.00000000000E+00 -0.00000000000E+00 -0.74505805969E-08  0.93827000000E+00  0.93827000000E+00 0. -1.
     999902    2    1    2    0    0 -0.17120514074E-01 -0.15858324795E-01 -0.10665758620E-03  0.10205931227E+01  0.10203262773E+01 0.  0.
     999903    2    3    3    0    0  0.12216784939E+00  0.21745140408E-01 -0.24266672098E-01  0.12851746720E+00  0.23022455231E-01 0.  0.
         14    1    1    2    0    0  0.17120514074E-01  0.15858324795E-01  0.10665758620E-03  0.23336877326E-01  0.00000000000E+00 0. -1.
     999901    1    3    3    0    0 -0.13928836346E+00 -0.37603465203E-01  0.24160014512E-01  0.89207565548E+00  0.88000000000E+00 0.  1.
        -11    1    4    4    0    0  0.27147896098E-01  0.12551524205E-01  0.40421676826E-03  0.29916108280E-01  0.51100000000E-03 0.  1.
         11    1    4    4    0    0  0.95019953290E-01  0.91936162037E-02 -0.24670888867E-01  0.98601358919E-01  0.51100000000E-03 0. -1.
</event>
<event>
 8    1  0.1109294E+005  0.1043930E+01  0.7957747E-01            NaN
         13   -1    0    0    0    0  0.00000000000E+00  0.00000000000E+00  0.74505805969E-08  0.10566000000E+00  0.10566000000E+00 0.  1.
     999900   -1    0    0    0    0 -0.00000000000E+00 -0.00000000000E+00 -0.74505805969E-08  0.93827000000E+00  0.93827000000E+00 0. -1.
     999902    2    1    2    0    0 -0.11590452168E-02  0.21246186003E-01 -0.91296506067E-02  0.10207762892E+01  0.10205136639E+01 0.  0.
     999903    2    3    3    0    0 -0.12420355820E+00 -0.29001820501E-01  0.18667594634E-01  0.13036205905E+00  0.19446282144E-01 0.  0.
         14    1    1    2    0    0  0.11590452168E-02 -0.21246186003E-01  0.91296506067E-02  0.23153710840E-01  0.00000000000E+00 0.  1.
     999901    1    3    3    0    0  0.12304451298E+00  0.50248006504E-01 -0.27797245241E-01  0.89041423011E+00  0.88000000000E+00 0. -1.
        -11    1    4    4    0    0 -0.79182995409E-01 -0.11336652969E-01  0.52190586539E-02  0.80162124202E-01  0.51100000000E-03 0.  1.
         11    1    4    4    0    0 -0.45020562792E-01 -0.17665167532E-01  0.13448535980E-01  0.50199934851E-01  0.51100000000E-03 0. -1.
</event>
<event>
 8    1  0.1109294E+005  0.1043930E+01  0.7957747E-01            NaN
         13   -1    0    0    0    0  0.00000000000E+00  0.00000000000E+00  0.74505805969E-08  0.10566000000E+00  0.10566000000E+00 0. -1.
     999900   -1    0    0    0    0 -0.00000000000E+00 -0.00000000000E+00 -0.74505805969E-08  0.93827000000E+00  0.93827000000E+00 0.  1.
     999902    2    1    2    0    0 -0.98590221311E-02 -0.47013277834E-02  0.18027347468E-01  0.10228518583E+01  0.10226346542E+01 0.  0.
     999903    2    3    3    0    0 -0.11743399828E+00 -0.46022098927E-01  0.43662616008E-01  0.13496844895E+00  0.20031990268E-01 0.  0.
         14    1    1    2    0    0  0.98590221311E-02  0.47013277834E-02 -0.18027347468E-01  0.21078141688E-01  0.00000000000E+00 0. -1.
     999901    1    3    3    0    0  0.10757497615E+00  0.41320771144E-01 -0.25635268541E-01  0.88788340936E+00  0.88000000000E+00 0.  1.
        -11    1    4    4    0    0 -0.64618629400E-01 -0.15941603731E-01  0.17687876457E-01  0.68868164558E-01  0.51100000000E-03 0.  1.
         11    1    4    4    0    0 -0.52815368881E-01 -0.30080495196E-01  0.25974739552E-01  0.66100284395E-01  0.51100000000E-03 0. -1.
</event>
<event>
 8    1  0.1109294E+005  0.1043930E+01  0.7957747E-01            NaN
         13   -1    0    0    0    0  0.00000000000E+00  0.00000000000E+00  0.74505805969E-08  0.10566000000E+00  0.10566000000E+00 0. -1.
     999900   -1    0    0    0    0 -0.00000000000E+00 -0.00000000000E+00 -0.74505805969E-08  0.93827000000E+00  0.93827000000E+00 0. -1.
     999902    2    1    2    0    0 -0.13971258033E-01  0.14542955299E-01  0.12524955112E-01  0.10201904107E+01  0.10199141660E+01 0.  0.
     999903    2    3    3    0    0 -0.71092953205E-01 -0.89907004061E-03 -0.10708945272E+00  0.13012920450E+00  0.20259384423E-01 0.  0.
         14    1    1    2    0    0  0.13971258033E-01 -0.14542955299E-01 -0.12524955112E-01  0.23739589306E-01  0.00000000000E+00 0.  1.
     999901    1    3    3    0    0  0.57121695172E-01  0.15442025340E-01  0.11961440784E+00  0.89006120619E+00  0.88000000000E+00 0.  1.
        -11    1    4    4    0    0 -0.63577198382E-01  0.42094781063E-02 -0.10007375793E+00  0.11863725388E+00  0.51100000000E-03 0.  1.
         11    1    4    4    0    0 -0.75157548234E-02 -0.51085481469E-02 -0.70156947921E-02  0.11491950624E-01  0.51100000000E-03 0. -1.
</event>
<event>
 8    1  0.1109294E+005  0.1043930E+01  0.7957747E-01            NaN
         13   -1    0    0    0    0  0.00000000000E+00  0.00000000000E+00  0.74505805969E-08  0.10566000000E+00  0.10566000000E+00 0. -1.
     999900   -1    0    0    0    0 -0.00000000000E+00 -0.00000000000E+00 -0.74505805969E-08  0.93827000000E+00  0.93827000000E+00 0. -1.
     999902    2    1    2    0    0  0.13355567687E-04 -0.22240860133E-01  0.39995754424E-02  0.10213323753E+01  0.10210823513E+01 0.  0.
     999903    2    3    3    0    0 -0.66620558236E-01 -0.10369283043E+00  0.47677355195E-01  0.13398675472E+00  0.22109237450E-01 0.  0.
         14    1    1    2    0    0 -0.13355567687E-04  0.22240860133E-01 -0.39995754424E-02  0.22597624688E-01  0.00000000000E+00 0.  1.
     999901    1    3    3    0    0  0.66633913803E-01  0.81451970296E-01 -0.43677779753E-01  0.88734562059E+00  0.88000000000E+00 0. -1.
        -11    1    4    4    0    0 -0.11210219916E-01 -0.32655997287E-01  0.74724992418E-02  0.35329627161E-01  0.51100000000E-03 0. -1.
         11    1    4    4    0    0 -0.55410338320E-01 -0.71036833142E-01  0.40204855953E-01  0.98657127562E-01  0.51100000000E-03 0.  1.
</event>
<event>
 8    1  0.1109294E+005  0.1043930E+01  0.7957747E-01            NaN
         13   -1    0    0    0    0  0.00000000000E+00  0.00000000000E+00  0.74505805969E-08  0.10566000000E+00  0.10566000000E+00 0.  1.
     999900   -1    0    0    0    0 -0.00000000000E+00 -0.00000000000E+00 -0.74505805969E-08  0.93827000000E+00  0.93827000000E+00 0. -1.
     999902    2    1    2    0    0  0.29402169518E-02  0.41647840641E-02 -0.27632182554E-01  0.10158314624E+01  0.10154427764E+01 0.  0.
     999903    2    3    3    0    0 -0.10448450795E+00  0.28244004211E-01 -0.66144595347E-01  0.12813608318E+00  0.18138691912E-01 0.  0.
         14    1    1    2    0    0 -0.29402169518E-02 -0.41647840641E-02  0.27632182554E-01  0.28098537591E-01  0.00000000000E+00 0.  1.
     999901    1    3    3    0    0  0.10742472490E+00 -0.24079220147E-01  0.38512412793E-01  0.88769537923E+00  0.88000000000E+00 0.  1.
        -11    1    4    4    0    0 -0.84273350623E-01  0.21840943058E-01 -0.61032049991E-01  0.10632119575E+00  0.51100000000E-03 0.  1.
         11    1    4    4    0    0 -0.20211157326E-01  0.64030611536E-02 -0.51125453568E-02  0.21814887431E-01  0.51100000000E-03 0. -1.
</event>
<event>
 8    1  0.1109294E+005  0.1043930E+01  0.7957747E-01            NaN
         13   -1    0    0    0    0  0.00000000000E+00  0.00000000000E+00  0.74505805969E-08  0.10566000000E+00  0.10566000000E+00 0. -1.
     999900   -1    0    0    0    0 -0.00000000000E+00 -0.00000000000E+00 -0.74505805969E-08  0.93827000000E+00  0.93827000000E+00 0.  1.
     999902    2    1    2    0    0 -0.20266735551E-01 -0.49686790613E-02  0.16545970726E-01  0.10172992379E+01  0.10169506094E+01 0.  0.
     999903    2    3    3    0    0 -0.36219072477E-01  0.19725346490E-01  0.12222348508E+00  0.13048921938E+00  0.19696333790E-01 0.  0.
         14    1    1    2    0    0  0.20266735551E-01  0.49686790613E-02 -0.16545970726E-01  0.26630762076E-01  0.00000000000E+00 0.  1.
     999901    1    3    3    0    0  0.15952336926E-01 -0.24694025551E-01 -0.10567751435E+00  0.88681001854E+00  0.88000000000E+00 0.  1.
        -11    1    4    4    0    0 -0.21552359617E-01  0.16095140417E-01  0.50812012413E-01  0.57495038713E-01  0.51100000000E-03 0. -1.
         11    1    4    4    0    0 -0.14666712860E-01  0.36302060729E-02  0.71411472663E-01  0.72994180667E-01  0.51100000000E-03 0.  1.
</event>
<event>
 8    1  0.1109294E+005  0.1043930E+01  0.7957747E-01            NaN
         13   -1    0    0    0    0  0.00000000000E+00  0.00000000000E+00  0.74505805969E-08  0.10566000000E+00  0.10566000000E+00 0.  1.
     999900   -1    0    0    0    0 -0.00000000000E+00 -0.00000000000E+00 -0.74505805969E-08  0.93827000000E+00  0.93827000000E+00 0. -1.
     999902    2    1    2    0    0 -0.89784648140E-02  0.22153193573E-02  0.21516623942E-01  0.10205102311E+01  0.10202414646E+01 0.  0.
     999903    2    3    3    0    0  0.10637574574E-01  0.11831550093E+00 -0.48691615722E-01  0.12989626416E+00  0.19759813969E-01 0.  0.
         14    1    1    2    0    0  0.89784648140E-02 -0.22153193573E-02 -0.21516623942E-01  0.23419768917E-01  0.00000000000E+00 0. -1.
     999901    1    3    3    0    0 -0.19616039388E-01 -0.11610018157E+00  0.70208239664E-01  0.89061396692E+00  0.88000000000E+00 0.  1.
        -11    1    4    4    0    0  0.14374903690E-01  0.10786618611E+00 -0.47455763929E-01  0.11871841733E+00  0.51100000000E-03 0. -1.
         11    1    4    4    0    0 -0.37373291168E-02  0.10449314821E-01 -0.12358517936E-02  0.11177846833E-01  0.51100000000E-03 0.  1.
</event>
<event>
 8    1  0.1109294E+005  0.1043930E+01  0.7957747E-01            NaN
         13   -1    0    0    0    0  0.00000000000E+00  0.00000000000E+00  0.74505805969E-08  0.10566000000E+00  0.10566000000E+00 0.  1.
     999900   -1    0    0    0    0 -0.00000000000E+00 -0.00000000000E+00 -0.74505805969E-08  0.93827000000E+00  0.93827000000E+00 0.  1.
     999902    2    1    2    0    0  0.40812811878E-02  0.19275345906E-01 -0.13076339250E-01  0.10202828762E+01  0.10200088044E+01 0.  0.
     999903    2    3    3    0    0  0.15082817240E-01  0.70799653146E-02 -0.12984184950E+00  0.13241805232E+00  0.19950373768E-01 0.  0.
         14    1    1    2    0    0 -0.40812811878E-02 -0.19275345906E-01  0.13076339250E-01  0.23647123802E-01  0.00000000000E+00 0. -1.
     999901    1    3    3    0    0 -0.11001536052E-01  0.12195380591E-01  0.11676551025E+00  0.88786482388E+00  0.88000000000E+00 0. -1.
        -11    1    4    4    0    0  0.11669119799E-01 -0.95441359211E-03 -0.30214170308E-01  0.32407352107E-01  0.51100000000E-03 0.  1.
         11    1    4    4    0    0  0.34136974416E-02  0.80343789067E-02 -0.99627679190E-01  0.10001070021E+00  0.51100000000E-03 0. -1.
</event>
<event>
 8    1  0.1109294E+005  0.1043930E+01  0.7957747E-01            NaN
         13   -1    0    0    0    0  0.00000000000E+00  0.00000000000E+00  0.74505805969E-08  0.10566000000E+00  0.10566000000E+00 0.  1.
     999900   -1    0    0    0    0 -0.00000000000E+00 -0.00000000000E+00 -0.74505805969E-08  0.93827000000E+00  0.93827000000E+00 0. -1.
     999902    2    1    2    0    0  0.17812047621E-01 -0.26994542184E-02 -0.15180650802E-01  0.10203713869E+01  0.10200993868E+01 0.  0.
     999903    2    3    3    0    0  0.10890255684E+00  0.55880138331E-01  0.44495419497E-01  0.13172619171E+00  0.19738046481E-01 0.  0.
         14    1    1    2    0    0 -0.17812047621E-01  0.26994542184E-02  0.15180650802E-01  0.23558613123E-01  0.00000000000E+00 0.  1.
     999901    1    3    3    0    0 -0.91090509220E-01 -0.58579592549E-01 -0.59676070299E-01  0.88864519517E+00  0.88000000000E+00 0. -1.
        -11    1    4    4    0    0  0.81143601859E-01  0.32010999810E-01  0.34166919030E-01  0.93683657639E-01  0.51100000000E-03 0.  1.
         11    1    4    4    0    0  0.27758954981E-01  0.23869138521E-01  0.10328500467E-01  0.38042534068E-01  0.51100000000E-03 0. -1.
</event>
<event>
 8    1  0.1109294E+005  0.1043930E+01  0.7957747E-01            NaN
         13   -1    0    0    0    0  0.00000000000E+00  0.00000000000E+00  0.74505805969E-08  0.10566000000E+00  0.10566000000E+00 0. -1.
     999900   -1    0    0    0    0 -0.00000000000E+00 -0.00000000000E+00 -0.74505805969E-08  0.93827000000E+00  0.93827000000E+00 0. -1.
     999902    2    1    2    0    0  0.99488222687E-02  0.13632342277E-01 -0.16105816665E-01  0.10206015378E+01  0.10203348870E+01 0.  0.
     999903    2    3    3    0    0 -0.39041813465E-02 -0.11473036687E+00 -0.58319525656E-01  0.13017979047E+00  0.19165360891E-01 0.  0.
         14    1    1    2    0    0 -0.99488222687E-02 -0.13632342277E-01  0.16105816665E-01  0.23328462249E-01  0.00000000000E+00 0. -1.
     999901    1    3    3    0    0  0.13853003615E-01  0.12836270915E+00  0.42213708991E-01  0.89042174728E+00  0.88000000000E+00 0. -1.
        -11    1    4    4    0    0 -0.59753480135E-02 -0.26084582356E-01 -0.20800499175E-01  0.33897376116E-01  0.51100000000E-03 0.  1.
         11    1    4    4    0    0  0.20711666670E-02 -0.88645784518E-01 -0.37519026480E-01  0.96282414351E-01  0.51100000000E-03 0. -1.
</event>
<event>
 8    1  0.1109294E+005  0.1043930E+01  0.7957747E-01            NaN
         13   -1    0    0    0    0  0.00000000000E+00  0.00000000000E+00  0.74505805969E-08  0.10566000000E+00  0.10566000000E+00 0. -1.
     999900   -1    0    0    0    0 -0.00000000000E+00 -0.00000000000E+00 -0.74505805969E-08  0.93827000000E+00  0.93827000000E+00 0. -1.
     999902    2    1    2    0    0  0.17930475654E-01 -0.25749040142E-02  0.13519350799E-01  0.10213267937E+01  0.10210766448E+01 0.  0.
     999903    2    3    3    0    0 -0.70354966935E-01 -0.29480283719E-01  0.10549146741E+00  0.13173301617E+00  0.20155132185E-01 0.  0.
         14    1    1    2    0    0 -0.17930475654E-01  0.25749040142E-02 -0.13519350799E-01  0.22603206274E-01  0.00000000000E+00 0. -1.
     999901    1    3    3    0    0  0.88285442589E-01  0.26905379705E-01 -0.91972116607E-01  0.88959377755E+00  0.88000000000E+00 0. -1.
        -11    1    4    4    0    0 -0.36554193391E-01 -0.25680767847E-01  0.64562831311E-01  0.78513254929E-01  0.51100000000E-03 0.  1.
         11    1    4    4    0    0 -0.33800773544E-01 -0.37995158726E-02  0.40928636096E-01  0.53219761243E-01  0.51100000000E-03 0. -1.
</event>
<event>
 8    1  0.1109294E+005  0.1043930E+01  0.7957747E-01            NaN
         13   -1    0    0    0    0  0.00000000000E+00  0.00000000000E+00  0.74505805969E-08  0.10566000000E+00  0.10566000000E+00 0. -1.
     999900   -1    0    0    0    0 -0.00000000000E+00 -0.00000000000E+00 -0.74505805969E-08  0.93827000000E+00  0.93827000000E+00 0.  1.
     999902    2    1    2    0    0 -0.12566448648E-02 -0.34814409396E-01  0.37931185607E-02  0.10088870263E+01  0.10082782462E+01 0.  0.
     999903    2    3    3    0    0 -0.27973208552E-01  0.10070665348E+00  0.48906064774E-01  0.11697060018E+00  0.19130804530E-01 0.  0.
         14    1    1    2    0    0  0.12566448648E-02  0.34814409396E-01 -0.37931185607E-02  0.35042973709E-01  0.00000000000E+00 0. -1.
     999901    1    3    3    0    0  0.26716563687E-01 -0.13552106288E+00 -0.45112946213E-01  0.89191642612E+00  0.88000000000E+00 0. -1.
        -11    1    4    4    0    0 -0.71041012755E-02  0.20433936737E-01  0.19012320484E-01  0.28805268211E-01  0.51100000000E-03 0. -1.
         11    1    4    4    0    0 -0.20869107277E-01  0.80272716743E-01  0.29893744290E-01  0.88165331965E-01  0.51100000000E-03 0.  1.
</event>
<event>
 8    1  0.1109294E+005  0.1043930E+01  0.7957747E-01            NaN
         13   -1    0    0    0    0  0.00000000000E+00  0.00000000000E+00  0.74505805969E-08  0.10566000000E+00  0.10566000000E+00 0. -1.
     999900   -1    0    0    0    0 -0.00000000000E+00 -0.00000000000E+00 -0.74505805969E-08  0.93827000000E+00  0.93827000000E+00 0. -1.
     999902    2    1    2    0    0  0.11641670651E-01 -0.19234591509E-01 -0.65917475476E-02  0.10205003363E+01  0.10202313400E+01 0.  0.
     999903    2    3    3    0    0 -0.83622137772E-01  0.71440604110E-01 -0.64111441446E-01  0.12886941517E+00  0.20015678899E-01 0.  0.
         14    1    1    2    0    0 -0.11641670651E-01  0.19234591509E-01  0.65917475476E-02  0.23429663715E-01  0.00000000000E+00 0.  1.
     999901    1    3    3    0    0  0.95263808424E-01 -0.90675195618E-01  0.57519693899E-01  0.89163092111E+00  0.88000000000E+00 0.  1.
        -11    1    4    4    0    0 -0.19407145802E-01  0.12544876534E-01 -0.52112987860E-02  0.23694513953E-01  0.51100000000E-03 0.  1.
         11    1    4    4    0    0 -0.64214991970E-01  0.58895727576E-01 -0.58900142660E-01  0.10517490122E+00  0.51100000000E-03 0. -1.
</event>
<event>
 8    1  0.1109294E+005  0.1043930E+01  0.7957747E-01            NaN
         13   -1    0    0    0    0  0.00000000000E+00  0.00000000000E+00  0.74505805969E-08  0.10566000000E+00  0.10566000000E+00 0.  1.
     999900   -1    0    0    0    0 -0.00000000000E+00 -0.00000000000E+00 -0.74505805969E-08  0.93827000000E+00  0.93827000000E+00 0. -1.
     999902    2    1    2    0    0  0.50160262557E-02 -0.22235573535E-02 -0.22715136670E-01  0.10205615991E+01  0.10202940240E+01 0.  0.
     999903    2    3    3    0    0  0.45545208980E-02 -0.11567345248E+00 -0.60776760863E-01  0.13246262999E+00  0.21247174274E-01 0.  0.
         14    1    1    2    0    0 -0.50160262557E-02  0.22235573535E-02  0.22715136670E-01  0.23368400900E-01  0.00000000000E+00 0.  1.
     999901    1    3    3    0    0  0.46150535776E-03  0.11344989513E+00  0.38061624193E-01  0.88809896911E+00  0.88000000000E+00 0.  1.
        -11    1    4    4    0    0  0.12745540822E-01 -0.64235196218E-01 -0.30893218881E-01  0.72410367613E-01  0.51100000000E-03 0.  1.
         11    1    4    4    0    0 -0.81910199243E-02 -0.51438256262E-01 -0.29883541982E-01  0.60052262381E-01  0.51100000000E-03 0. -1.
</event>
<event>
 8    1  0.1109294E+005  0.1043930E+01  0.7957747E-01            NaN
         13   -1    0    0    0    0  0.00000000000E+00  0.00000000000E+00  0.74505805969E-08  0.10566000000E+00  0.10566000000E+00 0.  1.
     999900   -1    0    0    0    0 -0.00000000000E+00 -0.00000000000E+00 -0.74505805969E-08  0.93827000000E+00  0.93827000000E+00 0.  1.
     999902    2    1    2    0    0  0.13352856756E-02  0.24153251994E-02  0.24086972004E-01  0.10196854335E+01  0.10193971671E+01 0.  0.
     999903    2    3    3    0    0  0.24027978880E-01  0.89872134228E-01  0.92079564210E-01  0.13245003952E+00  0.20249013387E-01 0.  0.
         14    1    1    2    0    0 -0.13352856756E-02 -0.24153251994E-02 -0.24086972004E-01  0.24244566483E-01  0.00000000000E+00 0. -1.
     999901    1    3    3    0    0 -0.22692693205E-01 -0.87456809029E-01 -0.67992592207E-01  0.88723539400E+00  0.88000000000E+00 0.  1.
        -11    1    4    4    0    0  0.12176756607E-01  0.53350618100E-01  0.67332578983E-01  0.86766924382E-01  0.51100000000E-03 0.  1.
         11    1    4    4    0    0  0.11851222273E-01  0.36521516128E-01  0.24746985227E-01  0.45683115135E-01  0.51100000000E-03 0. -1.
</event>
<event>
 8    1  0.1109294E+005  0.1043930E+01  0.7957747E-01            NaN
         13   -1    0    0    0    0  0.00000000000E+00  0.00000000000E+00  0.74505805969E-08  0.10566000000E+00  0.10566000000E+00 0. -1.
     999900   -1    0    0    0    0 -0.00000000000E+00 -0.00000000000E+00 -0.74505805969E-08  0.93827000000E+00  0.93827000000E+00 0.  1.
     999902    2    1    2    0    0  0.17849218836E-01 -0.14403458685E-01  0.83314146984E-02  0.10195278135E+01  0.10192357410E+01 0.  0.
     999903    2    3    3    0    0 -0.95840873844E-01  0.73508611075E-01  0.35654419685E-01  0.12745129448E+00  0.19585857658E-01 0.  0.
         14    1    1    2    0    0 -0.17849218836E-01  0.14403458685E-01 -0.83314146984E-02  0.24402186501E-01  0.00000000000E+00 0.  1.
     999901    1    3    3    0    0  0.11369009268E+00 -0.87912069760E-01 -0.27323004986E-01  0.89207651902E+00  0.88000000000E+00 0. -1.
        -11    1    4    4    0    0 -0.56728553451E-01  0.44828406458E-01  0.11319280874E-01  0.73185395010E-01  0.51100000000E-03 0. -1.
         11    1    4    4    0    0 -0.39112320393E-01  0.28680204617E-01  0.24335138810E-01  0.54265899470E-01  0.51100000000E-03 0.  1.
</event>
<event>
 8    1  0.1109294E+005  0.1043930E+01  0.7957747E-01            NaN
         13   -1    0    0    0    0  0.00000000000E+00  0.00000000000E+00  0.74505805969E-08  0.10566000000E+00  0.10566000000E+00 0.  1.
     999900   -1    0    0    0    0 -0.00000000000E+00 -0.00000000000E+00 -0.74505805969E-08  0.93827000000E+00  0.93827000000E+00 0. -1.
     999902    2    1    2    0    0  0.18512636342E-01  0.98386393765E-02 -0.10866489202E-01  0.10203165056E+01  0.10200432219E+01 0.  0.
     999903    2    3    3    0    0 -0.14856785233E-02  0.12754574170E+00 -0.27677583550E-01  0.13209496376E+00  0.20320121863E-01 0.  0.
         14    1    1    2    0    0 -0.18512636342E-01 -0.98386393765E-02  0.10866489202E-01  0.23613494377E-01  0.00000000000E+00 0.  1.
     999901    1    3    3    0    0  0.19998314865E-01 -0.11770710233E+00  0.16811094348E-01  0.88822154186E+00  0.88000000000E+00 0.  1.
        -11    1    4    4    0    0  0.68773558064E-02  0.99623706786E-01 -0.24057068269E-01  0.10271895945E+00  0.51100000000E-03 0. -1.
         11    1    4    4    0    0 -0.83630343297E-02  0.27922034917E-01 -0.36205152807E-02  0.29376004306E-01  0.51100000000E-03 0.  1.
</event>
<event>
 8    1  0.1109294E+005  0.1043930E+01  0.7957747E-01            NaN
         13   -1    0    0    0    0  0.00000000000E+00  0.00000000000E+00  0.74505805969E-08  0.10566000000E+00  0.10566000000E+00 0. -1.
     999900   -1    0    0    0    0 -0.00000000000E+00 -0.00000000000E+00 -0.74505805969E-08  0.93827000000E+00  0.93827000000E+00 0.  1.
     999902    2    1    2    0    0 -0.88877006769E-03  0.69759883746E-02  0.22551640551E-01  0.10203073241E+01  0.10200338253E+01 0.  0.
     999903    2    3    3    0    0  0.78620960984E-01  0.10286564745E+00 -0.55312021118E-02  0.13109122543E+00  0.19791873475E-01 0.  0.
         14    1    1    2    0    0  0.88877006769E-03 -0.69759883746E-02 -0.22551640551E-01  0.23622675919E-01  0.00000000000E+00 0.  1.
     999901    1    3    3    0    0 -0.79509731052E-01 -0.95889659078E-01  0.28082842663E-01  0.88921609865E+00  0.88000000000E+00 0.  1.
        -11    1    4    4    0    0  0.41342487512E-01  0.54602614275E-01  0.69481121553E-02  0.68841732567E-01  0.51100000000E-03 0.  1.
         11    1    4    4    0    0  0.37278473472E-01  0.48263033178E-01 -0.12479314267E-01  0.62249492862E-01  0.51100000000E-03 0. -1.
</event>
<event>
 8    1  0.1109294E+005  0.1043930E+01  0.7957747E-01            NaN
         13   -1    0    0    0    0  0.00000000000E+00  0.00000000000E+00  0.74505805969E-08  0.10566000000E+00  0.10566000000E+00 0. -1.
     999900   -1    0    0    0    0 -0.00000000000E+00 -0.00000000000E+00 -0.74505805969E-08  0.93827000000E+00  0.93827000000E+00 0. -1.
     999902    2    1    2    0    0  0.11526663674E-01  0.30458950034E-02  0.21780850177E-01  0.10190996378E+01  0.10187970970E+01 0.  0.
     999903    2    3    3    0    0 -0.10724821369E+00 -0.21012640610E-01 -0.61399170034E-01  0.12690840249E+00  0.19803387017E-01 0.  0.
         14    1    1    2    0    0 -0.11526663674E-01 -0.30458950034E-02 -0.21780850177E-01  0.24830362185E-01  0.00000000000E+00 0.  1.
     999901    1    3    3    0    0  0.11877487736E+00  0.24058535613E-01  0.83180020210E-01  0.89219123532E+00  0.88000000000E+00 0.  1.
        -11    1    4    4    0    0 -0.97688735180E-01 -0.14448428839E-01 -0.50202668735E-01  0.11078093313E+00  0.51100000000E-03 0.  1.
         11    1    4    4    0    0 -0.95594785076E-02 -0.65642117713E-02 -0.11196501299E-01  0.16127469357E-01  0.51100000000E-03 0. -1.
</event>
<event>
 8    1  0.1109294E+005  0.1043930E+01  0.7957747E-01            NaN
         13   -1    0    0    0    0  0.00000000000E+00  0.00000000000E+00  0.74505805969E-08  0.10566000000E+00  0.10566000000E+00 0.  1.
     999900   -1    0    0    0    0 -0.00000000000E+00 -0.00000000000E+00 -0.74505805969E-08  0.93827000000E+00  0.93827000000E+00 0. -1.
     999902    2    1    2    0    0 -0.23983828920E-01  0.68813532995E-02  0.83054650198E-02  0.10176325130E+01  0.10172926687E+01 0.  0.
     999903    2    3    3    0    0  0.81269045609E-01  0.31052855615E-01 -0.88653062681E-01  0.12574497233E+00  0.19583026521E-01 0.  0.
         14    1    1    2    0    0  0.23983828920E-01 -0.68813532995E-02 -0.83054650198E-02  0.26297486992E-01  0.00000000000E+00 0. -1.
     999901    1    3    3    0    0 -0.10525287453E+00 -0.24171502316E-01  0.96958527701E-01  0.89188754068E+00  0.88000000000E+00 0.  1.
        -11    1    4    4    0    0  0.42208099435E-01  0.20148703177E-01 -0.34658938572E-01  0.58215092902E-01  0.51100000000E-03 0. -1.
         11    1    4    4    0    0  0.39060946174E-01  0.10904152438E-01 -0.53994124109E-01  0.67529879429E-01  0.51100000000E-03 0.  1.
</event>
<event>
 8    1  0.1109294E+005  0.1043930E+01  0.7957747E-01            NaN
         13   -1    0    0    0    0  0.00000000000E+00  0.00000000000E+00  0.74505805969E-08  0.10566000000E+00  0.10566000000E+00 0.  1.
     999900   -1    0    0    0    0 -0.00000000000E+00 -0.00000000000E+00 -0.74505805969E-08  0.93827000000E+00  0.93827000000E+00 0.  1.
     999902    2    1    2    0    0  0.43361047492E-02 -0.86543837157E-03  0.21618931053E-01  0.10218635330E+01  0.10216252498E+01 0.  0.
     999903    2    3    3    0    0 -0.59593259684E-01 -0.10426932694E+00 -0.48158027728E-01  0.13076973779E+00  0.18922989870E-01 0.  0.
         14    1    1    2    0    0 -0.43361047492E-02  0.86543837157E-03 -0.21618931053E-01  0.22066467045E-01  0.00000000000E+00 0. -1.
     999901    1    3    3    0    0  0.63929364433E-01  0.10340388857E+00  0.69776958780E-01  0.89109379517E+00  0.88000000000E+00 0.  1.
        -11    1    4    4    0    0 -0.26429119978E-01 -0.34451900989E-01 -0.99656072098E-02  0.44553409663E-01  0.51100000000E-03 0.  1.
         11    1    4    4    0    0 -0.33164139705E-01 -0.69817425955E-01 -0.38192420518E-01  0.86216328125E-01  0.51100000000E-03 0. -1.
</event>
<event>
 8    1  0.1109294E+005  0.1043930E+01  0.7957747E-01            NaN
         13   -1    0    0    0    0  0.00000000000E+00  0.00000000000E+00  0.74505805969E-08  0.10566000000E+00  0.10566000000E+00 0.  1.
     999900   -1    0    0    0    0 -0.00000000000E+00 -0.00000000000E+00 -0.74505805969E-08  0.93827000000E+00  0.93827000000E+00 0.  1.
     999902    2    1    2    0    0  0.92450978746E-02  0.15489141850E-01 -0.11552127425E-01  0.10225095192E+01  0.10222851265E+01 0.  0.
     999903    2    3    3    0    0 -0.60390442496E-02  0.11372290375E+00 -0.70001258152E-01  0.13498499679E+00  0.18745781476E-01 0.  0.
         14    1    1    2    0    0 -0.92450978746E-02 -0.15489141850E-01  0.11552127425E-01  0.21420480807E-01  0.00000000000E+00 0.  1.
     999901    1    3    3    0    0  0.15284142124E-01 -0.98233761902E-01  0.58449130728E-01  0.88752452240E+00  0.88000000000E+00 0. -1.
        -11    1    4    4    0    0  0.17109975621E-02  0.94296203356E-01 -0.54308034032E-01  0.10883163677E+00  0.51100000000E-03 0.  1.
         11    1    4    4    0    0 -0.77500418117E-02  0.19426700396E-01 -0.15693224120E-01  0.26153360026E-01  0.51100000000E-03 0. -1.
</event>
<event>
 8    1  0.1109294E+005  0.1043930E+01  0.7957747E-01            NaN
         13   -1    0    0    0    0  0.00000000000E+00  0.00000000000E+00  0.74505805969E-08  0.10566000000E+00  0.10566000000E+00 0. -1.
     999900   -1    0    0    0    0 -0.00000000000E+00 -0.00000000000E+00 -0.74505805969E-08  0.93827000000E+00  0.93827000000E+00 0. -1.
     999902    2    1    2    0    0 -0.61885943572E-02  0.28755029676E-02  0.23912241025E-01  0.10190631046E+01  0.10187596618E+01 0.  0.
     999903    2    3    3    0    0 -0.11214352172E+00  0.63628943369E-01  0.20348296876E-02  0.13035840205E+00  0.19088230841E-01 0.  0.
         14    1    1    2    0    0  0.61885943572E-02 -0.28755029676E-02 -0.23912241025E-01  0.24866895429E-01  0.00000000000E+00 0.  1.
     999901    1    3    3    0    0  0.10595492736E+00 -0.60753440401E-01  0.21877411338E-01  0.88870470252E+00  0.88000000000E+00 0.  1.
        -11    1    4    4    0    0 -0.33962260266E-01  0.28978033134E-01  0.39248409374E-02  0.44819940027E-01  0.51100000000E-03 0.  1.
         11    1    4    4    0    0 -0.78181261450E-01  0.34650910235E-01 -0.18900112498E-02  0.85538462025E-01  0.51100000000E-03 0. -1.
</event>
<event>
 8    1  0.1109294E+005  0.1043930E+01  0.7957747E-01            NaN
         13   -1    0    0    0    0  0.00000000000E+00  0.00000000000E+00  0.74505805969E-08  0.10566000000E+00  0.10566000000E+00 0. -1.
     999900   -1    0    0    0    0 -0.00000000000E+00 -0.00000000000E+00 -0.74505805969E-08  0.93827000000E+00  0.93827000000E+00 0. -1.
     999902    2    1    2    0    0  0.14871890631E-01 -0.16334622632E-01  0.92782492374E-02  0.10199700556E+01  0.10196885972E+01 0.  0.
     999903    2    3    3    0    0 -0.92807331174E-01 -0.55800690776E-01  0.70587062329E-01  0.13041333682E+00  0.17268098925E-01 0.  0.
         14    1    1    2    0    0 -0.14871890631E-01  0.16334622632E-01 -0.92782492374E-02  0.23959944416E-01  0.00000000000E+00 0.  1.
     999901    1    3    3    0    0  0.10767922181E+00  0.39466068143E-01 -0.61308813092E-01  0.88955671877E+00  0.88000000000E+00 0. -1.
        -11    1    4    4    0    0 -0.16245872466E-01 -0.16340470268E-01  0.10106038372E-01  0.25166097698E-01  0.51100000000E-03 0.  1.
         11    1    4    4    0    0 -0.76561458708E-01 -0.39460220507E-01  0.60481023957E-01  0.10524723912E+00  0.51100000000E-03 0. -1.
</event>
<event>
 8    1  0.1109294E+005  0.1043930E+01  0.7957747E-01            NaN
         13   -1    0    0    0    0  0.00000000000E+00  0.00000000000E+00  0.74505805969E-08  0.10566000000E+00  0.10566000000E+00 0.  1.
     999900   -1    0    0    0    0 -0.00000000000E+00 -0.00000000000E+00 -0.74505805969E-08  0.93827000000E+00  0.93827000000E+00 0. -1.
     999902    2    1    2    0    0 -0.19201352677E-01 -0.13197149156E-01  0.25425927979E-02  0.10204923920E+01  0.10202232112E+01 0.  0.
     999903    2    3    3    0    0 -0.11055516240E+00 -0.11997782516E-01  0.70339522398E-01  0.13316867391E+00  0.20490402178E-01 0.  0.
         14    1    1    2    0    0  0.19201352677E-01  0.13197149156E-01 -0.25425927979E-02  0.23437607997E-01  0.00000000000E+00 0. -1.
     999901    1    3    3    0    0  0.91353809719E-01 -0.11993666397E-02 -0.67796929601E-01  0.88732371809E+00  0.88000000000E+00 0. -1.
        -11    1    4    4    0    0 -0.22179582322E-01 -0.78628033602E-02  0.22626694159E-01  0.32649440396E-01  0.51100000000E-03 0.  1.
         11    1    4    4    0    0 -0.88375580075E-01 -0.41349791562E-02  0.47712828240E-01  0.10051923351E+00  0.51100000000E-03 0. -1.
</event>
<event>
 8    1  0.1109294E+005  0.1043930E+01  0.7957747E-01            NaN
         13   -1    0    0    0    0  0.00000000000E+00  0.00000000000E+00  0.74505805969E-08  0.10566000000E+00  0.10566000000E+00 0. -1.
     999900   -1    0    0    0    0 -0.00000000000E+00 -0.00000000000E+00 -0.74505805969E-08  0.93827000000E+00  0.93827000000E+00 0.  1.
     999902    2    1    2    0    0 -0.63236798613E-02 -0.18791300287E-01  0.11539463306E-01  0.10209896184E+01  0.10207318648E+01 0.  0.
     999903    2    3    3    0    0  0.10860891202E+00 -0.46452456150E-01  0.55618525323E-01  0.13199152848E+00  0.19355019473E-01 0.  0.
         14    1    1    2    0    0  0.63236798613E-02  0.18791300287E-01 -0.11539463306E-01  0.22940381576E-01  0.00000000000E+00 0.  1.
     999901    1    3    3    0    0 -0.11493259188E+00  0.27661155863E-01 -0.44079062017E-01  0.88899808995E+00  0.88000000000E+00 0. -1.
        -11    1    4    4    0    0  0.21038675686E-01 -0.70945849938E-02  0.19029335372E-01  0.29246123445E-01  0.51100000000E-03 0. -1.
         11    1    4    4    0    0  0.87570236331E-01 -0.39357871156E-01  0.36589189951E-01  0.10274540503E+00  0.51100000000E-03 0.  1.
</event>
<event>
 8    1  0.1109294E+005  0.1043930E+01  0.7957747E-01            NaN
         13   -1    0    0    0    0  0.00000000000E+00  0.00000000000E+00  0.74505805969E-08  0.10566000000E+00  0.10566000000E+00 0. -1.
     999900   -1    0    0    0    0 -0.00000000000E+00 -0.00000000000E+00 -0.74505805969E-08  0.93827000000E+00  0.93827000000E+00 0.  1.
     999902    2    1    2    0    0  0.19988910113E-02 -0.11224133611E-01  0.21740323285E-01  0.10193817129E+01  0.10190860897E+01 0.  0.
     999903    2    3    3    0    0 -0.99587831799E-01 -0.28809126167E-01 -0.72966300202E-01  0.12831581261E+00  0.19828383892E-01 0.  0.
         14    1    1    2    0    0 -0.19988910113E-02  0.11224133611E-01 -0.21740323285E-01  0.24548287051E-01  0.00000000000E+00 0.  1.
     999901    1    3    3    0    0  0.10158672281E+00  0.17584992556E-01  0.94706623487E-01  0.89106590034E+00  0.88000000000E+00 0.  1.
        -11    1    4    4    0    0 -0.29498531837E-02  0.24538985289E-02 -0.16453928282E-02  0.42061491122E-02  0.51100000000E-03 0.  1.
         11    1    4    4    0    0 -0.96637978615E-01 -0.31263024696E-01 -0.71320907373E-01  0.12410966350E+00  0.51100000000E-03 0. -1.
</event>
<event>
 8    1  0.1109294E+005  0.1043930E+01  0.7957747E-01            NaN
         13   -1    0    0    0    0  0.00000000000E+00  0.00000000000E+00  0.74505805969E-08  0.10566000000E+00  0.10566000000E+00 0.  1.
     999900   -1    0    0    0    0 -0.00000000000E+00 -0.00000000000E+00 -0.74505805969E-08  0.93827000000E+00  0.93827000000E+00 0. -1.
     999902    2    1    2    0    0  0.12433653565E-01 -0.18065118434E-01  0.65742662561E-02  0.10210353451E+01  0.10207786297E+01 0.  0.
     999903    2    3    3    0    0  0.12385786231E+00 -0.44046917579E-01  0.13214440261E-01  0.13360393927E+00  0.19861776233E-01 0.  0.
         14    1    1    2    0    0 -0.12433653565E-01  0.18065118434E-01 -0.65742662561E-02  0.22894654875E-01  0.00000000000E+00 0.  1.
     999901    1    3    3    0    0 -0.11142420874E+00  0.25981799145E-01 -0.66401740045E-02  0.88743140585E+00  0.88000000000E+00 0.  1.
        -11    1    4    4    0    0  0.18447615901E-01 -0.13161668666E-01  0.63824898635E-02  0.23548701713E-01  0.51100000000E-03 0.  1.
         11    1    4    4    0    0  0.10541024640E+00 -0.30885248913E-01  0.68319503972E-02  0.11005523756E+00  0.51100000000E-03 0. -1.
</event>
<event>
 8    1  0.1117625E+005  0.1043930E+01  0.7957747E-01            NaN
         13   -1    0    0    0    0  0.00000000000E+00  0.00000000000E+00  0.74505805969E-08  0.10566000000E+00  0.10566000000E+00 0.  1.
     999900   -1    0    0    0    0 -0.00000000000E+00 -0.00000000000E+00 -0.74505805969E-08  0.93827000000E+00  0.93827000000E+00 0. -1.
     999902    2    1    2    0    0 -0.68388295874E-02  0.17957412361E-03  0.22998585278E-01  0.10199354848E+01  0.10196532039E+01 0.  0.
     999903    2    3    3    0    0  0.80759700976E-02  0.12413381008E+00 -0.30227338233E-01  0.12953102453E+00  0.19752727381E-01 0.  0.
         14    1    1    2    0    0  0.68388295874E-02 -0.17957412361E-03 -0.22998585278E-01  0.23994515244E-01  0.00000000000E+00 0. -1.
     999901    1    3    3    0    0 -0.14914799685E-01 -0.12395423596E+00  0.53225923512E-01  0.89040446023E+00  0.88000000000E+00 0.  1.
        -11    1    4    4    0    0  0.36925691052E-02  0.66536425445E-01 -0.60686512877E-02  0.66916519837E-01  0.51100000000E-03 0. -1.
         11    1    4    4    0    0  0.43834009924E-02  0.57597384640E-01 -0.24158686946E-01  0.62614504690E-01  0.51100000000E-03 0.  1.
</event>
<event>
 8    1  0.1109294E+005  0.1043930E+01  0.7957747E-01            NaN
         13   -1    0    0    0    0  0.00000000000E+00  0.00000000000E+00  0.74505805969E-08  0.10566000000E+00  0.10566000000E+00 0. -1.
     999900   -1    0    0    0    0 -0.00000000000E+00 -0.00000000000E+00 -0.74505805969E-08  0.93827000000E+00  0.93827000000E+00 0.  1.
     999902    2    1    2    0    0 -0.61784070582E-02 -0.19411528284E-01  0.12500579081E-01  0.10200292757E+01  0.10197492234E+01 0.  0.
     999903    2    3    3    0    0  0.79418136724E-01  0.98186257627E-01 -0.45736226652E-02  0.12792640276E+00  0.19911425672E-01 0.  0.
         14    1    1    2    0    0  0.61784070582E-02  0.19411528284E-01 -0.12500579081E-01  0.23900724287E-01  0.00000000000E+00 0. -1.
     999901    1    3    3    0    0 -0.85596543782E-01 -0.11759778591E+00  0.17074201746E-01  0.89210287295E+00  0.88000000000E+00 0. -1.
        -11    1    4    4    0    0  0.26891682432E-01  0.20224165529E-01 -0.42455098512E-02  0.33918504246E-01  0.51100000000E-03 0. -1.
         11    1    4    4    0    0  0.52526454292E-01  0.77962092098E-01 -0.32811281405E-03  0.94007898518E-01  0.51100000000E-03 0.  1.
</event>
<event>
 7    1  0.1109294E+005  0.1043930E+01  0.7957747E-01            NaN
         13   -1    0    0    0    0  0.00000000000E+00  0.00000000000E+00  0.74505805969E-08  0.10566000000E+00  0.10566000000E+00 0.  1.
     999900   -1    0    0    0    0 -0.00000000000E+00 -0.00000000000E+00 -0.74505805969E-08  0.93827000000E+00  0.93827000000E+00 0.  1.
     999903    2    1    2    0    0  0.58433153049E-01  0.94988646546E-02 -0.46573332686E-01  0.77950775467E-01  0.20064552657E-01 0.  0.
         14    1    1    2    0    0 -0.39993220766E-01  0.17162278847E-01 -0.65123485875E-01  0.78326687246E-01  0.00000000000E+00 0. -1.
     999901    1    1    2    0    0 -0.18439932283E-01 -0.26661143502E-01  0.11169681856E+00  0.88765253729E+00  0.88000000000E+00 0. -1.
        -11    1    3    3    0    0  0.43495400780E-02  0.40499743608E-02 -0.12349887876E-01  0.13715015230E-01  0.51100000000E-03 0.  1.
         11    1    3    3    0    0  0.54083612971E-01  0.54488902937E-02 -0.34223444810E-01  0.64235760236E-01  0.51100000000E-03 0. -1.
</event>
<event>
 8    1  0.1109294E+005  0.1043930E+01  0.7957747E-01            NaN
         13   -1    0    0    0    0  0.00000000000E+00  0.00000000000E+00  0.74505805969E-08  0.10566000000E+00  0.10566000000E+00 0.  1.
     999900   -1    0    0    0    0 -0.00000000000E+00 -0.00000000000E+00 -0.74505805969E-08  0.93827000000E+00  0.93827000000E+00 0.  1.
     999902    2    1    2    0    0 -0.19443152261E-01  0.11653702291E-01  0.12431559807E-02  0.10212277890E+01  0.10209754192E+01 0.  0.
     999903    2    3    3    0    0  0.80151734590E-01 -0.40052529242E-02 -0.99901601103E-01  0.12971525054E+00  0.20133894585E-01 0.  0.
         14    1    1    2    0    0  0.19443152261E-01 -0.11653702291E-01 -0.12431559807E-02  0.22702210988E-01  0.00000000000E+00 0. -1.
     999901    1    3    3    0    0 -0.99594886852E-01  0.15658955216E-01  0.10114475708E+00  0.89151253847E+00  0.88000000000E+00 0. -1.
        -11    1    4    4    0    0  0.31870577198E-01 -0.34574020026E-02 -0.55614622232E-01  0.64194506357E-01  0.51100000000E-03 0. -1.
         11    1    4    4    0    0  0.48281157393E-01 -0.54785092169E-03 -0.44286978872E-01  0.65520744184E-01  0.51100000000E-03 0.  1.
</event>
<event>
 8    1  0.1109294E+005  0.1043930E+01  0.7957747E-01            NaN
         13   -1    0    0    0    0  0.00000000000E+00  0.00000000000E+00  0.74505805969E-08  0.10566000000E+00  0.10566000000E+00 0.  1.
     999900   -1    0    0    0    0 -0.00000000000E+00 -0.00000000000E+00 -0.74505805969E-08  0.93827000000E+00  0.93827000000E+00 0.  1.
     999902    2    1    2    0    0 -0.62194025942E-02  0.72930322292E-02  0.21758219565E-01  0.10201541844E+01  0.10198770860E+01 0.  0.
     999903    2    3    3    0    0  0.41391054043E-01  0.87470547882E-01 -0.83140276297E-01  0.12903192343E+00  0.19303254143E-01 0.  0.
         14    1    1    2    0    0  0.62194025942E-02 -0.72930322292E-02 -0.21758219565E-01  0.23775815577E-01  0.00000000000E+00 0. -1.
     999901    1    3    3    0    0 -0.47610456637E-01 -0.80177515653E-01  0.10489849586E+00  0.89112226099E+00  0.88000000000E+00 0. -1.
        -11    1    4    4    0    0  0.11043699786E-01  0.23394230439E-01 -0.34176744794E-01  0.42866820835E-01  0.51100000000E-03 0.  1.
         11    1    4    4    0    0  0.30347354257E-01  0.64076317444E-01 -0.48963531503E-01  0.86165102598E-01  0.51100000000E-03 0. -1.
</event>
<event>
 8    1  0.1109294E+005  0.1043930E+01  0.7957747E-01            NaN
         13   -1    0    0    0    0  0.00000000000E+00  0.00000000000E+00  0.74505805969E-08  0.10566000000E+00  0.10566000000E+00 0.  1.
     999900   -1    0    0    0    0 -0.00000000000E+00 -0.00000000000E+00 -0.74505805969E-08  0.93827000000E+00  0.93827000000E+00 0. -1.
     999902    2    1    2    0    0  0.10584524832E-01 -0.17803146307E-01 -0.11205563450E-01  0.10203811394E+01  0.10201093671E+01 0.  0.
     999903    2    3    3    0    0  0.51062300648E-01 -0.12150433247E+00 -0.65293921097E-03  0.13330518760E+00  0.19979623477E-01 0.  0.
         14    1    1    2    0    0 -0.10584524832E-01  0.17803146307E-01  0.11205563450E-01  0.23548860622E-01  0.00000000000E+00 0.  1.
     999901    1    3    3    0    0 -0.40477775816E-01  0.10370118616E+00 -0.10552624239E-01  0.88707595178E+00  0.88000000000E+00 0.  1.
        -11    1    4    4    0    0  0.30037457330E-01 -0.46403129228E-01  0.12189248260E-02  0.55292369670E-01  0.51100000000E-03 0.  1.
         11    1    4    4    0    0  0.21024843318E-01 -0.75101203244E-01 -0.18718640369E-02  0.78012817929E-01  0.51100000000E-03 0. -1.
</event>
<event>
 8    1  0.1109294E+005  0.1043930E+01  0.7957747E-01            NaN
         13   -1    0    0    0    0  0.00000000000E+00  0.00000000000E+00  0.74505805969E-08  0.10566000000E+00  0.10566000000E+00 0. -1.
     999900   -1    0    0    0    0 -0.00000000000E+00 -0.00000000000E+00 -0.74505805969E-08  0.93827000000E+00  0.93827000000E+00 0. -1.
     999902    2    1    2    0    0 -0.13374835844E-01 -0.18526273905E-01  0.96992360071E-02  0.10191069414E+01  0.10188045808E+01 0.  0.
     999903    2    3    3    0    0 -0.49352665947E-01 -0.27450924887E-01 -0.11490752349E+00  0.12955598831E+00  0.19793338238E-01 0.  0.
         14    1    1    2    0    0  0.13374835844E-01  0.18526273905E-01 -0.96992360071E-02  0.24823058590E-01  0.00000000000E+00 0. -1.
     999901    1    3    3    0    0  0.35977830103E-01  0.89246509819E-02  0.12460675950E+00  0.88955095310E+00  0.88000000000E+00 0.  1.
        -11    1    4    4    0    0 -0.39757518134E-01 -0.22437508107E-01 -0.71633420634E-01  0.84945335899E-01  0.51100000000E-03 0. -1.
         11    1    4    4    0    0 -0.95951478122E-02 -0.50134167796E-02 -0.43274102855E-01  0.44610652408E-01  0.51100000000E-03 0.  1.
</event>
<event>
 8    1  0.1109294E+005  0.1043930E+01  0.7957747E-01            NaN
         13   -1    0    0    0    0  0.00000000000E+00  0.00000000000E+00  0.74505805969E-08  0.10566000000E+00  0.10566000000E+00 0.  1.
     999900   -1    0    0    0    0 -0.00000000000E+00 -0.00000000000E+00 -0.74505805969E-08  0.93827000000E+00  0.93827000000E+00 0. -1.
     999902    2    1    2    0    0  0.18125458760E-01 -0.83875260137E-02  0.11141769372E-01  0.10210603285E+01  0.10208041794E+01 0.  0.
     999903    2    3    3    0    0  0.79468120155E-02 -0.75512093544E-01  0.10754286039E+00  0.13319632839E+00  0.20262452555E-01 0.  0.
         14    1    1    2    0    0 -0.18125458760E-01  0.83875260137E-02 -0.11141769372E-01  0.22869671459E-01  0.00000000000E+00 0. -1.
     999901    1    3    3    0    0  0.10178646744E-01  0.67124567530E-01 -0.96401091016E-01  0.88786400015E+00  0.88000000000E+00 0. -1.
        -11    1    4    4    0    0  0.36379475470E-03 -0.11521113970E-01  0.31355018443E-01  0.33410577911E-01  0.51100000000E-03 0. -1.
         11    1    4    4    0    0  0.75830172608E-02 -0.63990979573E-01  0.76187841945E-01  0.99785750479E-01  0.51100000000E-03 0.  1.
</event>
<event>
 8    1  0.1109294E+005  0.1043930E+01  0.7957747E-01            NaN
         13   -1    0    0    0    0  0.00000000000E+00  0.00000000000E+00  0.74505805969E-08  0.10566000000E+00  0.10566000000E+00 0. -1.
     999900   -1    0    0    0    0 -0.00000000000E+00 -0.00000000000E+00 -0.74505805969E-08  0.93827000000E+00  0.93827000000E+00 0.  1.
     999902    2    1    2    0    0 -0.15899817712E-01  0.17781501104E-01  0.10091201336E-01  0.10180298392E+01  0.10177003170E+01 0.  0.
     999903    2    3    3    0    0  0.78326806057E-01  0.79864767651E-01 -0.59044878380E-01  0.12813502175E+00  0.20465006168E-01 0.  0.
         14    1    1    2    0    0  0.15899817712E-01 -0.17781501104E-01 -0.10091201336E-01  0.25900160794E-01  0.00000000000E+00 0.  1.
     999901    1    3    3    0    0 -0.94226623769E-01 -0.62083266547E-01  0.69136079716E-01  0.88989481745E+00  0.88000000000E+00 0. -1.
        -11    1    4    4    0    0  0.46178935605E-01  0.44901548614E-01 -0.45098778826E-01  0.78630809065E-01  0.51100000000E-03 0.  1.
         11    1    4    4    0    0  0.32147870453E-01  0.34963219037E-01 -0.13946099554E-01  0.49504212687E-01  0.51100000000E-03 0. -1.
</event>
<event>
 8    1  0.1109294E+005  0.1043930E+01  0.7957747E-01            NaN
         13   -1    0    0    0    0  0.00000000000E+00  0.00000000000E+00  0.74505805969E-08  0.10566000000E+00  0.10566000000E+00 0.  1.
     999900   -1    0    0    0    0 -0.00000000000E+00 -0.00000000000E+00 -0.74505805969E-08  0.93827000000E+00  0.93827000000E+00 0. -1.
     999902    2    1    2    0    0 -0.39026877875E-02  0.22776681588E-01  0.57962711595E-02  0.10201055387E+01  0.10198272918E+01 0.  0.
     999903    2    3    3    0    0  0.54122855000E-01  0.11474914003E+00  0.35256147626E-01  0.13292247922E+00  0.18131215233E-01 0.  0.
         14    1    1    2    0    0  0.39026877875E-02 -0.22776681588E-01 -0.57962711595E-02  0.23824461285E-01  0.00000000000E+00 0. -1.
     999901    1    3    3    0    0 -0.58025542788E-01 -0.91972458445E-01 -0.29459876467E-01  0.88718305949E+00  0.88000000000E+00 0. -1.
        -11    1    4    4    0    0  0.22125845677E-01  0.59917718625E-01  0.10264666462E-01  0.64693976155E-01  0.51100000000E-03 0.  1.
         11    1    4    4    0    0  0.31997009323E-01  0.54831421408E-01  0.24991481164E-01  0.68228503069E-01  0.51100000000E-03 0. -1.
</event>
<event>
 8    1  0.1109294E+005  0.1043930E+01  0.7957747E-01            NaN
         13   -1    0    0    0    0  0.00000000000E+00  0.00000000000E+00  0.74505805969E-08  0.10566000000E+00  0.10566000000E+00 0.  1.
     999900   -1    0    0    0    0 -0.00000000000E+00 -0.00000000000E+00 -0.74505805969E-08  0.93827000000E+00  0.93827000000E+00 0. -1.
     999902    2    1    2    0    0  0.13521514943E-01 -0.16078798163E-01 -0.81901686310E-02  0.10213814307E+01  0.10211325031E+01 0.  0.
     999903    2    3    3    0    0 -0.44215204060E-01 -0.48021557482E-01  0.11140068476E+00  0.13084460335E+00  0.21193003727E-01 0.  0.
         14    1    1    2    0    0 -0.13521514943E-01  0.16078798163E-01  0.81901686310E-02  0.22548569333E-01  0.00000000000E+00 0.  1.
     999901    1    3    3    0    0  0.57736719004E-01  0.31942759318E-01 -0.11959085339E+00  0.89053682732E+00  0.88000000000E+00 0. -1.
        -11    1    4    4    0    0 -0.40927672727E-02 -0.17382002745E-01  0.24138408068E-01  0.30030128678E-01  0.51100000000E-03 0.  1.
         11    1    4    4    0    0 -0.40122436788E-01 -0.30639554737E-01  0.87262276695E-01  0.10081447467E+00  0.51100000000E-03 0. -1.
</event>
<event>
 8    1  0.1109294E+005  0.1043930E+01  0.7957747E-01            NaN
         13   -1    0    0    0    0  0.00000000000E+00  0.00000000000E+00  0.74505805969E-08  0.10566000000E+00  0.10566000000E+00 0. -1.
     999900   -1    0    0    0    0 -0.00000000000E+00 -0.00000000000E+00 -0.74505805969E-08  0.93827000000E+00  0.93827000000E+00 0.  1.
     999902    2    1    2    0    0 -0.15693595061E-01  0.16815358822E-01 -0.29987755962E-02  0.10207343566E+01  0.10204707682E+01 0.  0.
     999903    2    3    3    0    0  0.36441771789E-01  0.30015748444E-02 -0.12299753761E+00  0.13095426017E+00  0.26145971306E-01 0.  0.
         14    1    1    2    0    0  0.15693595061E-01 -0.16815358822E-01  0.29987755962E-02  0.23195643413E-01  0.00000000000E+00 0. -1.
     999901    1    3    3    0    0 -0.52135366850E-01  0.13813783978E-01  0.11999876201E+00  0.88978009642E+00  0.88000000000E+00 0. -1.
        -11    1    4    4    0    0  0.16223215583E-01  0.70918122860E-02 -0.92180710674E-01  0.93867092566E-01  0.51100000000E-03 0. -1.
         11    1    4    4    0    0  0.20218556206E-01 -0.40902374416E-02 -0.30816826932E-01  0.37087167600E-01  0.51100000000E-03 0.  1.
</event>
<event>
 8    1  0.1109294E+005  0.1043930E+01  0.7957747E-01            NaN
         13   -1    0    0    0    0  0.00000000000E+00  0.00000000000E+00  0.74505805969E-08  0.10566000000E+00  0.10566000000E+00 0.  1.
     999900   -1    0    0    0    0 -0.00000000000E+00 -0.00000000000E+00 -0.74505805969E-08  0.93827000000E+00  0.93827000000E+00 0. -1.
     999902    2    1    2    0    0 -0.38380653469E-03 -0.23297893018E-01  0.24004072384E-02  0.10205056306E+01  0.10202367573E+01 0.  0.
     999903    2    3    3    0    0 -0.12091392996E+00  0.37300632334E-01  0.22241418105E-01  0.13000388572E+00  0.19869926869E-01 0.  0.
         14    1    1    2    0    0  0.38380653469E-03  0.23297893018E-01 -0.24004072384E-02  0.23424369393E-01  0.00000000000E+00 0. -1.
     999901    1    3    3    0    0  0.12053012342E+00 -0.60598525352E-01 -0.19841010866E-01  0.89050174488E+00  0.88000000000E+00 0.  1.
        -11    1    4    4    0    0 -0.16762333756E-01  0.13966299565E-02  0.88844158921E-02  0.19029460710E-01  0.51100000000E-03 0. -1.
         11    1    4    4    0    0 -0.10415159620E+00  0.35904002377E-01  0.13357002212E-01  0.11097442501E+00  0.51100000000E-03 0.  1.
</event>
<event>
 8    1  0.1109294E+005  0.1043930E+01  0.7957747E-01            NaN
         13   -1    0    0    0    0  0.00000000000E+00  0.00000000000E+00  0.74505805969E-08  0.10566000000E+00  0.10566000000E+00 0.  1.
     999900   -1    0    0    0    0 -0.00000000000E+00 -0.00000000000E+00 -0.74505805969E-08  0.93827000000E+00  0.93827000000E+00 0. -1.
     999902    2    1    2    0    0 -0.15420802599E-01 -0.14838870222E-01 -0.92902694414E-02  0.10205997122E+01  0.10203330193E+01 0.  0.
     999903    2    3    3    0    0 -0.11431985193E+00 -0.48225550470E-01  0.43059697081E-01  0.13288567527E+00  0.20241860503E-01 0.  0.
         14    1    1    2    0    0  0.15420802599E-01  0.14838870222E-01  0.92902694414E-02  0.23330287794E-01  0.00000000000E+00 0.  1.
     999901    1    3    3    0    0  0.98899049328E-01  0.33386680248E-01 -0.52349966522E-01  0.88771403693E+00  0.88000000000E+00 0. -1.
        -11    1    4    4    0    0 -0.35358405397E-01 -0.12831043653E-01  0.36295920200E-02  0.37792692053E-01  0.51100000000E-03 0. -1.
         11    1    4    4    0    0 -0.78961446531E-01 -0.35394506818E-01  0.39430105061E-01  0.95092983218E-01  0.51100000000E-03 0.  1.
</event>
<event>
 8    1  0.1109294E+005  0.1043930E+01  0.7957747E-01            NaN
         13   -1    0    0    0    0  0.00000000000E+00  0.00000000000E+00  0.74505805969E-08  0.10566000000E+00  0.10566000000E+00 0. -1.
     999900   -1    0    0    0    0 -0.00000000000E+00 -0.00000000000E+00 -0.74505805969E-08  0.93827000000E+00  0.93827000000E+00 0. -1.
     999902    2    1    2    0    0  0.38144363943E-02 -0.22090518274E-01 -0.82966766132E-02  0.10200265324E+01  0.10197464150E+01 0.  0.
     999903    2    3    3    0    0  0.11076317078E+00 -0.53707073972E-01  0.41882468080E-01  0.13156967637E+00  0.20087528783E-01 0.  0.
         14    1    1    2    0    0 -0.38144363943E-02  0.22090518274E-01  0.82966766132E-02  0.23903467644E-01  0.00000000000E+00 0. -1.
     999901    1    3    3    0    0 -0.10694873439E+00  0.31616555698E-01 -0.50179144693E-01  0.88845685598E+00  0.88000000000E+00 0. -1.
        -11    1    4    4    0    0  0.39277411999E-01 -0.23405855806E-01  0.24991463823E-01  0.52109342391E-01  0.51100000000E-03 0. -1.
         11    1    4    4    0    0  0.71485758780E-01 -0.30301218166E-01  0.16891004257E-01  0.79460333982E-01  0.51100000000E-03 0.  1.
</event>
<event>
 8    1  0.1109294E+005  0.1043930E+01  0.7957747E-01            NaN
         13   -1    0    0    0    0  0.00000000000E+00  0.00000000000E+00  0.74505805969E-08  0.10566000000E+00  0.10566000000E+00 0.  1.
     999900   -1    0    0    0    0 -0.00000000000E+00 -0.00000000000E+00 -0.74505805969E-08  0.93827000000E+00  0.93827000000E+00 0.  1.
     999902    2    1    2    0    0 -0.21948761759E-01  0.80536623055E-02  0.29396448957E-03  0.10205484681E+01  0.10202805887E+01 0.  0.
     999903    2    3    3    0    0 -0.99121838816E-01  0.68882513339E-01  0.53439970472E-01  0.13348571333E+00  0.19815792793E-01 0.  0.
         14    1    1    2    0    0  0.21948761759E-01 -0.80536623055E-02 -0.29396448957E-03  0.23381531908E-01  0.00000000000E+00 0. -1.
     999901    1    3    3    0    0  0.77173077057E-01 -0.60828851033E-01 -0.53146005982E-01  0.88706275477E+00  0.88000000000E+00 0.  1.
        -11    1    4    4    0    0 -0.61131130657E-01  0.33795671146E-01  0.37964582502E-01  0.79503038742E-01  0.51100000000E-03 0. -1.
         11    1    4    4    0    0 -0.37990708159E-01  0.35086842192E-01  0.15475387970E-01  0.53982674584E-01  0.51100000000E-03 0.  1.
</event>
<event>
 8    1  0.1109294E+005  0.1043930E+01  0.7957747E-01            NaN
         13   -1    0    0    0    0  0.00000000000E+00  0.00000000000E+00  0.74505805969E-08  0.10566000000E+00  0.10566000000E+00 0. -1.
     999900   -1    0    0    0    0 -0.00000000000E+00 -0.00000000000E+00 -0.74505805969E-08  0.93827000000E+00  0.93827000000E+00 0.  1.
     999902    2    1    2    0    0 -0.20989200693E-01 -0.14007138408E-02 -0.12491279091E-01  0.10194649106E+01  0.10191713121E+01 0.  0.
     999903    2    3    3    0    0 -0.72039675646E-01  0.11537543758E-01 -0.10890643880E+00  0.13263379224E+00  0.20205955794E-01 0.  0.
         14    1    1    2    0    0  0.20989200693E-01  0.14007138408E-02  0.12491279091E-01  0.24465089380E-01  0.00000000000E+00 0.  1.
     999901    1    3    3    0    0  0.51050474952E-01 -0.12938257599E-01  0.96415159707E-01  0.88683111838E+00  0.88000000000E+00 0. -1.
        -11    1    4    4    0    0 -0.38259243345E-01 -0.34375546868E-03 -0.69847674698E-01  0.79641990501E-01  0.51100000000E-03 0.  1.
         11    1    4    4    0    0 -0.33780432301E-01  0.11881299227E-01 -0.39058764101E-01  0.52991801742E-01  0.51100000000E-03 0. -1.
</event>
<event>
 8    1  0.1109294E+005  0.1043930E+01  0.7957747E-01            NaN
         13   -1    0    0    0    0  0.00000000000E+00  0.00000000000E+00  0.74505805969E-08  0.10566000000E+00  0.10566000000E+00 0. -1.
     999900   -1    0    0    0    0 -0.00000000000E+00 -0.00000000000E+00 -0.74505805969E-08  0.93827000000E+00  0.93827000000E+00 0. -1.
     999902    2    1    2    0    0  0.10082933261E-01 -0.18918589217E-01 -0.15792466289E-01  0.10173033113E+01  0.10169547908E+01 0.  0.
     999903    2    3    3    0    0  0.79117556829E-01  0.88250061532E-01  0.38986328251E-01  0.12643204376E+00  0.20432002809E-01 0.  0.
         14    1    1    2    0    0 -0.10082933261E-01  0.18918589217E-01  0.15792466289E-01  0.26626688728E-01  0.00000000000E+00 0. -1.
     999901    1    3    3    0    0 -0.69034623568E-01 -0.10716865075E+00 -0.54778794540E-01  0.89087126752E+00  0.88000000000E+00 0. -1.
        -11    1    4    4    0    0  0.37695229515E-01  0.35102659364E-01  0.26398657432E-01  0.57881579608E-01  0.51100000000E-03 0. -1.
         11    1    4    4    0    0  0.41422327314E-01  0.53147402168E-01  0.12587670818E-01  0.68550464148E-01  0.51100000000E-03 0.  1.
</event>
<event>
 8    1  0.1109294E+005  0.1043930E+01  0.7957747E-01            NaN
         13   -1    0    0    0    0  0.00000000000E+00  0.00000000000E+00  0.74505805969E-08  0.10566000000E+00  0.10566000000E+00 0. -1.
     999900   -1    0    0    0    0 -0.00000000000E+00 -0.00000000000E+00 -0.74505805969E-08  0.93827000000E+00  0.93827000000E+00 0.  1.
     999902    2    1    2    0    0  0.12511732654E-01  0.19859251263E-01  0.72173368355E-02  0.10193734680E+01  0.10190776437E+01 0.  0.
     999903    2    3    3    0    0 -0.71586708327E-01 -0.77197431431E-01  0.69799171661E-01  0.12785283809E+00  0.19756609409E-01 0.  0.
         14    1    1    2    0    0 -0.12511732654E-01 -0.19859251263E-01 -0.72173368355E-02  0.24556532038E-01  0.00000000000E+00 0.  1.
     999901    1    3    3    0    0  0.84098440981E-01  0.97056682695E-01 -0.62581834825E-01  0.89152062987E+00  0.88000000000E+00 0. -1.
        -11    1    4    4    0    0 -0.68117661472E-01 -0.67839746544E-01  0.67854809870E-01  0.11767235597E+00  0.51100000000E-03 0. -1.
         11    1    4    4    0    0 -0.34690468546E-02 -0.93576848873E-02  0.19443617909E-02  0.10180482125E-01  0.51100000000E-03 0.  1.
</event>
<event>
 8    1  0.1109294E+005  0.1043930E+01  0.7957747E-01            NaN
         13   -1    0    0    0    0  0.00000000000E+00  0.00000000000E+00  0.74505805969E-08  0.10566000000E+00  0.10566000000E+00 0.  1.
     999900   -1    0    0    0    0 -0.00000000000E+00 -0.00000000000E+00 -0.74505805969E-08  0.93827000000E+00  0.93827000000E+00 0. -1.
     999902    2    1    2    0    0  0.18435420127E-01 -0.75600363927E-02 -0.19986581748E-01  0.10157079817E+01  0.10153158237E+01 0.  0.
     999903    2    3    3    0    0 -0.22050578062E-01  0.10784711779E+00  0.53936415930E-01  0.12417977865E+00  0.19855771333E-01 0.  0.
         14    1    1    2    0    0 -0.18435420127E-01  0.75600363927E-02  0.19986581748E-01  0.28222018275E-01  0.00000000000E+00 0.  1.
     999901    1    3    3    0    0  0.40485998190E-01 -0.11540715418E+00 -0.73922997677E-01  0.89152820307E+00  0.88000000000E+00 0.  1.
        -11    1    4    4    0    0 -0.65632866460E-03  0.52538473998E-01  0.25935792303E-01  0.58597341755E-01  0.51100000000E-03 0. -1.
         11    1    4    4    0    0 -0.21394249398E-01  0.55308643790E-01  0.28000623626E-01  0.65582436900E-01  0.51100000000E-03 0.  1.
</event>
<event>
 8    1  0.1109294E+005  0.1043930E+01  0.7957747E-01            NaN
         13   -1    0    0    0    0  0.00000000000E+00  0.00000000000E+00  0.74505805969E-08  0.10566000000E+00  0.10566000000E+00 0.  1.
     999900   -1    0    0    0    0 -0.00000000000E+00 -0.00000000000E+00 -0.74505805969E-08  0.93827000000E+00  0.93827000000E+00 0.  1.
     999902    2    1    2    0    0  0.22881050360E-01 -0.72582273872E-02  0.89112190504E-02  0.10183246460E+01  0.10180026770E+01 0.  0.
     999903    2    3    3    0    0  0.56904082841E-03  0.67553185518E-01 -0.10605432332E+00  0.12741968515E+00  0.20603397501E-01 0.  0.
         14    1    1    2    0    0 -0.22881050360E-01  0.72582273872E-02 -0.89112190504E-02  0.25605354036E-01  0.00000000000E+00 0. -1.
     999901    1    3    3    0    0  0.22312009531E-01 -0.74811412905E-01  0.11496554237E+00  0.89090496081E+00  0.88000000000E+00 0. -1.
        -11    1    4    4    0    0 -0.25872596717E-02  0.59866365498E-01 -0.79270304208E-01  0.99371615066E-01  0.51100000000E-03 0. -1.
         11    1    4    4    0    0  0.31563005001E-02  0.76868200203E-02 -0.26784019108E-01  0.28048070084E-01  0.51100000000E-03 0.  1.
</event>
<event>
 8    1  0.1109294E+005  0.1043930E+01  0.7957747E-01            NaN
         13   -1    0    0    0    0  0.00000000000E+00  0.00000000000E+00  0.74505805969E-08  0.10566000000E+00  0.10566000000E+00 0. -1.
     999900   -1    0    0    0    0 -0.00000000000E+00 -0.00000000000E+00 -0.74505805969E-08  0.93827000000E+00  0.93827000000E+00 0. -1.
     999902    2    1    2    0    0 -0.42247003860E-02 -0.17726518104E-01  0.84777719072E-02  0.10238314888E+01  0.10236341960E+01 0.  0.
     999903    2    3    3    0    0  0.48433114573E-01  0.33904556136E-01 -0.11618979744E+00  0.13199035036E+00  0.20642142427E-01 0.  0.
         14    1    1    2    0    0  0.42247003860E-02  0.17726518104E-01 -0.84777719072E-02  0.20098511237E-01  0.00000000000E+00 0.  1.
     999901    1    3    3    0    0 -0.52657814959E-01 -0.51631074240E-01  0.12466756935E+00  0.89184113840E+00  0.88000000000E+00 0.  1.
        -11    1    4    4    0    0  0.28465833418E-01  0.75259679814E-02 -0.58156880594E-01  0.65187634929E-01  0.51100000000E-03 0.  1.
         11    1    4    4    0    0  0.19967281155E-01  0.26378588155E-01 -0.58032916848E-01  0.66802715429E-01  0.51100000000E-03 0. -1.
</event>
<event>
 8    1  0.1109294E+005  0.1043930E+01  0.7957747E-01            NaN
         13   -1    0    0    0    0  0.00000000000E+00  0.00000000000E+00  0.74505805969E-08  0.10566000000E+00  0.10566000000E+00 0.  1.
     999900   -1    0    0    0    0 -0.00000000000E+00 -0.00000000000E+00 -0.74505805969E-08  0.93827000000E+00  0.93827000000E+00 0. -1.
     999902    2    1    2    0    0  0.16865836368E-01  0.16759027106E-01  0.47466563397E-02  0.10196843370E+01  0.10193960443E+01 0.  0.
     999903    2    3    3    0    0  0.70358461715E-01 -0.36073762074E-01  0.10260848330E+00  0.13107322876E+00  0.20001525135E-01 0.  0.
         14    1    1    2    0    0 -0.16865836368E-01 -0.16759027106E-01 -0.47466563397E-02  0.24245662960E-01  0.00000000000E+00 0.  1.
     999901    1    3    3    0    0 -0.53492625347E-01  0.52832789180E-01 -0.97861826961E-01  0.88861110828E+00  0.88000000000E+00 0. -1.
        -11    1    4    4    0    0  0.22909454337E-01 -0.10553714233E-01  0.48750644638E-01  0.54891806818E-01  0.51100000000E-03 0. -1.
         11    1    4    4    0    0  0.47449007378E-01 -0.25520047841E-01  0.53857838663E-01  0.76181421945E-01  0.51100000000E-03 0.  1.
</event>
<event>
 8    1  0.1109294E+005  0.1043930E+01  0.7957747E-01            NaN
         13   -1    0    0    0    0  0.00000000000E+00  0.00000000000E+00  0.74505805969E-08  0.10566000000E+00  0.10566000000E+00 0.  1.
     999900   -1    0    0    0    0 -0.00000000000E+00 -0.00000000000E+00 -0.74505805969E-08  0.93827000000E+00  0.93827000000E+00 0. -1.
     999902    2    1    2    0    0  0.14252437915E-01 -0.18583856810E-01 -0.94561151604E-03  0.10204910175E+01  0.10202218047E+01 0.  0.
     999903    2    3    3    0    0  0.15971294097E-01 -0.45528834805E-01 -0.12110558297E+00  0.13191496275E+00  0.20175186134E-01 0.  0.
         14    1    1    2    0    0 -0.14252437915E-01  0.18583856810E-01  0.94561151604E-03  0.23438982520E-01  0.00000000000E+00 0. -1.
     999901    1    3    3    0    0 -0.17188561819E-02  0.26944977995E-01  0.12015997146E+00  0.88857605473E+00  0.88000000000E+00 0.  1.
        -11    1    4    4    0    0  0.11876119603E-02 -0.27491532313E-01 -0.49911567896E-01  0.56996670972E-01  0.51100000000E-03 0.  1.
         11    1    4    4    0    0  0.14783682137E-01 -0.18037302492E-01 -0.71194015075E-01  0.74918291774E-01  0.51100000000E-03 0. -1.
</event>
<event>
 8    1  0.1109294E+005  0.1043930E+01  0.7957747E-01            NaN
         13   -1    0    0    0    0  0.00000000000E+00  0.00000000000E+00  0.74505805969E-08  0.10566000000E+00  0.10566000000E+00 0. -1.
     999900   -1    0    0    0    0 -0.00000000000E+00 -0.00000000000E+00 -0.74505805969E-08  0.93827000000E+00  0.93827000000E+00 0. -1.
     999902    2    1    2    0    0  0.49480823524E-02  0.53932886646E-02  0.22055954106E-01  0.10206913212E+01  0.10204267426E+01 0.  0.
     999903    2    3    3    0    0 -0.11784746860E+00  0.84110649410E-02  0.54304254467E-01  0.13157501429E+00  0.20106229456E-01 0.  0.
         14    1    1    2    0    0 -0.49480823524E-02 -0.53932886646E-02 -0.22055954106E-01  0.23238678816E-01  0.00000000000E+00 0.  1.
     999901    1    3    3    0    0  0.12279555095E+00 -0.30177762764E-02 -0.32248300361E-01  0.88911630689E+00  0.88000000000E+00 0. -1.
        -11    1    4    4    0    0 -0.18206071841E-01 -0.48136092831E-02  0.13075595342E-01  0.22931729127E-01  0.51100000000E-03 0. -1.
         11    1    4    4    0    0 -0.99641396761E-01  0.13224674224E-01  0.41228659125E-01  0.10864328516E+00  0.51100000000E-03 0.  1.
</event>
<event>
 7    1  0.1109294E+005  0.1043930E+01  0.7957747E-01            NaN
         13   -1    0    0    0    0  0.00000000000E+00  0.00000000000E+00  0.74505805969E-08  0.10566000000E+00  0.10566000000E+00 0.  1.
     999900   -1    0    0    0    0 -0.00000000000E+00 -0.00000000000E+00 -0.74505805969E-08  0.93827000000E+00  0.93827000000E+00 0. -1.
     999903    2    1    2    0    0  0.44465372836E-01 -0.34664477735E-01  0.27290770664E-01  0.66426074500E-01  0.22109767341E-01 0.  0.
         14    1    1    2    0    0 -0.65022203013E-01  0.70480254116E-01  0.40540263470E-02  0.95978061215E-01  0.00000000000E+00 0.  1.
     999901    1    1    2    0    0  0.20556830177E-01 -0.35815776381E-01 -0.31344797011E-01  0.88152586429E+00  0.88000000000E+00 0. -1.
        -11    1    3    3    0    0  0.17484328078E-01 -0.28183792282E-02  0.14118761109E-01  0.22654922778E-01  0.51100000000E-03 0. -1.
         11    1    3    3    0    0  0.26981044758E-01 -0.31846098507E-01  0.13172009556E-01  0.43771151722E-01  0.51100000000E-03 0.  1.
</event>
<event>
 8    1  0.1109294E+005  0.1043930E+01  0.7957747E-01            NaN
         13   -1    0    0    0    0  0.00000000000E+00  0.00000000000E+00  0.74505805969E-08  0.10566000000E+00  0.10566000000E+00 0. -1.
     999900   -1    0    0    0    0 -0.00000000000E+00 -0.00000000000E+00 -0.74505805969E-08  0.93827000000E+00  0.93827000000E+00 0. -1.
     999902    2    1    2    0    0 -0.19154363020E-01  0.11917120897E-01  0.33462654270E-02  0.10211241918E+01  0.10208694874E+01 0.  0.
     999903    2    3    3    0    0  0.50139109814E-01 -0.94604301774E-01 -0.69418731831E-01  0.12902378063E+00  0.19085895120E-01 0.  0.
         14    1    1    2    0    0  0.19154363020E-01 -0.11917120897E-01 -0.33462654270E-02  0.22805808152E-01  0.00000000000E+00 0.  1.
     999901    1    3    3    0    0 -0.69293472833E-01  0.10652142267E+00  0.72764997258E-01  0.89210041122E+00  0.88000000000E+00 0.  1.
        -11    1    4    4    0    0  0.80518137556E-02 -0.13155704366E-01 -0.27758168066E-02  0.15680259630E-01  0.51100000000E-03 0.  1.
         11    1    4    4    0    0  0.42087296058E-01 -0.81448597409E-01 -0.66642915025E-01  0.11334352100E+00  0.51100000000E-03 0. -1.
</event>
<event>
 8    1  0.1109294E+005  0.1043930E+01  0.7957747E-01            NaN
         13   -1    0    0    0    0  0.00000000000E+00  0.00000000000E+00  0.74505805969E-08  0.10566000000E+00  0.10566000000E+00 0. -1.
     999900   -1    0    0    0    0 -0.00000000000E+00 -0.00000000000E+00 -0.74505805969E-08  0.93827000000E+00  0.93827000000E+00 0. -1.
     999902    2    1    2    0    0 -0.48970978717E-02  0.17051662077E-01 -0.16665715120E-01  0.10195889481E+01  0.10192983549E+01 0.  0.
     999903    2    3    3    0    0  0.82140037914E-01 -0.93390523801E-01 -0.25297085108E-01  0.12838333772E+00  0.19327781152E-01 0.  0.
         14    1    1    2    0    0  0.48970978717E-02 -0.17051662077E-01  0.16665715120E-01  0.24341051900E-01  0.00000000000E+00 0. -1.
     999901    1    3    3    0    0 -0.87037135786E-01  0.11044218588E+00  0.86313699880E-02  0.89120561038E+00  0.88000000000E+00 0. -1.
        -11    1    4    4    0    0  0.21986458629E-01 -0.21770902274E-01  0.18238152387E-02  0.30999418896E-01  0.51100000000E-03 0.  1.
         11    1    4    4    0    0  0.60153579286E-01 -0.71619621528E-01 -0.27120900346E-01  0.97383918823E-01  0.51100000000E-03 0. -1.
</event>
<event>
 8    1  0.1109294E+005  0.1043930E+01  0.7957747E-01            NaN
         13   -1    0    0    0    0  0.00000000000E+00  0.00000000000E+00  0.74505805969E-08  0.10566000000E+00  0.10566000000E+00 0.  1.
     999900   -1    0    0    0    0 -0.00000000000E+00 -0.00000000000E+00 -0.74505805969E-08  0.93827000000E+00  0.93827000000E+00 0. -1.
     999902    2    1    2    0    0 -0.17085851445E-01  0.15423054527E-01  0.43972949526E-02  0.10204964101E+01  0.10202273227E+01 0.  0.
     999903    2    3    3    0    0 -0.62273865897E-01  0.78729857749E-01  0.85645405991E-01  0.13333748215E+00  0.19165690767E-01 0.  0.
         14    1    1    2    0    0  0.17085851445E-01 -0.15423054527E-01 -0.43972949526E-02  0.23433589854E-01  0.00000000000E+00 0. -1.
     999901    1    3    3    0    0  0.45188014452E-01 -0.63306803222E-01 -0.81248111038E-01  0.88715892800E+00  0.88000000000E+00 0. -1.
        -11    1    4    4    0    0 -0.45975350225E-01  0.64432054900E-01  0.75524929562E-01  0.10940520387E+00  0.51100000000E-03 0.  1.
         11    1    4    4    0    0 -0.16298515672E-01  0.14297802849E-01  0.10120476429E-01  0.23932278278E-01  0.51100000000E-03 0. -1.
</event>
<event>
 8    1  0.1109294E+005  0.1043930E+01  0.7957747E-01            NaN
         13   -1    0    0    0    0  0.00000000000E+00  0.00000000000E+00  0.74505805969E-08  0.10566000000E+00  0.10566000000E+00 0.  1.
     999900   -1    0    0    0    0 -0.00000000000E+00 -0.00000000000E+00 -0.74505805969E-08  0.93827000000E+00  0.93827000000E+00 0.  1.
     999902    2    1    2    0    0  0.56620265015E-02 -0.45279753762E-02  0.20995701606E-01  0.10217178279E+01  0.10214763527E+01 0.  0.
     999903    2    3    3    0    0  0.24384393677E-01 -0.12628651890E+00  0.27167776700E-01  0.13311568716E+00  0.20947901208E-01 0.  0.
         14    1    1    2    0    0 -0.56620265015E-02  0.45279753762E-02 -0.20995701606E-01  0.22212172137E-01  0.00000000000E+00 0. -1.
     999901    1    3    3    0    0 -0.18722367176E-01  0.12175854353E+00 -0.61720750937E-02  0.88860214070E+00  0.88000000000E+00 0.  1.
        -11    1    4    4    0    0  0.22443495191E-01 -0.69334252947E-01  0.97604696389E-02  0.73528749457E-01  0.51100000000E-03 0. -1.
         11    1    4    4    0    0  0.19408984861E-02 -0.56952265956E-01  0.17407307061E-01  0.59586937701E-01  0.51100000000E-03 0.  1.
</event>
<event>
 8    1  0.1109294E+005  0.1043930E+01  0.7957747E-01            NaN
         13   -1    0    0    0    0  0.00000000000E+00  0.00000000000E+00  0.74505805969E-08  0.10566000000E+00  0.10566000000E+00 0.  1.
     999900   -1    0    0    0    0 -0.00000000000E+00 -0.00000000000E+00 -0.74505805969E-08  0.93827000000E+00  0.93827000000E+00 0.  1.
     999902    2    1    2    0    0  0.40450243505E-03  0.22442985075E-01 -0.83947654594E-02  0.10199649569E+01  0.10196833774E+01 0.  0.
     999903    2    3    3    0    0 -0.93244483147E-01 -0.85797557102E-01 -0.58474025726E-02  0.12839744042E+00  0.19898646878E-01 0.  0.
         14    1    1    2    0    0 -0.40450243505E-03 -0.22442985075E-01  0.83947654594E-02  0.23965043051E-01  0.00000000000E+00 0.  1.
     999901    1    3    3    0    0  0.93648985582E-01  0.10824054218E+00 -0.25473628868E-02  0.89156751653E+00  0.88000000000E+00 0. -1.
        -11    1    4    4    0    0 -0.81845717228E-01 -0.82792868697E-01 -0.62904082562E-02  0.11658992621E+00  0.51100000000E-03 0. -1.
         11    1    4    4    0    0 -0.11398765919E-01 -0.30046884052E-02  0.44300568364E-03  0.11807514215E-01  0.51100000000E-03 0.  1.
</event>
<event>
 8    1  0.1109294E+005  0.1043930E+01  0.7957747E-01            NaN
         13   -1    0    0    0    0  0.00000000000E+00  0.00000000000E+00  0.74505805969E-08  0.10566000000E+00  0.10566000000E+00 0.  1.
     999900   -1    0    0    0    0 -0.00000000000E+00 -0.00000000000E+00 -0.74505805969E-08  0.93827000000E+00  0.93827000000E+00 0. -1.
     999902    2    1    2    0    0  0.49192290967E-02  0.18851281129E-01 -0.13019320630E-01  0.10204977076E+01  0.10202286503E+01 0.  0.
     999903    2    3    3    0    0 -0.46539844322E-01 -0.83554216880E-01  0.82694365706E-01  0.12791940183E+00  0.19435816892E-01 0.  0.
         14    1    1    2    0    0 -0.49192290967E-02 -0.18851281129E-01  0.13019320630E-01  0.23432292350E-01  0.00000000000E+00 0.  1.
     999901    1    3    3    0    0  0.51459073419E-01  0.10240549801E+00 -0.95713686336E-01  0.89257830582E+00  0.88000000000E+00 0. -1.
        -11    1    4    4    0    0 -0.96637586274E-02 -0.33269549762E-01  0.36404003111E-01  0.50256976985E-01  0.51100000000E-03 0. -1.
         11    1    4    4    0    0 -0.36876085695E-01 -0.50284667118E-01  0.46290362595E-01  0.77662424850E-01  0.51100000000E-03 0.  1.
</event>
<event>
 8    1  0.1109294E+005  0.1043930E+01  0.7957747E-01            NaN
         13   -1    0    0    0    0  0.00000000000E+00  0.00000000000E+00  0.74505805969E-08  0.10566000000E+00  0.10566000000E+00 0.  1.
     999900   -1    0    0    0    0 -0.00000000000E+00 -0.00000000000E+00 -0.74505805969E-08  0.93827000000E+00  0.93827000000E+00 0. -1.
     999902    2    1    2    0    0 -0.20269752114E-01 -0.84409178652E-04  0.14203750962E-01  0.10191789088E+01  0.10188783203E+01 0.  0.
     999903    2    3    3    0    0 -0.13430645802E-01 -0.90761253950E-01 -0.87854601179E-01  0.12862572631E+00  0.20202946681E-01 0.  0.
         14    1    1    2    0    0  0.20269752114E-01  0.84409178652E-04 -0.14203750962E-01  0.24751091229E-01  0.00000000000E+00 0. -1.
     999901    1    3    3    0    0 -0.68391063113E-02  0.90676844771E-01  0.10205835214E+00  0.89055318246E+00  0.88000000000E+00 0.  1.
        -11    1    4    4    0    0 -0.72211113966E-02 -0.65565789091E-01 -0.50202791317E-01  0.82895105561E-01  0.51100000000E-03 0. -1.
         11    1    4    4    0    0 -0.62095344059E-02 -0.25195464859E-01 -0.37651809862E-01  0.45730620747E-01  0.51100000000E-03 0.  1.
</event>
<event>
 8    1  0.1109294E+005  0.1043930E+01  0.7957747E-01            NaN
         13   -1    0    0    0    0  0.00000000000E+00  0.00000000000E+00  0.74505805969E-08  0.10566000000E+00  0.10566000000E+00 0.  1.
     999900   -1    0    0    0    0 -0.00000000000E+00 -0.00000000000E+00 -0.74505805969E-08  0.93827000000E+00  0.93827000000E+00 0. -1.
     999902    2    1    2    0    0 -0.44844681946E-02 -0.20756214612E-01 -0.10916788069E-01  0.10200530831E+01  0.10197735950E+01 0.  0.
     999903    2    3    3    0    0  0.88682291084E-01  0.86416290577E-01 -0.28316419553E-01  0.12849896914E+00  0.19438143547E-01 0.  0.
         14    1    1    2    0    0  0.44844681946E-02  0.20756214612E-01  0.10916788069E-01  0.23876916923E-01  0.00000000000E+00 0. -1.
     999901    1    3    3    0    0 -0.93166759279E-01 -0.10717250519E+00  0.17399631485E-01  0.89155411394E+00  0.88000000000E+00 0. -1.
        -11    1    4    4    0    0  0.49578472664E-01  0.43685204646E-01 -0.24399518634E-01  0.70441604803E-01  0.51100000000E-03 0. -1.
         11    1    4    4    0    0  0.39103818420E-01  0.42731085931E-01 -0.39169009194E-02  0.58057364336E-01  0.51100000000E-03 0.  1.
</event>
<event>
 8    1  0.1109294E+005  0.1043930E+01  0.7957747E-01            NaN
         13   -1    0    0    0    0  0.00000000000E+00  0.00000000000E+00  0.74505805969E-08  0.10566000000E+00  0.10566000000E+00 0. -1.
     999900   -1    0    0    0    0 -0.00000000000E+00 -0.00000000000E+00 -0.74505805969E-08  0.93827000000E+00  0.93827000000E+00 0. -1.
     999902    2    1    2    0    0  0.83740225794E-02 -0.22973266952E-02 -0.22433365496E-01  0.10198746918E+01  0.10195909617E+01 0.  0.
     999903    2    3    3    0    0 -0.39163748156E-01 -0.85214724878E-01 -0.90569262132E-01  0.13208100240E+00  0.21148320161E-01 0.  0.
         14    1    1    2    0    0 -0.83740225794E-02  0.22973266952E-02  0.22433365496E-01  0.24055308179E-01  0.00000000000E+00 0. -1.
     999901    1    3    3    0    0  0.47537770736E-01  0.82917398183E-01  0.68135896636E-01  0.88779368942E+00  0.88000000000E+00 0.  1.
        -11    1    4    4    0    0 -0.17224357833E-01 -0.17821051048E-01 -0.17946266688E-01  0.30603888189E-01  0.51100000000E-03 0.  1.
         11    1    4    4    0    0 -0.21939390324E-01 -0.67393673830E-01 -0.72622995444E-01  0.10147711421E+00  0.51100000000E-03 0. -1.
</event>
<event>
 8    1  0.1109294E+005  0.1043930E+01  0.7957747E-01            NaN
         13   -1    0    0    0    0  0.00000000000E+00  0.00000000000E+00  0.74505805969E-08  0.10566000000E+00  0.10566000000E+00 0.  1.
     999900   -1    0    0    0    0 -0.00000000000E+00 -0.00000000000E+00 -0.74505805969E-08  0.93827000000E+00  0.93827000000E+00 0. -1.
     999902    2    1    2    0    0 -0.59398460609E-02  0.15970434173E-01 -0.15987662292E-01  0.10205646007E+01  0.10202970951E+01 0.  0.
     999903    2    3    3    0    0 -0.99599108928E-01 -0.80143815645E-01  0.12541310518E-01  0.12993341506E+00  0.19554902078E-01 0.  0.
         14    1    1    2    0    0  0.59398460609E-02 -0.15970434173E-01  0.15987662292E-01  0.23365399300E-01  0.00000000000E+00 0.  1.
     999901    1    3    3    0    0  0.93659262867E-01  0.96114249818E-01 -0.28528972810E-01  0.89063118564E+00  0.88000000000E+00 0.  1.
        -11    1    4    4    0    0 -0.72333537157E-01 -0.52688281898E-01  0.16625446809E-01  0.91021218678E-01  0.51100000000E-03 0. -1.
         11    1    4    4    0    0 -0.27265571771E-01 -0.27455533747E-01 -0.40841362915E-02  0.38912196386E-01  0.51100000000E-03 0.  1.
</event>
<event>
 8    1  0.1109294E+005  0.1043930E+01  0.7957747E-01            NaN
         13   -1    0    0    0    0  0.00000000000E+00  0.00000000000E+00  0.74505805969E-08  0.10566000000E+00  0.10566000000E+00 0.  1.
     999900   -1    0    0    0    0 -0.00000000000E+00 -0.00000000000E+00 -0.74505805969E-08  0.93827000000E+00  0.93827000000E+00 0. -1.
     999902    2    1    2    0    0  0.14271311469E-01  0.17192602602E-01  0.97671003360E-02  0.10195445091E+01  0.10192528410E+01 0.  0.
     999903    2    3    3    0    0 -0.51681303950E-01  0.11898799633E+00  0.59729262005E-02  0.13121661618E+00  0.18788934645E-01 0.  0.
         14    1    1    2    0    0 -0.14271311469E-01 -0.17192602602E-01 -0.97671003360E-02  0.24385490855E-01  0.00000000000E+00 0.  1.
     999901    1    3    3    0    0  0.65952615419E-01 -0.10179539373E+00  0.37941741355E-02  0.88832789297E+00  0.88000000000E+00 0.  1.
        -11    1    4    4    0    0 -0.30736014108E-01  0.91450625985E-01  0.44498531281E-02  0.96581477883E-01  0.51100000000E-03 0.  1.
         11    1    4    4    0    0 -0.20945289842E-01  0.27537370346E-01  0.15230730724E-02  0.34635138295E-01  0.51100000000E-03 0. -1.
</event>
<event>
 8    1  0.1109294E+005  0.1043930E+01  0.7957747E-01            NaN
         13   -1    0    0    0    0  0.00000000000E+00  0.00000000000E+00  0.74505805969E-08  0.10566000000E+00  0.10566000000E+00 0.  1.
     999900   -1    0    0    0    0 -0.00000000000E+00 -0.00000000000E+00 -0.74505805969E-08  0.93827000000E+00  0.93827000000E+00 0. -1.
     999902    2    1    2    0    0 -0.18183282669E-01 -0.22436026697E-01  0.79110380563E-03  0.10150399860E+01  0.10146287697E+01 0.  0.
     999903    2    3    3    0    0 -0.38329689698E-01 -0.46101847726E-01  0.11088478556E+00  0.12763558691E+00  0.20021535935E-01 0.  0.
         14    1    1    2    0    0  0.18183282669E-01  0.22436026697E-01 -0.79110380563E-03  0.28890013981E-01  0.00000000000E+00 0.  1.
     999901    1    3    3    0    0  0.20146407028E-01  0.23665821029E-01 -0.11009368175E+00  0.88740439911E+00  0.88000000000E+00 0. -1.
        -11    1    4    4    0    0 -0.25129800509E-01 -0.16036779885E-01  0.61241519317E-01  0.68113654960E-01  0.51100000000E-03 0. -1.
         11    1    4    4    0    0 -0.13199889188E-01 -0.30065067840E-01  0.49643266240E-01  0.59521931948E-01  0.51100000000E-03 0.  1.
</event>
<event>
 8    1  0.1109294E+005  0.1043930E+01  0.7957747E-01            NaN
         13   -1    0    0    0    0  0.00000000000E+00  0.00000000000E+00  0.74505805969E-08  0.10566000000E+00  0.10566000000E+00 0. -1.
     999900   -1    0    0    0    0 -0.00000000000E+00 -0.00000000000E+00 -0.74505805969E-08  0.93827000000E+00  0.93827000000E+00 0.  1.
     999902    2    1    2    0    0 -0.19249669202E-01 -0.15117090951E-01 -0.36151960309E-02  0.10191884187E+01  0.10188880640E+01 0.  0.
     999903    2    3    3    0    0  0.54377967698E-01 -0.11544197774E+00 -0.17877940354E-01  0.13031860950E+00  0.19480904333E-01 0.  0.
         14    1    1    2    0    0  0.19249669202E-01  0.15117090951E-01  0.36151960309E-02  0.24741581307E-01  0.00000000000E+00 0. -1.
     999901    1    3    3    0    0 -0.73627636900E-01  0.10032488679E+00  0.14262744323E-01  0.88886980920E+00  0.88000000000E+00 0.  1.
        -11    1    4    4    0    0  0.14489108715E-01 -0.32116274413E-01 -0.13809424550E-01  0.37846409089E-01  0.51100000000E-03 0.  1.
         11    1    4    4    0    0  0.39888858983E-01 -0.83325703330E-01 -0.40685158046E-02  0.92472200408E-01  0.51100000000E-03 0. -1.
</event>
<event>
 8    1  0.1109294E+005  0.1043930E+01  0.7957747E-01            NaN
         13   -1    0    0    0    0  0.00000000000E+00  0.00000000000E+00  0.74505805969E-08  0.10566000000E+00  0.10566000000E+00 0.  1.
     999900   -1    0    0    0    0 -0.00000000000E+00 -0.00000000000E+00 -0.74505805969E-08  0.93827000000E+00  0.93827000000E+00 0.  1.
     999902    2    1    2    0    0  0.15953149071E-02 -0.18551486553E-01  0.15706045342E-01  0.10195705554E+01  0.10192795175E+01 0.  0.
     999903    2    3    3    0    0 -0.11911521248E+00  0.36961536829E-01 -0.23797785204E-01  0.12872080382E+00  0.21168885360E-01 0.  0.
         14    1    1    2    0    0 -0.15953149071E-02  0.18551486553E-01 -0.15706045342E-01  0.24359444641E-01  0.00000000000E+00 0. -1.
     999901    1    3    3    0    0  0.12071052738E+00 -0.55513023382E-01  0.39503830546E-01  0.89084975154E+00  0.88000000000E+00 0. -1.
        -11    1    4    4    0    0 -0.45502773560E-01  0.17592048499E-01 -0.19305503623E-01  0.52468525452E-01  0.51100000000E-03 0.  1.
         11    1    4    4    0    0 -0.73612438918E-01  0.19369488331E-01 -0.44922815813E-02  0.76252278369E-01  0.51100000000E-03 0. -1.
</event>
<event>
 8    1  0.1109294E+005  0.1043930E+01  0.7957747E-01            NaN
         13   -1    0    0    0    0  0.00000000000E+00  0.00000000000E+00  0.74505805969E-08  0.10566000000E+00  0.10566000000E+00 0. -1.
     999900   -1    0    0    0    0 -0.00000000000E+00 -0.00000000000E+00 -0.74505805969E-08  0.93827000000E+00  0.93827000000E+00 0.  1.
     999902    2    1    2    0    0 -0.25664652354E-01 -0.92929004068E-03 -0.48292532980E-05  0.10182485284E+01  0.10179246178E+01 0.  0.
     999903    2    3    3    0    0  0.69885455701E-02  0.11634923156E+00  0.49874172426E-01  0.12846855685E+00  0.20754603549E-01 0.  0.
         14    1    1    2    0    0  0.25664652354E-01  0.92929004068E-03  0.48292532980E-05  0.25681471604E-01  0.00000000000E+00 0. -1.
     999901    1    3    3    0    0 -0.32653197924E-01 -0.11727852160E+00 -0.49879001680E-01  0.88977997155E+00  0.88000000000E+00 0.  1.
        -11    1    4    4    0    0  0.69322739601E-02  0.78080113634E-01  0.22967269326E-01  0.81684252759E-01  0.51100000000E-03 0.  1.
         11    1    4    4    0    0  0.56271609993E-04  0.38269117928E-01  0.26906903100E-01  0.46784304087E-01  0.51100000000E-03 0. -1.
</event>
<event>
 8    1  0.1109294E+005  0.1043930E+01  0.7957747E-01            NaN
         13   -1    0    0    0    0  0.00000000000E+00  0.00000000000E+00  0.74505805969E-08  0.10566000000E+00  0.10566000000E+00 0.  1.
     999900   -1    0    0    0    0 -0.00000000000E+00 -0.00000000000E+00 -0.74505805969E-08  0.93827000000E+00  0.93827000000E+00 0.  1.
     999902    2    1    2    0    0 -0.20366519841E-01  0.92366787952E-02  0.96911990966E-02  0.10195572549E+01  0.10192658953E+01 0.  0.
     999903    2    3    3    0    0 -0.72641959318E-01  0.31517256367E-01 -0.10206563414E+00  0.13067102171E+00  0.19680714934E-01 0.  0.
         14    1    1    2    0    0  0.20366519841E-01 -0.92366787952E-02 -0.96911990966E-02  0.24372745137E-01  0.00000000000E+00 0. -1.
     999901    1    3    3    0    0  0.52275439477E-01 -0.22280577572E-01  0.11175683324E+00  0.88888623315E+00  0.88000000000E+00 0. -1.
        -11    1    4    4    0    0 -0.15781193133E-01  0.12493616384E-01 -0.37458440681E-01  0.42526843362E-01  0.51100000000E-03 0. -1.
         11    1    4    4    0    0 -0.56860766185E-01  0.19023639983E-01 -0.64607193460E-01  0.88144178351E-01  0.51100000000E-03 0.  1.
</event>
<event>
 8    1  0.1109294E+005  0.1043930E+01  0.7957747E-01            NaN
         13   -1    0    0    0    0  0.00000000000E+00  0.00000000000E+00  0.74505805969E-08  0.10566000000E+00  0.10566000000E+00 0.  1.
     999900   -1    0    0    0    0 -0.00000000000E+00 -0.00000000000E+00 -0.74505805969E-08  0.93827000000E+00  0.93827000000E+00 0.  1.
     999902    2    1    2    0    0  0.19666168467E-01  0.64055034143E-03 -0.13487498437E-01  0.10200745792E+01  0.10197956001E+01 0.  0.
     999903    2    3    3    0    0  0.30873697630E-01  0.12420440050E+00 -0.22242838439E-01  0.13132810819E+00  0.19297922930E-01 0.  0.
         14    1    1    2    0    0 -0.19666168467E-01 -0.64055034143E-03  0.13487498437E-01  0.23855420788E-01  0.00000000000E+00 0.  1.
     999901    1    3    3    0    0 -0.11207529163E-01 -0.12356385016E+00  0.87553400022E-02  0.88874647102E+00  0.88000000000E+00 0.  1.
        -11    1    4    4    0    0  0.26519910017E-01  0.67033581974E-01 -0.12079332073E-01  0.73095677874E-01  0.51100000000E-03 0. -1.
         11    1    4    4    0    0  0.43537876122E-02  0.57170818528E-01 -0.10163506366E-01  0.58232430315E-01  0.51100000000E-03 0.  1.
</event>
<event>
 8    1  0.1109294E+005  0.1043930E+01  0.7957747E-01            NaN
         13   -1    0    0    0    0  0.00000000000E+00  0.00000000000E+00  0.74505805969E-08  0.10566000000E+00  0.10566000000E+00 0. -1.
     999900   -1    0    0    0    0 -0.00000000000E+00 -0.00000000000E+00 -0.74505805969E-08  0.93827000000E+00  0.93827000000E+00 0.  1.
     999902    2    1    2    0    0  0.22512644311E-01 -0.59081203249E-03 -0.72794146272E-02  0.10202623408E+01  0.10199877872E+01 0.  0.
     999903    2    3    3    0    0  0.11953756882E+00 -0.52985210270E-01  0.14812447803E-01  0.13310561324E+00  0.20025803315E-01 0.  0.
         14    1    1    2    0    0 -0.22512644311E-01  0.59081203249E-03  0.72794146272E-02  0.23667659158E-01  0.00000000000E+00 0. -1.
     999901    1    3    3    0    0 -0.97024924513E-01  0.52394398237E-01 -0.22091862431E-01  0.88715672760E+00  0.88000000000E+00 0. -1.
        -11    1    4    4    0    0  0.10162622498E+00 -0.36745081305E-01  0.11016897361E-01  0.10862653337E+00  0.51100000000E-03 0. -1.
         11    1    4    4    0    0  0.17911343846E-01 -0.16240128964E-01  0.37955504421E-02  0.24479079870E-01  0.51100000000E-03 0.  1.
</event>
<event>
 8    1  0.1109294E+005  0.1043930E+01  0.7957747E-01            NaN
         13   -1    0    0    0    0  0.00000000000E+00  0.00000000000E+00  0.74505805969E-08  0.10566000000E+00  0.10566000000E+00 0. -1.
     999900   -1    0    0    0    0 -0.00000000000E+00 -0.00000000000E+00 -0.74505805969E-08  0.93827000000E+00  0.93827000000E+00 0.  1.
     999902    2    1    2    0    0  0.11436152884E-01 -0.12290005433E-01 -0.13236306678E-01  0.10225517484E+01  0.10223282489E+01 0.  0.
     999903    2    3    3    0    0  0.50971522979E-01 -0.15455903521E-01 -0.12236442207E+00  0.13492456656E+00  0.19864686351E-01 0.  0.
         14    1    1    2    0    0 -0.11436152884E-01  0.12290005433E-01  0.13236306678E-01  0.21378251585E-01  0.00000000000E+00 0. -1.
     999901    1    3    3    0    0 -0.39535370095E-01  0.31658980879E-02  0.10912811539E+00  0.88762718186E+00  0.88000000000E+00 0. -1.
        -11    1    4    4    0    0  0.12946904265E-01  0.36604759839E-02 -0.40127124613E-01  0.42325744709E-01  0.51100000000E-03 0. -1.
         11    1    4    4    0    0  0.38024618714E-01 -0.19116379505E-01 -0.82237297459E-01  0.92598821851E-01  0.51100000000E-03 0.  1.
</event>
<event>
 8    1  0.1109294E+005  0.1043930E+01  0.7957747E-01            NaN
         13   -1    0    0    0    0  0.00000000000E+00  0.00000000000E+00  0.74505805969E-08  0.10566000000E+00  0.10566000000E+00 0. -1.
     999900   -1    0    0    0    0 -0.00000000000E+00 -0.00000000000E+00 -0.74505805969E-08  0.93827000000E+00  0.93827000000E+00 0.  1.
     999902    2    1    2    0    0  0.93523779048E-02  0.22119758426E-01  0.25030933729E-02  0.10197842724E+01  0.10194983796E+01 0.  0.
     999903    2    3    3    0    0  0.10784746368E+00  0.26866625672E-02  0.72179139125E-01  0.13133974487E+00  0.20050109195E-01 0.  0.
         14    1    1    2    0    0 -0.93523779048E-02 -0.22119758426E-01 -0.25030933729E-02  0.24145727608E-01  0.00000000000E+00 0. -1.
     999901    1    3    3    0    0 -0.98495085776E-01  0.19433095859E-01 -0.69676045753E-01  0.88844452752E+00  0.88000000000E+00 0. -1.
        -11    1    4    4    0    0  0.66395166163E-02 -0.36095889023E-02  0.14685934356E-02  0.77155816774E-02  0.51100000000E-03 0. -1.
         11    1    4    4    0    0  0.10120794706E+00  0.62962514695E-02  0.70710545690E-01  0.12362416319E+00  0.51100000000E-03 0.  1.
</event>
<event>
 8    1  0.1109294E+005  0.1043930E+01  0.7957747E-01            NaN
         13   -1    0    0    0    0  0.00000000000E+00  0.00000000000E+00  0.74505805969E-08  0.10566000000E+00  0.10566000000E+00 0. -1.
     999900   -1    0    0    0    0 -0.00000000000E+00 -0.00000000000E+00 -0.74505805969E-08  0.93827000000E+00  0.93827000000E+00 0. -1.
     999902    2    1    2    0    0  0.11226721033E-01  0.71603825072E-03  0.19631132520E-01  0.10213040560E+01  0.10210533980E+01 0.  0.
     999903    2    3    3    0    0  0.20329231159E-02 -0.62481301799E-01  0.11644905213E+00  0.13369370275E+00  0.20138981150E-01 0.  0.
         14    1    1    2    0    0 -0.11226721033E-01 -0.71603825072E-03 -0.19631132520E-01  0.22625943957E-01  0.00000000000E+00 0.  1.
     999901    1    3    3    0    0  0.91937979166E-02  0.63197340050E-01 -0.96817919614E-01  0.88761035329E+00  0.88000000000E+00 0. -1.
        -11    1    4    4    0    0  0.84863034789E-02 -0.35338973173E-01  0.51801932563E-01  0.63281606411E-01  0.51100000000E-03 0.  1.
         11    1    4    4    0    0 -0.64533803630E-02 -0.27142328626E-01  0.64647119571E-01  0.70412096342E-01  0.51100000000E-03 0. -1.
</event>
<event>
 8    1  0.1109294E+005  0.1043930E+01  0.7957747E-01            NaN
         13   -1    0    0    0    0  0.00000000000E+00  0.00000000000E+00  0.74505805969E-08  0.10566000000E+00  0.10566000000E+00 0.  1.
     999900   -1    0    0    0    0 -0.00000000000E+00 -0.00000000000E+00 -0.74505805969E-08  0.93827000000E+00  0.93827000000E+00 0. -1.
     999902    2    1    2    0    0  0.16632453285E-01 -0.94658218242E-02 -0.23760883442E-01  0.10134206593E+01  0.10129613087E+01 0.  0.
     999903    2    3    3    0    0 -0.56738245628E-01 -0.99074171653E-01 -0.48283648265E-01  0.12549370187E+00  0.19556035236E-01 0.  0.
         14    1    1    2    0    0 -0.16632453285E-01  0.94658218242E-02  0.23760883442E-01  0.30509340652E-01  0.00000000000E+00 0.  1.
     999901    1    3    3    0    0  0.73370698913E-01  0.89608349829E-01  0.24522764823E-01  0.88792695748E+00  0.88000000000E+00 0. -1.
        -11    1    4    4    0    0 -0.42086697468E-01 -0.76356074630E-01 -0.27602468800E-01  0.91453253860E-01  0.51100000000E-03 0. -1.
         11    1    4    4    0    0 -0.14651548160E-01 -0.22718097022E-01 -0.20681179465E-01  0.34040448012E-01  0.51100000000E-03 0.  1.
</event>
<event>
 8    1  0.1109294E+005  0.1043930E+01  0.7957747E-01            NaN
         13   -1    0    0    0    0  0.00000000000E+00  0.00000000000E+00  0.74505805969E-08  0.10566000000E+00  0.10566000000E+00 0.  1.
     999900   -1    0    0    0    0 -0.00000000000E+00 -0.00000000000E+00 -0.74505805969E-08  0.93827000000E+00  0.93827000000E+00 0. -1.
     999902    2    1    2    0    0  0.12455670969E-01 -0.17930632179E-01 -0.50445830542E-02  0.10215224315E+01  0.10212766417E+01 0.  0.
     999903    2    3    3    0    0 -0.27265641037E-01  0.62143992529E-02  0.12590024654E+00  0.13061990393E+00  0.20703943672E-01 0.  0.
         14    1    1    2    0    0 -0.12455670969E-01  0.17930632179E-01  0.50445830542E-02  0.22407568539E-01  0.00000000000E+00 0. -1.
     999901    1    3    3    0    0  0.39721312007E-01 -0.24145031431E-01 -0.13094482959E+00  0.89090252753E+00  0.88000000000E+00 0. -1.
        -11    1    4    4    0    0 -0.55950969834E-02  0.86348111236E-02  0.67460291563E-01  0.68242341198E-01  0.51100000000E-03 0. -1.
         11    1    4    4    0    0 -0.21670544054E-01 -0.24204118707E-02  0.58439954977E-01  0.62377562729E-01  0.51100000000E-03 0.  1.
</event>
<event>
 8    1  0.1109294E+005  0.1043930E+01  0.7957747E-01            NaN
         13   -1    0    0    0    0  0.00000000000E+00  0.00000000000E+00  0.74505805969E-08  0.10566000000E+00  0.10566000000E+00 0.  1.
     999900   -1    0    0    0    0 -0.00000000000E+00 -0.00000000000E+00 -0.74505805969E-08  0.93827000000E+00  0.93827000000E+00 0.  1.
     999902    2    1    2    0    0 -0.23777641420E-01 -0.34951627643E-02  0.80643521537E-03  0.10198833218E+01  0.10195997977E+01 0.  0.
     999903    2    3    3    0    0 -0.16315177409E-01 -0.11809147678E+00  0.49680346886E-01  0.13107700838E+00  0.22388911445E-01 0.  0.
         14    1    1    2    0    0  0.23777641420E-01  0.34951627643E-02 -0.80643521537E-03  0.24046678190E-01  0.00000000000E+00 0.  1.
     999901    1    3    3    0    0 -0.74624640110E-02  0.11459631402E+00 -0.48873911671E-01  0.88880631343E+00  0.88000000000E+00 0.  1.
        -11    1    4    4    0    0 -0.75904174675E-02 -0.33267284312E-01  0.40579843438E-02  0.34366480774E-01  0.51100000000E-03 0. -1.
         11    1    4    4    0    0 -0.87247599412E-02 -0.84824192471E-01  0.45622362542E-01  0.96710527603E-01  0.51100000000E-03 0.  1.
</event>
<event>
 8    1  0.1109294E+005  0.1043930E+01  0.7957747E-01            NaN
         13   -1    0    0    0    0  0.00000000000E+00  0.00000000000E+00  0.74505805969E-08  0.10566000000E+00  0.10566000000E+00 0.  1.
     999900   -1    0    0    0    0 -0.00000000000E+00 -0.00000000000E+00 -0.74505805969E-08  0.93827000000E+00  0.93827000000E+00 0.  1.
     999902    2    1    2    0    0  0.36137729933E-02  0.70049596840E-02 -0.21025207058E-01  0.10214758657E+01  0.10212290419E+01 0.  0.
     999903    2    3    3    0    0 -0.65335359515E-01 -0.25178650582E-01 -0.11169453990E+00  0.13355092768E+00  0.21389399018E-01 0.  0.
         14    1    1    2    0    0 -0.36137729933E-02 -0.70049596840E-02  0.21025207058E-01  0.22454134302E-01  0.00000000000E+00 0.  1.
     999901    1    3    3    0    0  0.68949132508E-01  0.32183610266E-01  0.90669332847E-01  0.88792493802E+00  0.88000000000E+00 0. -1.
        -11    1    4    4    0    0 -0.31161219617E-01 -0.72996049374E-02 -0.68694648803E-01  0.75786025990E-01  0.51100000000E-03 0. -1.
         11    1    4    4    0    0 -0.34174139898E-01 -0.17879045644E-01 -0.42999891102E-01  0.57764901685E-01  0.51100000000E-03 0.  1.
</event>
<event>
 8    1  0.1109294E+005  0.1043930E+01  0.7957747E-01            NaN
         13   -1    0    0    0    0  0.00000000000E+00  0.00000000000E+00  0.74505805969E-08  0.10566000000E+00  0.10566000000E+00 0. -1.
     999900   -1    0    0    0    0 -0.00000000000E+00 -0.00000000000E+00 -0.74505805969E-08  0.93827000000E+00  0.93827000000E+00 0.  1.
     999902    2    1    2    0    0  0.68786380221E-03 -0.37902749734E-03  0.23921135280E-01  0.10199959754E+01  0.10197151330E+01 0.  0.
     999903    2    3    3    0    0  0.10848689205E+00  0.65578699169E-01 -0.21524744260E-01  0.12980701788E+00  0.17792575518E-01 0.  0.
         14    1    1    2    0    0 -0.68786380221E-03  0.37902749734E-03 -0.23921135280E-01  0.23934024558E-01  0.00000000000E+00 0.  1.
     999901    1    3    3    0    0 -0.10779902825E+00 -0.65957726667E-01  0.45445879540E-01  0.89018895756E+00  0.88000000000E+00 0. -1.
        -11    1    4    4    0    0  0.64586538437E-01  0.47575329559E-01 -0.18077347896E-01  0.82230678934E-01  0.51100000000E-03 0. -1.
         11    1    4    4    0    0  0.43900353614E-01  0.18003369610E-01 -0.34473963635E-02  0.47576338945E-01  0.51100000000E-03 0.  1.
</event>
<event>
 8    1  0.1109294E+005  0.1043930E+01  0.7957747E-01            NaN
         13   -1    0    0    0    0  0.00000000000E+00  0.00000000000E+00  0.74505805969E-08  0.10566000000E+00  0.10566000000E+00 0.  1.
     999900   -1    0    0    0    0 -0.00000000000E+00 -0.00000000000E+00 -0.74505805969E-08  0.93827000000E+00  0.93827000000E+00 0. -1.
     999902    2    1    2    0    0  0.91809614713E-02 -0.15641274377E-01  0.15579952534E-01  0.10200202857E+01  0.10197400202E+01 0.  0.
     999903    2    3    3    0    0  0.88158251419E-01  0.60078512530E-01  0.73830656996E-01  0.13133359003E+00  0.20401985141E-01 0.  0.
         14    1    1    2    0    0 -0.91809614713E-02  0.15641274377E-01 -0.15579952534E-01  0.23909714315E-01  0.00000000000E+00 0. -1.
     999901    1    3    3    0    0 -0.78977289948E-01 -0.75719786907E-01 -0.58250704461E-01  0.88868669565E+00  0.88000000000E+00 0. -1.
        -11    1    4    4    0    0  0.52735358004E-01  0.47487921931E-01  0.50177844695E-01  0.86914889014E-01  0.51100000000E-03 0.  1.
         11    1    4    4    0    0  0.35422893416E-01  0.12590590599E-01  0.23652812301E-01  0.44418701020E-01  0.51100000000E-03 0. -1.
</event>
<event>
 8    1  0.1109294E+005  0.1043930E+01  0.7957747E-01            NaN
         13   -1    0    0    0    0  0.00000000000E+00  0.00000000000E+00  0.74505805969E-08  0.10566000000E+00  0.10566000000E+00 0. -1.
     999900   -1    0    0    0    0 -0.00000000000E+00 -0.00000000000E+00 -0.74505805969E-08  0.93827000000E+00  0.93827000000E+00 0. -1.
     999902    2    1    2    0    0 -0.10628218200E-01 -0.20984102556E-01  0.39313067104E-02  0.10200815880E+01  0.10198027748E+01 0.  0.
     999903    2    3    3    0    0  0.78568760589E-01  0.69366282706E-02  0.10130301087E+00  0.12979123256E+00  0.19034103222E-01 0.  0.
         14    1    1    2    0    0  0.10628218200E-01  0.20984102556E-01 -0.39313067104E-02  0.23848411994E-01  0.00000000000E+00 0. -1.
     999901    1    3    3    0    0 -0.89196978789E-01 -0.27920730827E-01 -0.97371704157E-01  0.89029035545E+00  0.88000000000E+00 0. -1.
        -11    1    4    4    0    0  0.23397465323E-01 -0.32507046065E-02  0.41744769164E-01  0.47967648864E-01  0.51100000000E-03 0.  1.
         11    1    4    4    0    0  0.55171295266E-01  0.10187332877E-01  0.59558241704E-01  0.81823583693E-01  0.51100000000E-03 0. -1.
</event>
<event>
 8    1  0.1109294E+005  0.1043930E+01  0.7957747E-01            NaN
         13   -1    0    0    0    0  0.00000000000E+00  0.00000000000E+00  0.74505805969E-08  0.10566000000E+00  0.10566000000E+00 0.  1.
     999900   -1    0    0    0    0 -0.00000000000E+00 -0.00000000000E+00 -0.74505805969E-08  0.93827000000E+00  0.93827000000E+00 0. -1.
     999902    2    1    2    0    0 -0.10302960273E-01 -0.16571603698E-01  0.12137581310E-01  0.10209497929E+01  0.10206911333E+01 0.  0.
     999903    2    3    3    0    0 -0.68546387301E-01 -0.10353664325E+00 -0.43232054510E-01  0.13301904587E+00  0.20164630418E-01 0.  0.
         14    1    1    2    0    0  0.10302960273E-01  0.16571603698E-01 -0.12137581310E-01  0.22980207126E-01  0.00000000000E+00 0. -1.
     999901    1    3    3    0    0  0.58243427028E-01  0.86965039557E-01  0.55369635819E-01  0.88793074700E+00  0.88000000000E+00 0.  1.
        -11    1    4    4    0    0 -0.66043447422E-01 -0.93409302954E-01 -0.34741038075E-01  0.11955850314E+00  0.51100000000E-03 0. -1.
         11    1    4    4    0    0 -0.25029398787E-02 -0.10127340300E-01 -0.84910164342E-02  0.13460542733E-01  0.51100000000E-03 0.  1.
</event>
<event>
 8    1  0.1109294E+005  0.1043930E+01  0.7957747E-01            NaN
         13   -1    0    0    0    0  0.00000000000E+00  0.00000000000E+00  0.74505805969E-08  0.10566000000E+00  0.10566000000E+00 0.  1.
     999900   -1    0    0    0    0 -0.00000000000E+00 -0.00000000000E+00 -0.74505805969E-08  0.93827000000E+00  0.93827000000E+00 0. -1.
     999902    2    1    2    0    0 -0.10295258136E-02 -0.21237322681E-01 -0.10965313975E-01  0.10200067496E+01  0.10197261629E+01 0.  0.
     999903    2    3    3    0    0  0.10685752118E+00  0.18392889669E-01  0.67192849976E-01  0.12909773786E+00  0.19862492538E-01 0.  0.
         14    1    1    2    0    0  0.10295258136E-02  0.21237322681E-01  0.10965313975E-01  0.23923250377E-01  0.00000000000E+00 0.  1.
     999901    1    3    3    0    0 -0.10788704700E+00 -0.39630212350E-01 -0.78158163951E-01  0.89090901176E+00  0.88000000000E+00 0.  1.
        -11    1    4    4    0    0  0.50769421070E-01  0.86646669355E-02  0.43571971030E-01  0.67463978161E-01  0.51100000000E-03 0.  1.
         11    1    4    4    0    0  0.56088100114E-01  0.97282227336E-02  0.23620878945E-01  0.61633759703E-01  0.51100000000E-03 0. -1.
</event>
<event>
 8    1  0.1109294E+005  0.1043930E+01  0.7957747E-01            NaN
         13   -1    0    0    0    0  0.00000000000E+00  0.00000000000E+00  0.74505805969E-08  0.10566000000E+00  0.10566000000E+00 0. -1.
     999900   -1    0    0    0    0 -0.00000000000E+00 -0.00000000000E+00 -0.74505805969E-08  0.93827000000E+00  0.93827000000E+00 0.  1.
     999902    2    1    2    0    0  0.14626166070E-01  0.17951000001E-01 -0.32547581347E-02  0.10205471733E+01  0.10202792639E+01 0.  0.
     999903    2    3    3    0    0  0.28793433808E-01 -0.12110180277E-01 -0.12612408573E+00  0.13138956200E+00  0.19499069316E-01 0.  0.
         14    1    1    2    0    0 -0.14626166070E-01 -0.17951000001E-01  0.32547581347E-02  0.23382826721E-01  0.00000000000E+00 0. -1.
     999901    1    3    3    0    0 -0.14167267738E-01  0.30061180278E-01  0.12286932760E+00  0.88915761128E+00  0.88000000000E+00 0. -1.
        -11    1    4    4    0    0  0.16552521871E-01  0.35439926856E-02 -0.59480353130E-01  0.61844315777E-01  0.51100000000E-03 0.  1.
         11    1    4    4    0    0  0.12240911937E-01 -0.15654172963E-01 -0.66643732599E-01  0.69545246221E-01  0.51100000000E-03 0. -1.
</event>
<event>
 8    1  0.1109294E+005  0.1043930E+01  0.7957747E-01            NaN
         13   -1    0    0    0    0  0.00000000000E+00  0.00000000000E+00  0.74505805969E-08  0.10566000000E+00  0.10566000000E+00 0. -1.
     999900   -1    0    0    0    0 -0.00000000000E+00 -0.00000000000E+00 -0.74505805969E-08  0.93827000000E+00  0.93827000000E+00 0. -1.
     999902    2    1    2    0    0  0.32263965604E-02 -0.16974517621E-01 -0.20612141415E-01  0.10170338245E+01  0.10166781181E+01 0.  0.
     999903    2    3    3    0    0  0.38882562541E-01 -0.70426420375E-01  0.96479664452E-01  0.12695576102E+00  0.18376758304E-01 0.  0.
         14    1    1    2    0    0 -0.32263965604E-02  0.16974517621E-01  0.20612141415E-01  0.26896175508E-01  0.00000000000E+00 0. -1.
     999901    1    3    3    0    0 -0.35656165981E-01  0.53451902754E-01 -0.11709180587E+00  0.89007806348E+00  0.88000000000E+00 0. -1.
        -11    1    4    4    0    0  0.21172074637E-01 -0.43421890960E-01  0.44064110882E-01  0.65388258486E-01  0.51100000000E-03 0. -1.
         11    1    4    4    0    0  0.17710487905E-01 -0.27004529414E-01  0.52415553571E-01  0.61567502530E-01  0.51100000000E-03 0.  1.
</event>
<event>
 8    1  0.1109294E+005  0.1043930E+01  0.7957747E-01            NaN
         13   -1    0    0    0    0  0.00000000000E+00  0.00000000000E+00  0.74505805969E-08  0.10566000000E+00  0.10566000000E+00 0. -1.
     999900   -1    0    0    0    0 -0.00000000000E+00 -0.00000000000E+00 -0.74505805969E-08  0.93827000000E+00  0.93827000000E+00 0. -1.
     999902    2    1    2    0    0 -0.64317459013E-02 -0.13390533262E-01 -0.18461429958E-01  0.10202340482E+01  0.10199588300E+01 0.  0.
     999903    2    3    3    0    0 -0.75373736917E-01  0.54797769295E-01  0.86582370135E-01  0.12869782196E+00  0.19560849237E-01 0.  0.
         14    1    1    2    0    0  0.64317459013E-02  0.13390533262E-01  0.18461429958E-01  0.23695951816E-01  0.00000000000E+00 0. -1.
     999901    1    3    3    0    0  0.68941991016E-01 -0.68188302556E-01 -0.10504380009E+00  0.89153622622E+00  0.88000000000E+00 0.  1.
        -11    1    4    4    0    0 -0.53155935346E-01  0.48343086699E-01  0.61598202939E-01  0.94642523321E-01  0.51100000000E-03 0.  1.
         11    1    4    4    0    0 -0.22217801571E-01  0.64546825955E-02  0.24984167195E-01  0.34055298641E-01  0.51100000000E-03 0. -1.
</event>
<event>
 8    1  0.1109294E+005  0.1043930E+01  0.7957747E-01            NaN
         13   -1    0    0    0    0  0.00000000000E+00  0.00000000000E+00  0.74505805969E-08  0.10566000000E+00  0.10566000000E+00 0. -1.
     999900   -1    0    0    0    0 -0.00000000000E+00 -0.00000000000E+00 -0.74505805969E-08  0.93827000000E+00  0.93827000000E+00 0.  1.
     999902    2    1    2    0    0 -0.14676570713E-01  0.17183958956E-01  0.57277229040E-02  0.10206169783E+01  0.10203506845E+01 0.  0.
     999903    2    3    3    0    0 -0.35306746779E-01 -0.21580329647E-01 -0.12192691782E+00  0.13032265527E+00  0.20138127810E-01 0.  0.
         14    1    1    2    0    0  0.14676570713E-01 -0.17183958956E-01 -0.57277229040E-02  0.23313021747E-01  0.00000000000E+00 0.  1.
     999901    1    3    3    0    0  0.20630176066E-01  0.38764288604E-01  0.12765464073E+00  0.89029432298E+00  0.88000000000E+00 0.  1.
        -11    1    4    4    0    0 -0.24891051486E-01 -0.11034039122E-01 -0.50523121342E-01  0.57394785256E-01  0.51100000000E-03 0.  1.
         11    1    4    4    0    0 -0.10415695293E-01 -0.10546290525E-01 -0.71403796479E-01  0.72927870015E-01  0.51100000000E-03 0. -1.
</event>
<event>
 8    1  0.1109294E+005  0.1043930E+01  0.7957747E-01            NaN
         13   -1    0    0    0    0  0.00000000000E+00  0.00000000000E+00  0.74505805969E-08  0.10566000000E+00  0.10566000000E+00 0.  1.
     999900   -1    0    0    0    0 -0.00000000000E+00 -0.00000000000E+00 -0.74505805969E-08  0.93827000000E+00  0.93827000000E+00 0. -1.
     999902    2    1    2    0    0  0.21610129785E-01 -0.98575692319E-02 -0.41793818286E-02  0.10198128565E+01  0.10195276483E+01 0.  0.
     999903    2    3    3    0    0  0.26076218411E-01 -0.12443605163E+00  0.27873290020E-01  0.13179509292E+00  0.20705702339E-01 0.  0.
         14    1    1    2    0    0 -0.21610129785E-01  0.98575692319E-02  0.41793818286E-02  0.24117143549E-01  0.00000000000E+00 0. -1.
     999901    1    3    3    0    0 -0.44660886259E-02  0.11457848240E+00 -0.32052671848E-01  0.88801776353E+00  0.88000000000E+00 0. -1.
        -11    1    4    4    0    0  0.18204001994E-01 -0.49511176866E-01  0.18360034118E-01  0.55857804263E-01  0.51100000000E-03 0.  1.
         11    1    4    4    0    0  0.78722164167E-02 -0.74924874764E-01  0.95132559013E-02  0.75937288657E-01  0.51100000000E-03 0. -1.
</event>
<event>
 8    1  0.1109294E+005  0.1043930E+01  0.7957747E-01            NaN
         13   -1    0    0    0    0  0.00000000000E+00  0.00000000000E+00  0.74505805969E-08  0.10566000000E+00  0.10566000000E+00 0. -1.
     999900   -1    0    0    0    0 -0.00000000000E+00 -0.00000000000E+00 -0.74505805969E-08  0.93827000000E+00  0.93827000000E+00 0. -1.
     999902    2    1    2    0    0 -0.10698580345E-02 -0.24839229897E-01  0.18063895880E-01  0.10131983181E+01  0.10127321440E+01 0.  0.
     999903    2    3    3    0    0 -0.20835550171E-01  0.72605566045E-01  0.96282105705E-01  0.12415149189E+00  0.20920341493E-01 0.  0.
         14    1    1    2    0    0  0.10698580345E-02  0.24839229897E-01 -0.18063895880E-01  0.30731681900E-01  0.00000000000E+00 0.  1.
     999901    1    3    3    0    0  0.19765692136E-01 -0.97444795942E-01 -0.78218209826E-01  0.88904682621E+00  0.88000000000E+00 0. -1.
        -11    1    4    4    0    0 -0.12896029737E-01  0.24458830005E-01  0.48638412265E-01  0.55950855372E-01  0.51100000000E-03 0. -1.
         11    1    4    4    0    0 -0.79395204335E-02  0.48146736041E-01  0.47643693441E-01  0.68200636520E-01  0.51100000000E-03 0.  1.
</event>
<event>
 8    1  0.1109294E+005  0.1043930E+01  0.7957747E-01            NaN
         13   -1    0    0    0    0  0.00000000000E+00  0.00000000000E+00  0.74505805969E-08  0.10566000000E+00  0.10566000000E+00 0. -1.
     999900   -1    0    0    0    0 -0.00000000000E+00 -0.00000000000E+00 -0.74505805969E-08  0.93827000000E+00  0.93827000000E+00 0. -1.
     999902    2    1    2    0    0  0.23975815478E-01  0.21116711528E-02 -0.41011879545E-02  0.10195144593E+01  0.10192220632E+01 0.  0.
     999903    2    3    3    0    0 -0.85657078605E-01  0.38875624540E-01 -0.85076759239E-01  0.12826365128E+00  0.19106542807E-01 0.  0.
         14    1    1    2    0    0 -0.23975815478E-01 -0.21116711528E-02  0.41011879545E-02  0.24415540656E-01  0.00000000000E+00 0. -1.
     999901    1    3    3    0    0  0.10963289408E+00 -0.36763953387E-01  0.80975571284E-01  0.89125080807E+00  0.88000000000E+00 0.  1.
        -11    1    4    4    0    0 -0.74047920047E-01  0.39348496658E-01 -0.70064271005E-01  0.10927333547E+00  0.51100000000E-03 0.  1.
         11    1    4    4    0    0 -0.11609158558E-01 -0.47287211810E-03 -0.15012488234E-01  0.18990315806E-01  0.51100000000E-03 0. -1.
</event>
<event>
 8    1  0.1109294E+005  0.1043930E+01  0.7957747E-01            NaN
         13   -1    0    0    0    0  0.00000000000E+00  0.00000000000E+00  0.74505805969E-08  0.10566000000E+00  0.10566000000E+00 0.  1.
     999900   -1    0    0    0    0 -0.00000000000E+00 -0.00000000000E+00 -0.74505805969E-08  0.93827000000E+00  0.93827000000E+00 0. -1.
     999902    2    1    2    0    0  0.16244304084E-01 -0.17307627540E-01 -0.72525059284E-02  0.10191100437E+01  0.10188077596E+01 0.  0.
     999903    2    3    3    0    0  0.20057725778E-01 -0.74731796059E-01  0.10302211449E+00  0.13036229032E+00  0.19839782177E-01 0.  0.
         14    1    1    2    0    0 -0.16244304084E-01  0.17307627540E-01  0.72525059284E-02  0.24819956254E-01  0.00000000000E+00 0.  1.
     999901    1    3    3    0    0 -0.38134216936E-02  0.57424168519E-01 -0.11027462042E+00  0.88874775343E+00  0.88000000000E+00 0. -1.
        -11    1    4    4    0    0  0.11272578841E-01 -0.52375497988E-01  0.55670146753E-01  0.77263770189E-01  0.51100000000E-03 0.  1.
         11    1    4    4    0    0  0.87851469367E-02 -0.22356298070E-01  0.47351967739E-01  0.53098520129E-01  0.51100000000E-03 0. -1.
</event>
<event>
 8    1  0.1109294E+005  0.1043930E+01  0.7957747E-01            NaN
         13   -1    0    0    0    0  0.00000000000E+00  0.00000000000E+00  0.74505805969E-08  0.10566000000E+00  0.10566000000E+00 0. -1.
     999900   -1    0    0    0    0 -0.00000000000E+00 -0.00000000000E+00 -0.74505805969E-08  0.93827000000E+00  0.93827000000E+00 0.  1.
     999902    2    1    2    0    0 -0.11006022339E-01 -0.93946783762E-02  0.14423685619E-01  0.10234987686E+01  0.10232948227E+01 0.  0.
     999903    2    3    3    0    0  0.75568749294E-01  0.68119280652E-01  0.83240731504E-01  0.13319579167E+00  0.21476202453E-01 0.  0.
         14    1    1    2    0    0  0.11006022339E-01  0.93946783762E-02 -0.14423685619E-01  0.20431231396E-01  0.00000000000E+00 0.  1.
     999901    1    3    3    0    0 -0.86574771633E-01 -0.77513959028E-01 -0.68817045885E-01  0.89030297693E+00  0.88000000000E+00 0.  1.
        -11    1    4    4    0    0  0.68846737768E-01  0.65217428848E-01  0.69351094180E-01  0.11748626180E+00  0.51100000000E-03 0.  1.
         11    1    4    4    0    0  0.67220115263E-02  0.29018518041E-02  0.13889637324E-01  0.15709529874E-01  0.51100000000E-03 0. -1.
</event>
<event>
 8    1  0.1109294E+005  0.1043930E+01  0.7957747E-01            NaN
         13   -1    0    0    0    0  0.00000000000E+00  0.00000000000E+00  0.74505805969E-08  0.10566000000E+00  0.10566000000E+00 0. -1.
     999900   -1    0    0    0    0 -0.00000000000E+00 -0.00000000000E+00 -0.74505805969E-08  0.93827000000E+00  0.93827000000E+00 0. -1.
     999902    2    1    2    0    0 -0.17148347630E-01 -0.62208971118E-02  0.15154963159E-01  0.10202142184E+01  0.10199385340E+01 0.  0.
     999903    2    3    3    0    0  0.24024504536E-01 -0.26389937726E-01  0.12566504460E+00  0.13211823710E+00  0.19746379584E-01 0.  0.
         14    1    1    2    0    0  0.17148347630E-01  0.62208971118E-02 -0.15154963159E-01  0.23715781574E-01  0.00000000000E+00 0.  1.
     999901    1    3    3    0    0 -0.41172852166E-01  0.20169040614E-01 -0.11051008144E+00  0.88809598133E+00  0.88000000000E+00 0. -1.
        -11    1    4    4    0    0  0.30739418549E-02 -0.72029075422E-02  0.60780722078E-01  0.61285302422E-01  0.51100000000E-03 0. -1.
         11    1    4    4    0    0  0.20950562681E-01 -0.19187030184E-01  0.64884322525E-01  0.70832934673E-01  0.51100000000E-03 0.  1.
</event>
<event>
 8    1  0.1109294E+005  0.1043930E+01  0.7957747E-01            NaN
         13   -1    0    0    0    0  0.00000000000E+00  0.00000000000E+00  0.74505805969E-08  0.10566000000E+00  0.10566000000E+00 0. -1.
     999900   -1    0    0    0    0 -0.00000000000E+00 -0.00000000000E+00 -0.74505805969E-08  0.93827000000E+00  0.93827000000E+00 0.  1.
     999902    2    1    2    0    0  0.28602496462E-02 -0.22546456180E-01  0.64832353385E-02  0.10202962095E+01  0.10200224502E+01 0.  0.
     999903    2    3    3    0    0 -0.41263952682E-01  0.10923035099E-01  0.12208580243E+00  0.13100935721E+00  0.20892152487E-01 0.  0.
         14    1    1    2    0    0 -0.28602496462E-02  0.22546456180E-01 -0.64832353385E-02  0.23633790529E-01  0.00000000000E+00 0.  1.
     999901    1    3    3    0    0  0.44124202328E-01 -0.33469491280E-01 -0.11560256709E+00  0.88928685226E+00  0.88000000000E+00 0. -1.
        -11    1    4    4    0    0 -0.13348204820E-01  0.13251794539E-01  0.38482192270E-01  0.42836023081E-01  0.51100000000E-03 0.  1.
         11    1    4    4    0    0 -0.27915747862E-01 -0.23287594398E-02  0.83603610161E-01  0.88173334133E-01  0.51100000000E-03 0. -1.
</event>
<event>
 8    1  0.1109294E+005  0.1043930E+01  0.7957747E-01            NaN
         13   -1    0    0    0    0  0.00000000000E+00  0.00000000000E+00  0.74505805969E-08  0.10566000000E+00  0.10566000000E+00 0. -1.
     999900   -1    0    0    0    0 -0.00000000000E+00 -0.00000000000E+00 -0.74505805969E-08  0.93827000000E+00  0.93827000000E+00 0.  1.
     999902    2    1    2    0    0 -0.78054741042E-03  0.83157929607E-02 -0.14715135954E-01  0.10270096899E+01  0.10268702967E+01 0.  0.
     999903    2    3    3    0    0  0.20635660607E-01 -0.12953400357E+00  0.24966222850E-01  0.13513759674E+00  0.20831927394E-01 0.  0.
         14    1    1    2    0    0  0.78054741042E-03 -0.83157929607E-02  0.14715135954E-01  0.16920310073E-01  0.00000000000E+00 0. -1.
     999901    1    3    3    0    0 -0.21416208017E-01  0.13784979653E+00 -0.39681358804E-01  0.89187209319E+00  0.88000000000E+00 0. -1.
        -11    1    4    4    0    0  0.10538884545E-01 -0.94943947052E-01  0.26277130707E-01  0.99076585975E-01  0.51100000000E-03 0. -1.
         11    1    4    4    0    0  0.10096776062E-01 -0.34590056521E-01 -0.13109078577E-02  0.36061010765E-01  0.51100000000E-03 0.  1.
</event>
<event>
 8    1  0.1109294E+005  0.1043930E+01  0.7957747E-01            NaN
         13   -1    0    0    0    0  0.00000000000E+00  0.00000000000E+00  0.74505805969E-08  0.10566000000E+00  0.10566000000E+00 0. -1.
     999900   -1    0    0    0    0 -0.00000000000E+00 -0.00000000000E+00 -0.74505805969E-08  0.93827000000E+00  0.93827000000E+00 0. -1.
     999902    2    1    2    0    0 -0.42234084240E-02  0.21700959411E-01  0.11310650283E-01  0.10190965623E+01  0.10187939456E+01 0.  0.
     999903    2    3    3    0    0  0.10081519979E+00  0.58411402057E-01 -0.53337668323E-01  0.12973714625E+00  0.20278655221E-01 0.  0.
         14    1    1    2    0    0  0.42234084240E-02 -0.21700959411E-01 -0.11310650283E-01  0.24833437698E-01  0.00000000000E+00 0.  1.
     999901    1    3    3    0    0 -0.10503860821E+00 -0.36710442646E-01  0.64648318606E-01  0.88935941605E+00  0.88000000000E+00 0.  1.
        -11    1    4    4    0    0  0.51198178692E-01  0.18152685905E-01 -0.22725527864E-01  0.58885348302E-01  0.51100000000E-03 0. -1.
         11    1    4    4    0    0  0.49617021096E-01  0.40258716152E-01 -0.30612140459E-01  0.70851797952E-01  0.51100000000E-03 0.  1.
</event>
<event>
 8    1  0.1109294E+005  0.1043930E+01  0.7957747E-01            NaN
         13   -1    0    0    0    0  0.00000000000E+00  0.00000000000E+00  0.74505805969E-08  0.10566000000E+00  0.10566000000E+00 0.  1.
     999900   -1    0    0    0    0 -0.00000000000E+00 -0.00000000000E+00 -0.74505805969E-08  0.93827000000E+00  0.93827000000E+00 0.  1.
     999902    2    1    2    0    0  0.12180699107E-01  0.19737100134E-01  0.33214400418E-02  0.10205002216E+01  0.10202312227E+01 0.  0.
     999903    2    3    3    0    0 -0.65314580481E-01 -0.13616989065E-01  0.10989031779E+00  0.13006496885E+00  0.19738220869E-01 0.  0.
         14    1    1    2    0    0 -0.12180699107E-01 -0.19737100134E-01 -0.33214400418E-02  0.23429778411E-01  0.00000000000E+00 0.  1.
     999901    1    3    3    0    0  0.77495279588E-01  0.33354089199E-01 -0.10656887774E+00  0.89043525274E+00  0.88000000000E+00 0.  1.
        -11    1    4    4    0    0 -0.12514482412E-01 -0.10760658796E-01  0.30343294484E-01  0.34545342507E-01  0.51100000000E-03 0.  1.
         11    1    4    4    0    0 -0.52800098068E-01 -0.28563302687E-02  0.79547023302E-01  0.95519626339E-01  0.51100000000E-03 0. -1.
</event>
<event>
 8    1  0.1109294E+005  0.1043930E+01  0.7957747E-01            NaN
         13   -1    0    0    0    0  0.00000000000E+00  0.00000000000E+00  0.74505805969E-08  0.10566000000E+00  0.10566000000E+00 0. -1.
     999900   -1    0    0    0    0 -0.00000000000E+00 -0.00000000000E+00 -0.74505805969E-08  0.93827000000E+00  0.93827000000E+00 0. -1.
     999902    2    1    2    0    0 -0.17770711083E-02 -0.87335284378E-02 -0.20312178716E-01  0.10217485414E+01  0.10215077409E+01 0.  0.
     999903    2    3    3    0    0 -0.55507347655E-02 -0.58640893427E-01  0.11321764484E+00  0.13026932158E+00  0.26120796409E-01 0.  0.
         14    1    1    2    0    0  0.17770711083E-02  0.87335284378E-02  0.20312178716E-01  0.22181458584E-01  0.00000000000E+00 0. -1.
     999901    1    3    3    0    0  0.37736636571E-02  0.49907364990E-01 -0.13352982355E+00  0.89147921983E+00  0.88000000000E+00 0. -1.
        -11    1    4    4    0    0 -0.13657356536E-01 -0.41962992023E-01  0.64628050822E-01  0.78258943011E-01  0.51100000000E-03 0.  1.
         11    1    4    4    0    0  0.81066217707E-02 -0.16677901404E-01  0.48589594013E-01  0.52010378572E-01  0.51100000000E-03 0. -1.
</event>
<event>
 8    1  0.1109294E+005  0.1043930E+01  0.7957747E-01            NaN
         13   -1    0    0    0    0  0.00000000000E+00  0.00000000000E+00  0.74505805969E-08  0.10566000000E+00  0.10566000000E+00 0. -1.
     999900   -1    0    0    0    0 -0.00000000000E+00 -0.00000000000E+00 -0.74505805969E-08  0.93827000000E+00  0.93827000000E+00 0.  1.
     999902    2    1    2    0    0  0.58998392154E-02  0.18563145700E-01 -0.14997562786E-01  0.10193469699E+01  0.10190504990E+01 0.  0.
     999903    2    3    3    0    0 -0.10611235285E+00  0.12265746826E-01  0.67462033949E-01  0.12840029722E+00  0.22917904144E-01 0.  0.
         14    1    1    2    0    0 -0.58998392154E-02 -0.18563145700E-01  0.14997562786E-01  0.24583030134E-01  0.00000000000E+00 0. -1.
     999901    1    3    3    0    0  0.11201219206E+00  0.62973988744E-02 -0.82459596735E-01  0.89094667264E+00  0.88000000000E+00 0.  1.
        -11    1    4    4    0    0 -0.28135483909E-01  0.95135360763E-03  0.68175890523E-02  0.28969832067E-01  0.51100000000E-03 0.  1.
         11    1    4    4    0    0 -0.77976868936E-01  0.11314393218E-01  0.60644444897E-01  0.99430465155E-01  0.51100000000E-03 0. -1.
</event>
<event>
 8    1  0.1109294E+005  0.1043930E+01  0.7957747E-01            NaN
         13   -1    0    0    0    0  0.00000000000E+00  0.00000000000E+00  0.74505805969E-08  0.10566000000E+00  0.10566000000E+00 0.  1.
     999900   -1    0    0    0    0 -0.00000000000E+00 -0.00000000000E+00 -0.74505805969E-08  0.93827000000E+00  0.93827000000E+00 0.  1.
     999902    2    1    2    0    0  0.14650589567E-01 -0.19025502337E-01  0.26831534883E-02  0.10197678638E+01  0.10194815777E+01 0.  0.
     999903    2    3    3    0    0 -0.11952298679E-01 -0.11144609859E+00  0.67098630730E-01  0.13218765108E+00  0.20205408156E-01 0.  0.
         14    1    1    2    0    0 -0.14650589567E-01  0.19025502337E-01 -0.26831534883E-02  0.24162136215E-01  0.00000000000E+00 0. -1.
     999901    1    3    3    0    0  0.26602888246E-01  0.92420596250E-01 -0.64415477242E-01  0.88758021270E+00  0.88000000000E+00 0.  1.
        -11    1    4    4    0    0 -0.12300096473E-01 -0.58106257624E-01  0.44679209161E-01  0.74324440129E-01  0.51100000000E-03 0. -1.
         11    1    4    4    0    0  0.34779779369E-03 -0.53339840963E-01  0.22419421569E-01  0.57863210953E-01  0.51100000000E-03 0.  1.
</event>
<event>
 8    1  0.1109294E+005  0.1043930E+01  0.7957747E-01            NaN
         13   -1    0    0    0    0  0.00000000000E+00  0.00000000000E+00  0.74505805969E-08  0.10566000000E+00  0.10566000000E+00 0. -1.
     999900   -1    0    0    0    0 -0.00000000000E+00 -0.00000000000E+00 -0.74505805969E-08  0.93827000000E+00  0.93827000000E+00 0.  1.
     999902    2    1    2    0    0  0.13069643093E-01  0.51455985062E-02  0.19225150818E-01  0.10201203553E+01  0.10198424585E+01 0.  0.
     999903    2    3    3    0    0 -0.42154100609E-01 -0.64323667491E-01 -0.10012159208E+00  0.12764106381E+00  0.18799084339E-01 0.  0.
         14    1    1    2    0    0 -0.13069643093E-01 -0.51455985062E-02 -0.19225150818E-01  0.23809644654E-01  0.00000000000E+00 0.  1.
     999901    1    3    3    0    0  0.55223743702E-01  0.69469265998E-01  0.11934674290E+00  0.89247929154E+00  0.88000000000E+00 0. -1.
        -11    1    4    4    0    0 -0.91064684996E-02 -0.12156603330E-01 -0.33573317730E-01  0.36852945031E-01  0.51100000000E-03 0. -1.
         11    1    4    4    0    0 -0.33047632110E-01 -0.52167064162E-01 -0.66548274347E-01  0.90788118776E-01  0.51100000000E-03 0.  1.
</event>
<event>
 8    1  0.1109294E+005  0.1043930E+01  0.7957747E-01            NaN
         13   -1    0    0    0    0  0.00000000000E+00  0.00000000000E+00  0.74505805969E-08  0.10566000000E+00  0.10566000000E+00 0.  1.
     999900   -1    0    0    0    0 -0.00000000000E+00 -0.00000000000E+00 -0.74505805969E-08  0.93827000000E+00  0.93827000000E+00 0. -1.
     999902    2    1    2    0    0  0.13736863930E-01 -0.15736285687E-01  0.11729919200E-01  0.10199733074E+01  0.10196919263E+01 0.  0.
     999903    2    3    3    0    0  0.32447671523E-01 -0.17784287689E-01  0.12595921151E+00  0.13239084930E+00  0.17102097495E-01 0.  0.
         14    1    1    2    0    0 -0.13736863930E-01  0.15736285687E-01 -0.11729919200E-01  0.23956692641E-01  0.00000000000E+00 0. -1.
     999901    1    3    3    0    0 -0.18710807594E-01  0.20480020019E-02 -0.11422929231E+00  0.88758245806E+00  0.88000000000E+00 0. -1.
        -11    1    4    4    0    0  0.56067772139E-02  0.32475404811E-02  0.16185597046E-01  0.17441821655E-01  0.51100000000E-03 0. -1.
         11    1    4    4    0    0  0.26840894309E-01 -0.21031828170E-01  0.10977361446E+00  0.11494902765E+00  0.51100000000E-03 0.  1.
</event>
<event>
 8    1  0.1109294E+005  0.1043930E+01  0.7957747E-01            NaN
         13   -1    0    0    0    0  0.00000000000E+00  0.00000000000E+00  0.74505805969E-08  0.10566000000E+00  0.10566000000E+00 0.  1.
     999900   -1    0    0    0    0 -0.00000000000E+00 -0.00000000000E+00 -0.74505805969E-08  0.93827000000E+00  0.93827000000E+00 0.  1.
     999902    2    1    2    0    0  0.97878741238E-02 -0.45454708715E-02 -0.20458704919E-01  0.10207994489E+01  0.10205373548E+01 0.  0.
     999903    2    3    3    0    0 -0.68633699216E-01  0.96853148508E-01  0.46270905986E-01  0.12901221863E+00  0.20298738160E-01 0.  0.
         14    1    1    2    0    0 -0.97878741238E-02  0.45454708715E-02  0.20458704919E-01  0.23130551059E-01  0.00000000000E+00 0.  1.
     999901    1    3    3    0    0  0.78421573339E-01 -0.10139861938E+00 -0.66729610905E-01  0.89178723031E+00  0.88000000000E+00 0.  1.
        -11    1    4    4    0    0 -0.47607267169E-01  0.68615788582E-01  0.42188720525E-01  0.93566701292E-01  0.51100000000E-03 0. -1.
         11    1    4    4    0    0 -0.21026432046E-01  0.28237359925E-01  0.40821854614E-02  0.35445517337E-01  0.51100000000E-03 0.  1.
</event>
<event>
 8    1  0.1109294E+005  0.1043930E+01  0.7957747E-01            NaN
         13   -1    0    0    0    0  0.00000000000E+00  0.00000000000E+00  0.74505805969E-08  0.10566000000E+00  0.10566000000E+00 0. -1.
     999900   -1    0    0    0    0 -0.00000000000E+00 -0.00000000000E+00 -0.74505805969E-08  0.93827000000E+00  0.93827000000E+00 0. -1.
     999902    2    1    2    0    0  0.48839231020E-02 -0.18086192643E-01 -0.15654282169E-01  0.10195164870E+01  0.10192241400E+01 0.  0.
     999903    2    3    3    0    0 -0.23643857316E-01 -0.12583714517E+00 -0.27536328150E-01  0.13240584839E+00  0.19468955507E-01 0.  0.
         14    1    1    2    0    0 -0.48839231020E-02  0.18086192643E-01  0.15654282169E-01  0.24413513050E-01  0.00000000000E+00 0. -1.
     999901    1    3    3    0    0  0.28527780418E-01  0.10775095252E+00  0.11882045982E-01  0.88711063856E+00  0.88000000000E+00 0.  1.
        -11    1    4    4    0    0 -0.15038397003E-01 -0.64178742779E-01 -0.46808581423E-02  0.66085066112E-01  0.51100000000E-03 0. -1.
         11    1    4    4    0    0 -0.86054603129E-02 -0.61658402387E-01 -0.22855470008E-01  0.66320782281E-01  0.51100000000E-03 0.  1.
</event>
<event>
 8    1  0.1109294E+005  0.1043930E+01  0.7957747E-01            NaN
         13   -1    0    0    0    0  0.00000000000E+00  0.00000000000E+00  0.74505805969E-08  0.10566000000E+00  0.10566000000E+00 0.  1.
     999900   -1    0    0    0    0 -0.00000000000E+00 -0.00000000000E+00 -0.74505805969E-08  0.93827000000E+00  0.93827000000E+00 0.  1.
     999902    2    1    2    0    0 -0.37367745981E-02 -0.58952472571E-02  0.22944047500E-01  0.10199477828E+01  0.10196657947E+01 0.  0.
     999903    2    3    3    0    0 -0.29028711008E-01 -0.11232579878E+00 -0.50297279959E-01  0.13015486513E+00  0.30833770634E-01 0.  0.
         14    1    1    2    0    0  0.37367745981E-02  0.58952472571E-02 -0.22944047500E-01  0.23982217168E-01  0.00000000000E+00 0. -1.
     999901    1    3    3    0    0  0.25291936410E-01  0.10643055152E+00  0.73241327459E-01  0.88979291770E+00  0.88000000000E+00 0. -1.
        -11    1    4    4    0    0  0.65134110833E-03 -0.55358374157E-01 -0.17735137282E-01  0.58135789751E-01  0.51100000000E-03 0.  1.
         11    1    4    4    0    0 -0.29680052117E-01 -0.56967424621E-01 -0.32562142677E-01  0.72019075378E-01  0.51100000000E-03 0. -1.
</event>
<event>
 8    1  0.1399176E+005  0.1043930E+01  0.7957747E-01            NaN
         13   -1    0    0    0    0  0.00000000000E+00  0.00000000000E+00  0.74505805969E-08  0.10566000000E+00  0.10566000000E+00 0.  1.
     999900   -1    0    0    0    0 -0.00000000000E+00 -0.00000000000E+00 -0.74505805969E-08  0.93827000000E+00  0.93827000000E+00 0. -1.
     999902    2    1    2    0    0  0.93427445395E-02  0.20068741042E-01  0.39544134967E-02  0.10214427007E+01  0.10211951392E+01 0.  0.
     999903    2    3    3    0    0 -0.12357995078E+00  0.24346910331E-01  0.30404356237E-01  0.13105719706E+00  0.19666920097E-01 0.  0.
         14    1    1    2    0    0 -0.93427445395E-02 -0.20068741042E-01 -0.39544134967E-02  0.22487299274E-01  0.00000000000E+00 0.  1.
     999901    1    3    3    0    0  0.13292269532E+00 -0.42781692888E-02 -0.26449942740E-01  0.89038550366E+00  0.88000000000E+00 0. -1.
        -11    1    4    4    0    0 -0.71646850150E-01  0.45068096639E-02  0.14621135670E-01  0.73264051206E-01  0.51100000000E-03 0. -1.
         11    1    4    4    0    0 -0.51933100630E-01  0.19840100667E-01  0.15783220567E-01  0.57793145856E-01  0.51100000000E-03 0.  1.
</event>
<event>
 8    1  0.1109294E+005  0.1043930E+01  0.7957747E-01            NaN
         13   -1    0    0    0    0  0.00000000000E+00  0.00000000000E+00  0.74505805969E-08  0.10566000000E+00  0.10566000000E+00 0. -1.
     999900   -1    0    0    0    0 -0.00000000000E+00 -0.00000000000E+00 -0.74505805969E-08  0.93827000000E+00  0.93827000000E+00 0.  1.
     999902    2    1    2    0    0  0.17056104007E-01 -0.16349787390E-01 -0.28458951536E-02  0.10201324087E+01  0.10198547965E+01 0.  0.
     999903    2    3    3    0    0  0.18432092106E-01  0.11159385706E+00  0.57865531909E-01  0.12880904042E+00  0.21223057241E-01 0.  0.
         14    1    1    2    0    0 -0.17056104007E-01  0.16349787390E-01  0.28458951536E-02  0.23797591282E-01  0.00000000000E+00 0. -1.
     999901    1    3    3    0    0 -0.13759880992E-02 -0.12794364445E+00 -0.60711427063E-01  0.89132336830E+00  0.88000000000E+00 0. -1.
        -11    1    4    4    0    0 -0.55021948534E-03  0.54121044056E-01  0.21808398569E-01  0.58354584399E-01  0.51100000000E-03 0.  1.
         11    1    4    4    0    0  0.18982311592E-01  0.57472813000E-01  0.36057133341E-01  0.70454456022E-01  0.51100000000E-03 0. -1.
</event>
<event>
 8    1  0.1109294E+005  0.1043930E+01  0.7957747E-01            NaN
         13   -1    0    0    0    0  0.00000000000E+00  0.00000000000E+00  0.74505805969E-08  0.10566000000E+00  0.10566000000E+00 0. -1.
     999900   -1    0    0    0    0 -0.00000000000E+00 -0.00000000000E+00 -0.74505805969E-08  0.93827000000E+00  0.93827000000E+00 0.  1.
     999902    2    1    2    0    0  0.21393366901E-02 -0.22812392718E-01 -0.41113614166E-02  0.10206515697E+01  0.10203860747E+01 0.  0.
     999903    2    3    3    0    0  0.57522726535E-01  0.11183530129E+00 -0.18002350452E-01  0.12858078726E+00  0.19822601938E-01 0.  0.
         14    1    1    2    0    0 -0.21393366901E-02  0.22812392718E-01  0.41113614166E-02  0.23278430266E-01  0.00000000000E+00 0.  1.
     999901    1    3    3    0    0 -0.55383389845E-01 -0.13464769401E+00  0.13890989035E-01  0.89207078248E+00  0.88000000000E+00 0. -1.
        -11    1    4    4    0    0  0.40320253470E-01  0.85875099694E-01 -0.21383533632E-01  0.97251078241E-01  0.51100000000E-03 0.  1.
         11    1    4    4    0    0  0.17202473065E-01  0.25960201594E-01  0.33811831797E-02  0.31329709016E-01  0.51100000000E-03 0. -1.
</event>
<event>
 8    1  0.1109294E+005  0.1043930E+01  0.7957747E-01            NaN
         13   -1    0    0    0    0  0.00000000000E+00  0.00000000000E+00  0.74505805969E-08  0.10566000000E+00  0.10566000000E+00 0.  1.
     999900   -1    0    0    0    0 -0.00000000000E+00 -0.00000000000E+00 -0.74505805969E-08  0.93827000000E+00  0.93827000000E+00 0. -1.
     999902    2    1    2    0    0  0.14463561785E-01 -0.65724652432E-02  0.13735974800E-01  0.10229283591E+01  0.10227127450E+01 0.  0.
     999903    2    3    3    0    0  0.39473649976E-01 -0.11830920951E+00  0.47322972783E-01  0.13487504367E+00  0.19914204834E-01 0.  0.
         14    1    1    2    0    0 -0.14463561785E-01  0.65724652432E-02 -0.13735974800E-01  0.21001640950E-01  0.00000000000E+00 0. -1.
     999901    1    3    3    0    0 -0.25010088192E-01  0.11173674426E+00 -0.33586997983E-01  0.88805331538E+00  0.88000000000E+00 0. -1.
        -11    1    4    4    0    0  0.15265828699E-01 -0.25274822329E-01  0.16985884340E-01  0.34068219171E-01  0.51100000000E-03 0.  1.
         11    1    4    4    0    0  0.24207821277E-01 -0.93034387179E-01  0.30337088443E-01  0.10080682450E+00  0.51100000000E-03 0. -1.
</event>
<event>
 8    1  0.1109294E+005  0.1043930E+01  0.7957747E-01            NaN
         13   -1    0    0    0    0  0.00000000000E+00  0.00000000000E+00  0.74505805969E-08  0.10566000000E+00  0.10566000000E+00 0.  1.
     999900   -1    0    0    0    0 -0.00000000000E+00 -0.00000000000E+00 -0.74505805969E-08  0.93827000000E+00  0.93827000000E+00 0.  1.
     999902    2    1    2    0    0 -0.12599467169E-02 -0.23562524405E-01  0.72958008508E-03  0.10203225370E+01  0.10200493945E+01 0.  0.
     999903    2    3    3    0    0  0.11050665989E+00  0.51775086128E-01 -0.37939639991E-01  0.12922050104E+00  0.19134789871E-01 0.  0.
         14    1    1    2    0    0  0.12599467169E-02  0.23562524405E-01 -0.72958008508E-03  0.23607462998E-01  0.00000000000E+00 0.  1.
     999901    1    3    3    0    0 -0.11176660661E+00 -0.75337610534E-01  0.38669220076E-01  0.89110203596E+00  0.88000000000E+00 0.  1.
        -11    1    4    4    0    0  0.89385822149E-01  0.40695615123E-01 -0.38148139957E-01  0.10536365595E+00  0.51100000000E-03 0. -1.
         11    1    4    4    0    0  0.21120837740E-01  0.11079471005E-01  0.20849996612E-03  0.23856845093E-01  0.51100000000E-03 0.  1.
</event>
<event>
 8    1  0.1109294E+005  0.1043930E+01  0.7957747E-01            NaN
         13   -1    0    0    0    0  0.00000000000E+00  0.00000000000E+00  0.74505805969E-08  0.10566000000E+00  0.10566000000E+00 0.  1.
     999900   -1    0    0    0    0 -0.00000000000E+00 -0.00000000000E+00 -0.74505805969E-08  0.93827000000E+00  0.93827000000E+00 0. -1.
     999902    2    1    2    0    0 -0.19467018921E-01  0.13346452386E-01 -0.59818545654E-02  0.10195809713E+01  0.10192901852E+01 0.  0.
     999903    2    3    3    0    0 -0.10434746812E+00 -0.62820685677E-01  0.43315714808E-01  0.13085358115E+00  0.20287333438E-01 0.  0.
         14    1    1    2    0    0  0.19467018921E-01 -0.13346452386E-01  0.59818545654E-02  0.24349028749E-01  0.00000000000E+00 0. -1.
     999901    1    3    3    0    0  0.84880449196E-01  0.76167138063E-01 -0.49297569374E-01  0.88872739010E+00  0.88000000000E+00 0. -1.
        -11    1    4    4    0    0 -0.67687436868E-01 -0.30049253855E-01  0.30022700568E-01  0.79913518489E-01  0.51100000000E-03 0. -1.
         11    1    4    4    0    0 -0.36660031250E-01 -0.32771431822E-01  0.13293014241E-01  0.50940062657E-01  0.51100000000E-03 0.  1.
</event>
<event>
 8    1  0.1109294E+005  0.1043930E+01  0.7957747E-01            NaN
         13   -1    0    0    0    0  0.00000000000E+00  0.00000000000E+00  0.74505805969E-08  0.10566000000E+00  0.10566000000E+00 0.  1.
     999900   -1    0    0    0    0 -0.00000000000E+00 -0.00000000000E+00 -0.74505805969E-08  0.93827000000E+00  0.93827000000E+00 0.  1.
     999902    2    1    2    0    0  0.79872627825E-02  0.45905793164E-02 -0.21423231454E-01  0.10206099522E+01  0.10203434960E+01 0.  0.
     999903    2    3    3    0    0  0.57590841795E-02 -0.14544407173E-01 -0.13141138429E+00  0.13355386247E+00  0.17971517185E-01 0.  0.
         14    1    1    2    0    0 -0.79872627825E-02 -0.45905793164E-02  0.21423231454E-01  0.23320047838E-01  0.00000000000E+00 0.  1.
     999901    1    3    3    0    0  0.22281786030E-02  0.19134986490E-01  0.10998815284E+00  0.88705608969E+00  0.88000000000E+00 0. -1.
        -11    1    4    4    0    0  0.83966546204E-02 -0.95398159261E-02 -0.12122843634E+00  0.12189383411E+00  0.51100000000E-03 0.  1.
         11    1    4    4    0    0 -0.26375704409E-02 -0.50045912472E-02 -0.10182947952E-01  0.11660028361E-01  0.51100000000E-03 0. -1.
</event>
<event>
 8    1  0.1109294E+005  0.1043930E+01  0.7957747E-01            NaN
         13   -1    0    0    0    0  0.00000000000E+00  0.00000000000E+00  0.74505805969E-08  0.10566000000E+00  0.10566000000E+00 0. -1.
     999900   -1    0    0    0    0 -0.00000000000E+00 -0.00000000000E+00 -0.74505805969E-08  0.93827000000E+00  0.93827000000E+00 0.  1.
     999902    2    1    2    0    0 -0.93540574183E-02  0.10610081403E-01  0.18556307566E-01  0.10205974312E+01  0.10203306855E+01 0.  0.
     999903    2    3    3    0    0 -0.19369252800E-01 -0.99900413064E-01 -0.76072736084E-01  0.12859545280E+00  0.19861239143E-01 0.  0.
         14    1    1    2    0    0  0.93540574183E-02 -0.10610081403E-01 -0.18556307566E-01  0.23332568826E-01  0.00000000000E+00 0.  1.
     999901    1    3    3    0    0  0.10015195381E-01  0.11051049447E+00  0.94629043650E-01  0.89200197838E+00  0.88000000000E+00 0. -1.
        -11    1    4    4    0    0 -0.94189947308E-02 -0.41076079670E-01 -0.43719280224E-01  0.60725598944E-01  0.51100000000E-03 0.  1.
         11    1    4    4    0    0 -0.99502580689E-02 -0.58824333395E-01 -0.32353455860E-01  0.67869853853E-01  0.51100000000E-03 0. -1.
</event>
<event>
 8    1  0.1109294E+005  0.1043930E+01  0.7957747E-01            NaN
         13   -1    0    0    0    0  0.00000000000E+00  0.00000000000E+00  0.74505805969E-08  0.10566000000E+00  0.10566000000E+00 0.  1.
     999900   -1    0    0    0    0 -0.00000000000E+00 -0.00000000000E+00 -0.74505805969E-08  0.93827000000E+00  0.93827000000E+00 0. -1.
     999902    2    1    2    0    0 -0.72103560415E-02 -0.20084509922E-01  0.11204710646E-01  0.10198276700E+01  0.10195428162E+01 0.  0.
     999903    2    3    3    0    0  0.43016328809E-01 -0.12289772358E+00  0.13458048342E-01  0.13241662973E+00  0.19969721085E-01 0.  0.
         14    1    1    2    0    0  0.72103560415E-02  0.20084509922E-01 -0.11204710646E-01  0.24102330047E-01  0.00000000000E+00 0. -1.
     999901    1    3    3    0    0 -0.50226684850E-01  0.10281321365E+00 -0.22533376959E-02  0.88741104022E+00  0.88000000000E+00 0.  1.
        -11    1    4    4    0    0  0.24991618122E-01 -0.71049938221E-01 -0.21411049453E-02  0.75349320826E-01  0.51100000000E-03 0.  1.
         11    1    4    4    0    0  0.18024710687E-01 -0.51847785356E-01  0.15599153287E-01  0.57067308907E-01  0.51100000000E-03 0. -1.
</event>
<event>
 8    1  0.1109294E+005  0.1043930E+01  0.7957747E-01            NaN
         13   -1    0    0    0    0  0.00000000000E+00  0.00000000000E+00  0.74505805969E-08  0.10566000000E+00  0.10566000000E+00 0. -1.
     999900   -1    0    0    0    0 -0.00000000000E+00 -0.00000000000E+00 -0.74505805969E-08  0.93827000000E+00  0.93827000000E+00 0. -1.
     999902    2    1    2    0    0  0.19996619948E-01 -0.10750198516E-01 -0.74287099046E-02  0.10200424026E+01  0.10197626615E+01 0.  0.
     999903    2    3    3    0    0 -0.11426300016E+00 -0.41103044300E-01 -0.38284903309E-01  0.12880784006E+00  0.19499548314E-01 0.  0.
         14    1    1    2    0    0 -0.19996619948E-01  0.10750198516E-01  0.74287099046E-02  0.23887597374E-01  0.00000000000E+00 0. -1.
     999901    1    3    3    0    0  0.13425962010E+00  0.30352845785E-01  0.30856193405E-01  0.89123456256E+00  0.88000000000E+00 0.  1.
        -11    1    4    4    0    0 -0.57672219840E-01 -0.10574257954E-01 -0.20068699995E-01  0.61975105592E-01  0.51100000000E-03 0. -1.
         11    1    4    4    0    0 -0.56590780316E-01 -0.30528786346E-01 -0.18216203315E-01  0.66832734470E-01  0.51100000000E-03 0.  1.
</event>
<event>
 8    1  0.1109294E+005  0.1043930E+01  0.7957747E-01            NaN
         13   -1    0    0    0    0  0.00000000000E+00  0.00000000000E+00  0.74505805969E-08  0.10566000000E+00  0.10566000000E+00 0.  1.
     999900   -1    0    0    0    0 -0.00000000000E+00 -0.00000000000E+00 -0.74505805969E-08  0.93827000000E+00  0.93827000000E+00 0.  1.
     999902    2    1    2    0    0  0.76103714769E-02 -0.19379785989E-01  0.99202327348E-02  0.10208669370E+01  0.10206063875E+01 0.  0.
     999903    2    3    3    0    0  0.71239794599E-01  0.82863704405E-01 -0.66341898501E-01  0.12939716884E+00  0.20021937118E-01 0.  0.
         14    1    1    2    0    0 -0.76103714769E-02  0.19379785989E-01 -0.99202327348E-02  0.23063063034E-01  0.00000000000E+00 0. -1.
     999901    1    3    3    0    0 -0.63629423122E-01 -0.10224349039E+00  0.76262131236E-01  0.89146976812E+00  0.88000000000E+00 0. -1.
        -11    1    4    4    0    0  0.37339515506E-01  0.58263872793E-01 -0.40799509726E-01  0.80335418129E-01  0.51100000000E-03 0. -1.
         11    1    4    4    0    0  0.33900279093E-01  0.24599831612E-01 -0.25542388776E-01  0.49061750715E-01  0.51100000000E-03 0.  1.
</event>
<event>
 8    1  0.1109294E+005  0.1043930E+01  0.7957747E-01            NaN
         13   -1    0    0    0    0  0.00000000000E+00  0.00000000000E+00  0.74505805969E-08  0.10566000000E+00  0.10566000000E+00 0. -1.
     999900   -1    0    0    0    0 -0.00000000000E+00 -0.00000000000E+00 -0.74505805969E-08  0.93827000000E+00  0.93827000000E+00 0. -1.
     999902    2    1    2    0    0 -0.98956234116E-02 -0.97376007367E-02  0.15595793745E-01  0.10230500332E+01  0.10228369359E+01 0.  0.
     999903    2    3    3    0    0 -0.94527089779E-01  0.61663025357E-01 -0.61776626534E-01  0.13274276831E+00  0.32658713297E-01 0.  0.
         14    1    1    2    0    0  0.98956234116E-02  0.97376007367E-02 -0.15595793745E-01  0.20879966795E-01  0.00000000000E+00 0.  1.
     999901    1    3    3    0    0  0.84631466367E-01 -0.71400626094E-01  0.77372420280E-01  0.89030726490E+00  0.88000000000E+00 0.  1.
        -11    1    4    4    0    0 -0.46759517907E-01  0.46285824077E-01 -0.24421664630E-01  0.70181969549E-01  0.51100000000E-03 0. -1.
         11    1    4    4    0    0 -0.47767571872E-01  0.15377201280E-01 -0.37354961904E-01  0.62560798761E-01  0.51100000000E-03 0.  1.
</event>
<event>
 8    1  0.1109294E+005  0.1043930E+01  0.7957747E-01            NaN
         13   -1    0    0    0    0  0.00000000000E+00  0.00000000000E+00  0.74505805969E-08  0.10566000000E+00  0.10566000000E+00 0.  1.
     999900   -1    0    0    0    0 -0.00000000000E+00 -0.00000000000E+00 -0.74505805969E-08  0.93827000000E+00  0.93827000000E+00 0.  1.
     999902    2    1    2    0    0 -0.11746924475E-01 -0.18489899018E-01 -0.86317315586E-02  0.10203848648E+01  0.10201131795E+01 0.  0.
     999903    2    3    3    0    0  0.28560523003E-01 -0.12714400837E+00  0.12644065480E-01  0.13253179966E+00  0.20579193161E-01 0.  0.
         14    1    1    2    0    0  0.11746924475E-01  0.18489899018E-01  0.86317315586E-02  0.23545135167E-01  0.00000000000E+00 0.  1.
     999901    1    3    3    0    0 -0.40307447478E-01  0.10865410935E+00 -0.21275797038E-01  0.88785306517E+00  0.88000000000E+00 0.  1.
        -11    1    4    4    0    0  0.80495676425E-02 -0.66055370068E-01  0.14314145958E-01  0.68068078786E-01  0.51100000000E-03 0.  1.
         11    1    4    4    0    0  0.20510955361E-01 -0.61088638298E-01 -0.16700804788E-02  0.64463720873E-01  0.51100000000E-03 0. -1.
</event>
<event>
 8    1  0.1109294E+005  0.1043930E+01  0.7957747E-01            NaN
         13   -1    0    0    0    0  0.00000000000E+00  0.00000000000E+00  0.74505805969E-08  0.10566000000E+00  0.10566000000E+00 0.  1.
     999900   -1    0    0    0    0 -0.00000000000E+00 -0.00000000000E+00 -0.74505805969E-08  0.93827000000E+00  0.93827000000E+00 0.  1.
     999902    2    1    2    0    0 -0.11511651685E-01 -0.18661484160E-01 -0.10113288319E-01  0.10197836190E+01  0.10194977106E+01 0.  0.
     999903    2    3    3    0    0 -0.95049889189E-01 -0.79083343755E-01 -0.44841175539E-01  0.13308442287E+00  0.20299652505E-01 0.  0.
         14    1    1    2    0    0  0.11511651685E-01  0.18661484160E-01  0.10113288319E-01  0.24146381017E-01  0.00000000000E+00 0. -1.
     999901    1    3    3    0    0  0.83538237504E-01  0.60421859595E-01  0.34727887221E-01  0.88669919612E+00  0.88000000000E+00 0. -1.
        -11    1    4    4    0    0 -0.43296601627E-01 -0.48600507602E-01 -0.26525606823E-01  0.70288505390E-01  0.51100000000E-03 0. -1.
         11    1    4    4    0    0 -0.51753287562E-01 -0.30482836153E-01 -0.18315568716E-01  0.62795917477E-01  0.51100000000E-03 0.  1.
</event>
<event>
 8    1  0.1109294E+005  0.1043930E+01  0.7957747E-01            NaN
         13   -1    0    0    0    0  0.00000000000E+00  0.00000000000E+00  0.74505805969E-08  0.10566000000E+00  0.10566000000E+00 0. -1.
     999900   -1    0    0    0    0 -0.00000000000E+00 -0.00000000000E+00 -0.74505805969E-08  0.93827000000E+00  0.93827000000E+00 0. -1.
     999902    2    1    2    0    0 -0.12911154218E-01 -0.19608652779E-01 -0.53371214775E-03  0.10204463458E+01  0.10201760939E+01 0.  0.
     999903    2    3    3    0    0 -0.25901848302E-01  0.80743933111E-01  0.95253108914E-01  0.12948365592E+00  0.22413699221E-01 0.  0.
         14    1    1    2    0    0  0.12911154218E-01  0.19608652779E-01  0.53371214775E-03  0.23483654224E-01  0.00000000000E+00 0. -1.
     999901    1    3    3    0    0  0.12990694084E-01 -0.10035258589E+00 -0.95786821061E-01  0.89096268986E+00  0.88000000000E+00 0. -1.
        -11    1    4    4    0    0 -0.11358452211E-01  0.46680382809E-01  0.37835151522E-01  0.61154169012E-01  0.51100000000E-03 0. -1.
         11    1    4    4    0    0 -0.14543396091E-01  0.34063550303E-01  0.57417957391E-01  0.68329486908E-01  0.51100000000E-03 0.  1.
</event>
<event>
 8    1  0.1109294E+005  0.1043930E+01  0.7957747E-01            NaN
         13   -1    0    0    0    0  0.00000000000E+00  0.00000000000E+00  0.74505805969E-08  0.10566000000E+00  0.10566000000E+00 0. -1.
     999900   -1    0    0    0    0 -0.00000000000E+00 -0.00000000000E+00 -0.74505805969E-08  0.93827000000E+00  0.93827000000E+00 0. -1.
     999902    2    1    2    0    0 -0.18731726285E-01  0.63605132023E-03 -0.14365073609E-01  0.10203156512E+01  0.10200423474E+01 0.  0.
     999903    2    3    3    0    0 -0.81374787091E-01  0.10080040738E+00 -0.18268089347E-01  0.13241234291E+00  0.20413901213E-01 0.  0.
         14    1    1    2    0    0  0.18731726285E-01 -0.63605132023E-03  0.14365073609E-01  0.23614348830E-01  0.00000000000E+00 0. -1.
     999901    1    3    3    0    0  0.62643060807E-01 -0.10016435606E+00  0.39030157378E-02  0.88790330826E+00  0.88000000000E+00 0.  1.
        -11    1    4    4    0    0 -0.62021824777E-01  0.88891990705E-01 -0.14111983368E-01  0.10930645889E+00  0.51100000000E-03 0.  1.
         11    1    4    4    0    0 -0.19352962315E-01  0.11908416679E-01 -0.41561059786E-02  0.23105884014E-01  0.51100000000E-03 0. -1.
</event>
<event>
 8    1  0.1109294E+005  0.1043930E+01  0.7957747E-01            NaN
         13   -1    0    0    0    0  0.00000000000E+00  0.00000000000E+00  0.74505805969E-08  0.10566000000E+00  0.10566000000E+00 0.  1.
     999900   -1    0    0    0    0 -0.00000000000E+00 -0.00000000000E+00 -0.74505805969E-08  0.93827000000E+00  0.93827000000E+00 0.  1.
     999902    2    1    2    0    0 -0.54423420398E-02 -0.17128523675E-01  0.15980375208E-01  0.10198805135E+01  0.10195969223E+01 0.  0.
     999903    2    3    3    0    0  0.51671682529E-01 -0.41586988220E-01  0.11302595647E+00  0.13236821884E+00  0.18628960180E-01 0.  0.
         14    1    1    2    0    0  0.54423420398E-02  0.17128523675E-01 -0.15980375208E-01  0.24049486522E-01  0.00000000000E+00 0. -1.
     999901    1    3    3    0    0 -0.57114024569E-01  0.24458464545E-01 -0.97045581266E-01  0.88751229464E+00  0.88000000000E+00 0.  1.
        -11    1    4    4    0    0  0.24293647252E-01 -0.80952039113E-02  0.43644020360E-01  0.50604103167E-01  0.51100000000E-03 0.  1.
         11    1    4    4    0    0  0.27378035277E-01 -0.33491784309E-01  0.69381936115E-01  0.81764115673E-01  0.51100000000E-03 0. -1.
</event>
<event>
 8    1  0.1109294E+005  0.1043930E+01  0.7957747E-01            NaN
         13   -1    0    0    0    0  0.00000000000E+00  0.00000000000E+00  0.74505805969E-08  0.10566000000E+00  0.10566000000E+00 0. -1.
     999900   -1    0    0    0    0 -0.00000000000E+00 -0.00000000000E+00 -0.74505805969E-08  0.93827000000E+00  0.93827000000E+00 0.  1.
     999902    2    1    2    0    0  0.67266146002E-02 -0.23020746083E-01  0.24291032476E-02  0.10198239295E+01  0.10195389862E+01 0.  0.
     999903    2    3    3    0    0 -0.41540318683E-01  0.43636808398E-01  0.11247976940E+00  0.12915896690E+00  0.20014271999E-01 0.  0.
         14    1    1    2    0    0 -0.67266146002E-02  0.23020746083E-01 -0.24291032476E-02  0.24106070538E-01  0.00000000000E+00 0.  1.
     999901    1    3    3    0    0  0.48266933284E-01 -0.66657554481E-01 -0.11005066615E+00  0.89066496256E+00  0.88000000000E+00 0. -1.
        -11    1    4    4    0    0 -0.41399976859E-02  0.17064914616E-01  0.29221827628E-01  0.34095853452E-01  0.51100000000E-03 0.  1.
         11    1    4    4    0    0 -0.37400320998E-01  0.26571893782E-01  0.83257941768E-01  0.95063113448E-01  0.51100000000E-03 0. -1.
</event>
<event>
 8    1  0.1109294E+005  0.1043930E+01  0.7957747E-01            NaN
         13   -1    0    0    0    0  0.00000000000E+00  0.00000000000E+00  0.74505805969E-08  0.10566000000E+00  0.10566000000E+00 0. -1.
     999900   -1    0    0    0    0 -0.00000000000E+00 -0.00000000000E+00 -0.74505805969E-08  0.93827000000E+00  0.93827000000E+00 0.  1.
     999902    2    1    2    0    0 -0.15435495313E-01 -0.15150014881E-01  0.10223647065E-01  0.10200071986E+01  0.10197266226E+01 0.  0.
     999903    2    3    3    0    0  0.10015767974E+00  0.75196958702E-01  0.57059509444E-02  0.12784983171E+00  0.25037535481E-01 0.  0.
         14    1    1    2    0    0  0.15435495313E-01  0.15150014881E-01 -0.10223647065E-01  0.23922801378E-01  0.00000000000E+00 0. -1.
     999901    1    3    3    0    0 -0.11559317505E+00 -0.90346973584E-01  0.45176961206E-02  0.89215736691E+00  0.88000000000E+00 0.  1.
        -11    1    4    4    0    0  0.39544087655E-01  0.43699308079E-01  0.81325034319E-02  0.59495908499E-01  0.51100000000E-03 0. -1.
         11    1    4    4    0    0  0.60613592088E-01  0.31497650623E-01 -0.24265524875E-02  0.68353923213E-01  0.51100000000E-03 0.  1.
</event>
<event>
 8    1  0.1109294E+005  0.1043930E+01  0.7957747E-01            NaN
         13   -1    0    0    0    0  0.00000000000E+00  0.00000000000E+00  0.74505805969E-08  0.10566000000E+00  0.10566000000E+00 0. -1.
     999900   -1    0    0    0    0 -0.00000000000E+00 -0.00000000000E+00 -0.74505805969E-08  0.93827000000E+00  0.93827000000E+00 0.  1.
     999902    2    1    2    0    0 -0.15806663890E-01  0.64003164590E-02  0.27973086221E-01  0.10111686168E+01  0.10106377509E+01 0.  0.
     999903    2    3    3    0    0  0.71626275912E-01 -0.95024858380E-01  0.10443686307E-01  0.12086593521E+00  0.18424347986E-01 0.  0.
         14    1    1    2    0    0  0.15806663890E-01 -0.64003164590E-02 -0.27973086221E-01  0.32761383164E-01  0.00000000000E+00 0.  1.
     999901    1    3    3    0    0 -0.87432939802E-01  0.10142517484E+00  0.17529399914E-01  0.89030268163E+00  0.88000000000E+00 0.  1.
        -11    1    4    4    0    0  0.20419229388E-01 -0.34773461279E-01  0.10956745269E-01  0.41790548285E-01  0.51100000000E-03 0. -1.
         11    1    4    4    0    0  0.51207046524E-01 -0.60251397101E-01 -0.51305896193E-03  0.79075386922E-01  0.51100000000E-03 0.  1.
</event>
<event>
 8    1  0.1109294E+005  0.1043930E+01  0.7957747E-01            NaN
         13   -1    0    0    0    0  0.00000000000E+00  0.00000000000E+00  0.74505805969E-08  0.10566000000E+00  0.10566000000E+00 0. -1.
     999900   -1    0    0    0    0 -0.00000000000E+00 -0.00000000000E+00 -0.74505805969E-08  0.93827000000E+00  0.93827000000E+00 0. -1.
     999902    2    1    2    0    0  0.14571213857E-01 -0.70077059549E-02  0.18687659166E-01  0.10192185286E+01  0.10189189134E+01 0.  0.
     999903    2    3    3    0    0  0.41289195341E-01 -0.17112212566E-01  0.12310684406E+00  0.13258482867E+00  0.20635316039E-01 0.  0.
         14    1    1    2    0    0 -0.14571213857E-01  0.70077059549E-02 -0.18687659166E-01  0.24711471448E-01  0.00000000000E+00 0.  1.
     999901    1    3    3    0    0 -0.26717981484E-01  0.10104506611E-01 -0.10441918490E+00  0.88663369988E+00  0.88000000000E+00 0. -1.
        -11    1    4    4    0    0  0.19823856320E-01 -0.17932384775E-01  0.81235475780E-01  0.85522040138E-01  0.51100000000E-03 0. -1.
         11    1    4    4    0    0  0.21465339021E-01  0.82017220886E-03  0.41871368283E-01  0.47062788534E-01  0.51100000000E-03 0.  1.
</event>
<event>
 8    1  0.1109294E+005  0.1043930E+01  0.7957747E-01            NaN
         13   -1    0    0    0    0  0.00000000000E+00  0.00000000000E+00  0.74505805969E-08  0.10566000000E+00  0.10566000000E+00 0.  1.
     999900   -1    0    0    0    0 -0.00000000000E+00 -0.00000000000E+00 -0.74505805969E-08  0.93827000000E+00  0.93827000000E+00 0. -1.
     999902    2    1    2    0    0 -0.12154869597E-02 -0.11847462354E-01  0.20848964234E-01  0.10199191882E+01  0.10196365193E+01 0.  0.
     999903    2    3    3    0    0 -0.23816968915E-01  0.14291140079E-01 -0.12279656237E+00  0.12760304983E+00  0.20786002543E-01 0.  0.
         14    1    1    2    0    0  0.12154869597E-02  0.11847462354E-01 -0.20848964234E-01  0.24010811781E-01  0.00000000000E+00 0. -1.
     999901    1    3    3    0    0  0.22601481955E-01 -0.26138602433E-01  0.14364552660E+00  0.89231613839E+00  0.88000000000E+00 0.  1.
        -11    1    4    4    0    0 -0.25098253354E-01  0.10060435192E-01 -0.77396911775E-01  0.81985838722E-01  0.51100000000E-03 0. -1.
         11    1    4    4    0    0  0.12812844390E-02  0.42307048863E-02 -0.45399650596E-01  0.45617211103E-01  0.51100000000E-03 0.  1.
</event>
<event>
 8    1  0.1109294E+005  0.1043930E+01  0.7957747E-01            NaN
         13   -1    0    0    0    0  0.00000000000E+00  0.00000000000E+00  0.74505805969E-08  0.10566000000E+00  0.10566000000E+00 0. -1.
     999900   -1    0    0    0    0 -0.00000000000E+00 -0.00000000000E+00 -0.74505805969E-08  0.93827000000E+00  0.93827000000E+00 0.  1.
     999902    2    1    2    0    0 -0.17948486265E-01 -0.10021755234E-01 -0.10569399231E-01  0.10208151576E+01  0.10205534235E+01 0.  0.
     999903    2    3    3    0    0  0.72186518611E-01  0.25148945738E-01  0.10120642457E+00  0.12848386709E+00  0.20542657753E-01 0.  0.
         14    1    1    2    0    0  0.17948486265E-01  0.10021755234E-01  0.10569399231E-01  0.23114842359E-01  0.00000000000E+00 0. -1.
     999901    1    3    3    0    0 -0.90135004877E-01 -0.35170700972E-01 -0.11177582380E+00  0.89233129055E+00  0.88000000000E+00 0.  1.
        -11    1    4    4    0    0  0.15802024419E-01  0.15127611991E-01  0.27579241574E-01  0.35205458484E-01  0.51100000000E-03 0.  1.
         11    1    4    4    0    0  0.56384494192E-01  0.10021333748E-01  0.73627182994E-01  0.93278408606E-01  0.51100000000E-03 0. -1.
</event>
<event>
 8    1  0.1109294E+005  0.1043930E+01  0.7957747E-01            NaN
         13   -1    0    0    0    0  0.00000000000E+00  0.00000000000E+00  0.74505805969E-08  0.10566000000E+00  0.10566000000E+00 0. -1.
     999900   -1    0    0    0    0 -0.00000000000E+00 -0.00000000000E+00 -0.74505805969E-08  0.93827000000E+00  0.93827000000E+00 0.  1.
     999902    2    1    2    0    0 -0.19709672559E-01  0.11661878309E-01  0.26051874035E-02  0.10208809740E+01  0.10206207452E+01 0.  0.
     999903    2    3    3    0    0 -0.12088163399E+00  0.20029106215E-01 -0.46089703129E-01  0.13370738972E+00  0.27200566147E-01 0.  0.
         14    1    1    2    0    0  0.19709672559E-01 -0.11661878309E-01 -0.26051874035E-02  0.23049025999E-01  0.00000000000E+00 0.  1.
     999901    1    3    3    0    0  0.10117196143E+00 -0.83672279063E-02  0.48694890533E-01  0.88717358428E+00  0.88000000000E+00 0. -1.
        -11    1    4    4    0    0 -0.32176310650E-01 -0.58734535661E-02 -0.16746129840E-01  0.36749236856E-01  0.51100000000E-03 0. -1.
         11    1    4    4    0    0 -0.88705323342E-01  0.25902559781E-01 -0.29343573289E-01  0.96958152864E-01  0.51100000000E-03 0.  1.
</event>
<event>
 8    1  0.1109294E+005  0.1043930E+01  0.7957747E-01            NaN
         13   -1    0    0    0    0  0.00000000000E+00  0.00000000000E+00  0.74505805969E-08  0.10566000000E+00  0.10566000000E+00 0. -1.
     999900   -1    0    0    0    0 -0.00000000000E+00 -0.00000000000E+00 -0.74505805969E-08  0.93827000000E+00  0.93827000000E+00 0.  1.
     999902    2    1    2    0    0  0.97479316636E-02 -0.48244042644E-02  0.20496520943E-01  0.10207264568E+01  0.10204626868E+01 0.  0.
     999903    2    3    3    0    0 -0.99778835740E-01 -0.77646302959E-01  0.27245329233E-01  0.13092609256E+00  0.20360975514E-01 0.  0.
         14    1    1    2    0    0 -0.97479316636E-02  0.48244042644E-02 -0.20496520943E-01  0.23203543243E-01  0.00000000000E+00 0.  1.
     999901    1    3    3    0    0  0.10952676740E+00  0.72821898695E-01 -0.67488082898E-02  0.88980036419E+00  0.88000000000E+00 0.  1.
        -11    1    4    4    0    0 -0.55062261263E-01 -0.55279779017E-01  0.18064203464E-01  0.80089219945E-01  0.51100000000E-03 0.  1.
         11    1    4    4    0    0 -0.44716574477E-01 -0.22366523942E-01  0.91811257696E-02  0.50836872618E-01  0.51100000000E-03 0. -1.
</event>
<event>
 8    1  0.1109294E+005  0.1043930E+01  0.7957747E-01            NaN
         13   -1    0    0    0    0  0.00000000000E+00  0.00000000000E+00  0.74505805969E-08  0.10566000000E+00  0.10566000000E+00 0.  1.
     999900   -1    0    0    0    0 -0.00000000000E+00 -0.00000000000E+00 -0.74505805969E-08  0.93827000000E+00  0.93827000000E+00 0. -1.
     999902    2    1    2    0    0 -0.15211969449E-01  0.18059644499E-01  0.26487607097E-03  0.10203159166E+01  0.10200426191E+01 0.  0.
     999903    2    3    3    0    0  0.87540627990E-02  0.12880890668E+00  0.22296930485E-01  0.13277708300E+00  0.21546057788E-01 0.  0.
         14    1    1    2    0    0  0.15211969449E-01 -0.18059644499E-01 -0.26487607097E-03  0.23614083368E-01  0.00000000000E+00 0.  1.
     999901    1    3    3    0    0 -0.23966032249E-01 -0.11074926218E+00 -0.22032054415E-01  0.88753883363E+00  0.88000000000E+00 0.  1.
        -11    1    4    4    0    0  0.58269997502E-02  0.70049664879E-01  0.12911157965E-02  0.70305316846E-01  0.51100000000E-03 0.  1.
         11    1    4    4    0    0  0.29270630488E-02  0.58759241802E-01  0.21005814689E-01  0.62471766158E-01  0.51100000000E-03 0. -1.
</event>
<event>
 8    1  0.1109294E+005  0.1043930E+01  0.7957747E-01            NaN
         13   -1    0    0    0    0  0.00000000000E+00  0.00000000000E+00  0.74505805969E-08  0.10566000000E+00  0.10566000000E+00 0. -1.
     999900   -1    0    0    0    0 -0.00000000000E+00 -0.00000000000E+00 -0.74505805969E-08  0.93827000000E+00  0.93827000000E+00 0. -1.
     999902    2    1    2    0    0 -0.20100510873E-01  0.75674128262E-02  0.19187145239E-01  0.10151299511E+01  0.10147213286E+01 0.  0.
     999903    2    3    3    0    0  0.10051725658E+00  0.37224747808E-01  0.61966327874E-01  0.12537815323E+00  0.19759929117E-01 0.  0.
         14    1    1    2    0    0  0.20100510873E-01 -0.75674128262E-02 -0.19187145239E-01  0.28800048900E-01  0.00000000000E+00 0.  1.
     999901    1    3    3    0    0 -0.12061776745E+00 -0.29657334981E-01 -0.42779182635E-01  0.88975179787E+00  0.88000000000E+00 0. -1.
        -11    1    4    4    0    0  0.53118436456E-01  0.20076127612E-01  0.21444873245E-01  0.60702247906E-01  0.51100000000E-03 0. -1.
         11    1    4    4    0    0  0.47398820120E-01  0.17148620196E-01  0.40521454629E-01  0.64675905325E-01  0.51100000000E-03 0.  1.
</event>
<event>
 8    1  0.1109294E+005  0.1043930E+01  0.7957747E-01            NaN
         13   -1    0    0    0    0  0.00000000000E+00  0.00000000000E+00  0.74505805969E-08  0.10566000000E+00  0.10566000000E+00 0. -1.
     999900   -1    0    0    0    0 -0.00000000000E+00 -0.00000000000E+00 -0.74505805969E-08  0.93827000000E+00  0.93827000000E+00 0. -1.
     999902    2    1    2    0    0 -0.25424504437E-01 -0.10545219092E-01 -0.58854851797E-02  0.10157831350E+01  0.10153930921E+01 0.  0.
     999903    2    3    3    0    0 -0.62941179481E-01  0.47395244339E-01 -0.99086770263E-01  0.12817337971E+00  0.20058064822E-01 0.  0.
         14    1    1    2    0    0  0.25424504437E-01  0.10545219092E-01  0.58854851797E-02  0.28146864965E-01  0.00000000000E+00 0. -1.
     999901    1    3    3    0    0  0.37516675045E-01 -0.57940463431E-01  0.93201285083E-01  0.88760975533E+00  0.88000000000E+00 0.  1.
        -11    1    4    4    0    0 -0.78476251504E-02  0.95100761107E-02 -0.27906946018E-01  0.30513694060E-01  0.51100000000E-03 0. -1.
         11    1    4    4    0    0 -0.55093554331E-01  0.37885168228E-01 -0.71179824245E-01  0.97659685649E-01  0.51100000000E-03 0.  1.
</event>
<event>
 8    1  0.1109294E+005  0.1043930E+01  0.7957747E-01            NaN
         13   -1    0    0    0    0  0.00000000000E+00  0.00000000000E+00  0.74505805969E-08  0.10566000000E+00  0.10566000000E+00 0. -1.
     999900   -1    0    0    0    0 -0.00000000000E+00 -0.00000000000E+00 -0.74505805969E-08  0.93827000000E+00  0.93827000000E+00 0.  1.
     999902    2    1    2    0    0  0.68458258782E-03 -0.12700493109E-01  0.21197944990E-01  0.10192090767E+01  0.10189092295E+01 0.  0.
     999903    2    3    3    0    0 -0.16877561471E-01 -0.12313449316E+00 -0.35121923804E-01  0.13034686862E+00  0.17601168709E-01 0.  0.
         14    1    1    2    0    0 -0.68458258782E-03  0.12700493109E-01 -0.21197944990E-01  0.24720923331E-01  0.00000000000E+00 0.  1.
     999901    1    3    3    0    0  0.17562144059E-01  0.11043400006E+00  0.56319868795E-01  0.88886220805E+00  0.88000000000E+00 0. -1.
        -11    1    4    4    0    0 -0.15198136547E-01 -0.50168003849E-01 -0.11920173082E-01  0.53760241927E-01  0.51100000000E-03 0.  1.
         11    1    4    4    0    0 -0.16794249235E-02 -0.72966489315E-01 -0.23201750722E-01  0.76586626696E-01  0.51100000000E-03 0. -1.
</event>
<event>
 8    1  0.1109294E+005  0.1043930E+01  0.7957747E-01            NaN
         13   -1    0    0    0    0  0.00000000000E+00  0.00000000000E+00  0.74505805969E-08  0.10566000000E+00  0.10566000000E+00 0.  1.
     999900   -1    0    0    0    0 -0.00000000000E+00 -0.00000000000E+00 -0.74505805969E-08  0.93827000000E+00  0.93827000000E+00 0.  1.
     999902    2    1    2    0    0  0.19041316946E-01  0.14104121716E-01 -0.14451388468E-02  0.10201900247E+01  0.10199137709E+01 0.  0.
     999903    2    3    3    0    0 -0.10313889799E+00 -0.43586731399E-01  0.57098487132E-01  0.12795485638E+00  0.23974415665E-01 0.  0.
         14    1    1    2    0    0 -0.19041316946E-01 -0.14104121716E-01  0.14451388468E-02  0.23739975289E-01  0.00000000000E+00 0. -1.
     999901    1    3    3    0    0  0.12218021494E+00  0.57690853114E-01 -0.58543625979E-01  0.89223516833E+00  0.88000000000E+00 0.  1.
        -11    1    4    4    0    0 -0.26488807765E-01 -0.13935506612E-01  0.42316270523E-02  0.30232814454E-01  0.51100000000E-03 0. -1.
         11    1    4    4    0    0 -0.76650090228E-01 -0.29651224787E-01  0.52866860080E-01  0.97722041930E-01  0.51100000000E-03 0.  1.
</event>
<event>
 8    1  0.1109294E+005  0.1043930E+01  0.7957747E-01            NaN
         13   -1    0    0    0    0  0.00000000000E+00  0.00000000000E+00  0.74505805969E-08  0.10566000000E+00  0.10566000000E+00 0. -1.
     999900   -1    0    0    0    0 -0.00000000000E+00 -0.00000000000E+00 -0.74505805969E-08  0.93827000000E+00  0.93827000000E+00 0.  1.
     999902    2    1    2    0    0  0.10837422192E-01  0.18491228358E-01 -0.79783926082E-02  0.10210601510E+01  0.10208039978E+01 0.  0.
     999903    2    3    3    0    0 -0.69275196560E-01  0.53820030908E-01  0.94986613747E-01  0.13074113595E+00  0.19368511905E-01 0.  0.
         14    1    1    2    0    0 -0.10837422192E-01 -0.18491228358E-01  0.79783926082E-02  0.22869849028E-01  0.00000000000E+00 0. -1.
     999901    1    3    3    0    0  0.80112618752E-01 -0.35328802550E-01 -0.10296500636E+00  0.89031901502E+00  0.88000000000E+00 0.  1.
        -11    1    4    4    0    0 -0.50033048229E-01  0.39403604446E-01  0.80569343276E-01  0.10270165605E+00  0.51100000000E-03 0. -1.
         11    1    4    4    0    0 -0.19242148331E-01  0.14416426462E-01  0.14417270471E-01  0.28039479902E-01  0.51100000000E-03 0.  1.
</event>
<event>
 8    1  0.1109294E+005  0.1043930E+01  0.7957747E-01            NaN
         13   -1    0    0    0    0  0.00000000000E+00  0.00000000000E+00  0.74505805969E-08  0.10566000000E+00  0.10566000000E+00 0. -1.
     999900   -1    0    0    0    0 -0.00000000000E+00 -0.00000000000E+00 -0.74505805969E-08  0.93827000000E+00  0.93827000000E+00 0. -1.
     999902    2    1    2    0    0  0.15339005902E-01 -0.15790216640E-02 -0.18064863049E-01  0.10201788382E+01  0.10199023209E+01 0.  0.
     999903    2    3    3    0    0  0.11323974384E+00 -0.50034875588E-01  0.39724929519E-01  0.13154382626E+00  0.19974479717E-01 0.  0.
         14    1    1    2    0    0 -0.15339005902E-01  0.15790216640E-02  0.18064863049E-01  0.23751161834E-01  0.00000000000E+00 0. -1.
     999901    1    3    3    0    0 -0.97900737940E-01  0.48455853924E-01 -0.57789792569E-01  0.88863501191E+00  0.88000000000E+00 0. -1.
        -11    1    4    4    0    0  0.94870399095E-01 -0.47567461724E-01  0.38733045665E-01  0.11297595314E+00  0.51100000000E-03 0. -1.
         11    1    4    4    0    0  0.18369344747E-01 -0.24674138634E-02  0.99188385467E-03  0.18567873120E-01  0.51100000000E-03 0.  1.
</event>
<event>
 8    1  0.1109294E+005  0.1043930E+01  0.7957747E-01            NaN
         13   -1    0    0    0    0  0.00000000000E+00  0.00000000000E+00  0.74505805969E-08  0.10566000000E+00  0.10566000000E+00 0. -1.
     999900   -1    0    0    0    0 -0.00000000000E+00 -0.00000000000E+00 -0.74505805969E-08  0.93827000000E+00  0.93827000000E+00 0. -1.
     999902    2    1    2    0    0  0.14842364420E-01  0.14714065198E-01  0.75256136597E-02  0.10217166176E+01  0.10214751159E+01 0.  0.
     999903    2    3    3    0    0  0.71017978130E-01  0.58822206423E-01 -0.93683532357E-01  0.13304090683E+00  0.20485933429E-01 0.  0.
         14    1    1    2    0    0 -0.14842364420E-01 -0.14714065198E-01 -0.75256136597E-02  0.22213382390E-01  0.00000000000E+00 0.  1.
     999901    1    3    3    0    0 -0.56175613710E-01 -0.44108141225E-01  0.10120914602E+00  0.88867571078E+00  0.88000000000E+00 0.  1.
        -11    1    4    4    0    0  0.13771782631E-01  0.19718764009E-01 -0.15857235909E-01  0.28813273027E-01  0.51100000000E-03 0.  1.
         11    1    4    4    0    0  0.57246195500E-01  0.39103442414E-01 -0.77826296448E-01  0.10422763380E+00  0.51100000000E-03 0. -1.
</event>
<event>
 8    1  0.1109294E+005  0.1043930E+01  0.7957747E-01            NaN
         13   -1    0    0    0    0  0.00000000000E+00  0.00000000000E+00  0.74505805969E-08  0.10566000000E+00  0.10566000000E+00 0. -1.
     999900   -1    0    0    0    0 -0.00000000000E+00 -0.00000000000E+00 -0.74505805969E-08  0.93827000000E+00  0.93827000000E+00 0. -1.
     999902    2    1    2    0    0  0.48749478327E-02 -0.24152446369E-01  0.16134344951E-02  0.10192377147E+01  0.10189385703E+01 0.  0.
     999903    2    3    3    0    0  0.10921303195E+00 -0.42345137213E-03 -0.67857116698E-01  0.13003826662E+00  0.19434424077E-01 0.  0.
         14    1    1    2    0    0 -0.48749478327E-02  0.24152446369E-01 -0.16134344951E-02  0.24692285290E-01  0.00000000000E+00 0.  1.
     999901    1    3    3    0    0 -0.10433808412E+00 -0.23728994997E-01  0.69470551193E-01  0.88919944809E+00  0.88000000000E+00 0.  1.
        -11    1    4    4    0    0  0.55575681927E-01 -0.83299618276E-02 -0.28296292198E-01  0.62920473289E-01  0.51100000000E-03 0. -1.
         11    1    4    4    0    0  0.53637350026E-01  0.79065104554E-02 -0.39560824500E-01  0.67117793331E-01  0.51100000000E-03 0.  1.
</event>
<event>
 8    1  0.1109294E+005  0.1043930E+01  0.7957747E-01            NaN
         13   -1    0    0    0    0  0.00000000000E+00  0.00000000000E+00  0.74505805969E-08  0.10566000000E+00  0.10566000000E+00 0. -1.
     999900   -1    0    0    0    0 -0.00000000000E+00 -0.00000000000E+00 -0.74505805969E-08  0.93827000000E+00  0.93827000000E+00 0.  1.
     999902    2    1    2    0    0  0.77016585079E-02  0.22474886960E-01 -0.44541974393E-02  0.10197581990E+01  0.10194716811E+01 0.  0.
     999903    2    3    3    0    0  0.61254300082E-01 -0.37992556785E-01 -0.10647775047E+00  0.13018920083E+00  0.20400809257E-01 0.  0.
         14    1    1    2    0    0 -0.77016585079E-02 -0.22474886960E-01  0.44541974393E-02  0.24171800977E-01  0.00000000000E+00 0. -1.
     999901    1    3    3    0    0 -0.53552641574E-01  0.60467443744E-01  0.10202355303E+00  0.88956899819E+00  0.88000000000E+00 0. -1.
        -11    1    4    4    0    0  0.41176561591E-01 -0.15721514567E-01 -0.72703786287E-01  0.85022214193E-01  0.51100000000E-03 0. -1.
         11    1    4    4    0    0  0.20077738491E-01 -0.22271042218E-01 -0.33773964183E-01  0.45166986638E-01  0.51100000000E-03 0.  1.
</event>
<event>
 8    1  0.1230840E+005  0.1043930E+01  0.7957747E-01            NaN
         13   -1    0    0    0    0  0.00000000000E+00  0.00000000000E+00  0.74505805969E-08  0.10566000000E+00  0.10566000000E+00 0.  1.
     999900   -1    0    0    0    0 -0.00000000000E+00 -0.00000000000E+00 -0.74505805969E-08  0.93827000000E+00  0.93827000000E+00 0.  1.
     999902    2    1    2    0    0  0.18218458538E-01 -0.11196001368E-01  0.12465869203E-01  0.10191780188E+01  0.10188774084E+01 0.  0.
     999903    2    3    3    0    0 -0.11640262622E-01  0.12249510335E+00 -0.27717421386E-01  0.12767392372E+00  0.19794678336E-01 0.  0.
         14    1    1    2    0    0 -0.18218458538E-01  0.11196001368E-01 -0.12465869203E-01  0.24751981196E-01  0.00000000000E+00 0. -1.
     999901    1    3    3    0    0  0.29858721160E-01 -0.13369110472E+00  0.40183290589E-01  0.89150409508E+00  0.88000000000E+00 0.  1.
        -11    1    4    4    0    0 -0.77737189968E-02  0.76745246286E-01 -0.74974569384E-02  0.77503138750E-01  0.51100000000E-03 0.  1.
         11    1    4    4    0    0 -0.38665436254E-02  0.45749857066E-01 -0.20219964448E-01  0.50170784969E-01  0.51100000000E-03 0. -1.
</event>
<event>
 8    1  0.1109294E+005  0.1043930E+01  0.7957747E-01            NaN
         13   -1    0    0    0    0  0.00000000000E+00  0.00000000000E+00  0.74505805969E-08  0.10566000000E+00  0.10566000000E+00 0. -1.
     999900   -1    0    0    0    0 -0.00000000000E+00 -0.00000000000E+00 -0.74505805969E-08  0.93827000000E+00  0.93827000000E+00 0.  1.
     999902    2    1    2    0    0 -0.19229305053E-01  0.32888488966E-02  0.16814610858E-01  0.10181751201E+01  0.10178493314E+01 0.  0.
     999903    2    3    3    0    0 -0.74838533192E-01  0.10340925077E+00  0.20883139378E-01  0.13074454026E+00  0.19072233836E-01 0.  0.
         14    1    1    2    0    0  0.19229305053E-01 -0.32888488966E-02 -0.16814610858E-01  0.25754879891E-01  0.00000000000E+00 0.  1.
     999901    1    3    3    0    0  0.55609228139E-01 -0.10012040187E+00 -0.40685285200E-02  0.88743057985E+00  0.88000000000E+00 0.  1.
        -11    1    4    4    0    0 -0.32878613345E-01  0.61605617051E-01  0.11647523586E-01  0.70796759774E-01  0.51100000000E-03 0.  1.
         11    1    4    4    0    0 -0.41959919847E-01  0.41803633715E-01  0.92356157925E-02  0.59947780487E-01  0.51100000000E-03 0. -1.
</event>
<event>
 8    1  0.1109294E+005  0.1043930E+01  0.7957747E-01            NaN
         13   -1    0    0    0    0  0.00000000000E+00  0.00000000000E+00  0.74505805969E-08  0.10566000000E+00  0.10566000000E+00 0. -1.
     999900   -1    0    0    0    0 -0.00000000000E+00 -0.00000000000E+00 -0.74505805969E-08  0.93827000000E+00  0.93827000000E+00 0. -1.
     999902    2    1    2    0    0 -0.67333215240E-02 -0.48395896275E-02 -0.22120909444E-01  0.10203059893E+01  0.10200324593E+01 0.  0.
     999903    2    3    3    0    0  0.30570919323E-01  0.65639452885E-01  0.10342567480E+00  0.12782582335E+00  0.19986295884E-01 0.  0.
         14    1    1    2    0    0  0.67333215240E-02  0.48395896275E-02  0.22120909444E-01  0.23624010691E-01  0.00000000000E+00 0. -1.
     999901    1    3    3    0    0 -0.37304240847E-01 -0.70479042513E-01 -0.12554658424E+00  0.89248016596E+00  0.88000000000E+00 0. -1.
        -11    1    4    4    0    0  0.19548846414E-01  0.35348575451E-01  0.40947706831E-01  0.57520909227E-01  0.51100000000E-03 0. -1.
         11    1    4    4    0    0  0.11022072909E-01  0.30290877435E-01  0.62477967969E-01  0.70304914121E-01  0.51100000000E-03 0.  1.
</event>
<event>
 8    1  0.1109294E+005  0.1043930E+01  0.7957747E-01            NaN
         13   -1    0    0    0    0  0.00000000000E+00  0.00000000000E+00  0.74505805969E-08  0.10566000000E+00  0.10566000000E+00 0.  1.
     999900   -1    0    0    0    0 -0.00000000000E+00 -0.00000000000E+00 -0.74505805969E-08  0.93827000000E+00  0.93827000000E+00 0.  1.
     999902    2    1    2    0    0 -0.28000246288E-02  0.22116804893E-01  0.13360093657E-03  0.10216362555E+01  0.10213929838E+01 0.  0.
     999903    2    3    3    0    0 -0.25162556273E-01 -0.83793266108E-01  0.94138988070E-01  0.13003430460E+00  0.19806706308E-01 0.  0.
         14    1    1    2    0    0  0.28000246288E-02 -0.22116804893E-01 -0.13360093657E-03  0.22293744544E-01  0.00000000000E+00 0. -1.
     999901    1    3    3    0    0  0.22362531644E-01  0.10591007100E+00 -0.94005387133E-01  0.89160195086E+00  0.88000000000E+00 0. -1.
        -11    1    4    4    0    0 -0.13160807325E-01 -0.68293713780E-01  0.79045074667E-01  0.10528828587E+00  0.51100000000E-03 0.  1.
         11    1    4    4    0    0 -0.12001748948E-01 -0.15499552328E-01  0.15093913403E-01  0.24746018730E-01  0.51100000000E-03 0. -1.
</event>
<event>
 8    1  0.1109294E+005  0.1043930E+01  0.7957747E-01            NaN
         13   -1    0    0    0    0  0.00000000000E+00  0.00000000000E+00  0.74505805969E-08  0.10566000000E+00  0.10566000000E+00 0.  1.
     999900   -1    0    0    0    0 -0.00000000000E+00 -0.00000000000E+00 -0.74505805969E-08  0.93827000000E+00  0.93827000000E+00 0. -1.
     999902    2    1    2    0    0  0.17591528446E-01  0.16638908914E-01 -0.78395690761E-02  0.10184785952E+01  0.10181605349E+01 0.  0.
     999903    2    3    3    0    0 -0.62019121712E-01 -0.10554360167E+00  0.21401937753E-01  0.12599807035E+00  0.20776127722E-01 0.  0.
         14    1    1    2    0    0 -0.17591528446E-01 -0.16638908914E-01  0.78395690761E-02  0.25451404798E-01  0.00000000000E+00 0.  1.
     999901    1    3    3    0    0  0.79610650158E-01  0.12218251058E+00 -0.29241506829E-01  0.89248052485E+00  0.88000000000E+00 0. -1.
        -11    1    4    4    0    0 -0.38823407522E-01 -0.58401443818E-01  0.25511767565E-02  0.70176600342E-01  0.51100000000E-03 0. -1.
         11    1    4    4    0    0 -0.23195714190E-01 -0.47142157847E-01  0.18850760997E-01  0.55821470013E-01  0.51100000000E-03 0.  1.
</event>
<event>
 8    1  0.1109294E+005  0.1043930E+01  0.7957747E-01            NaN
         13   -1    0    0    0    0  0.00000000000E+00  0.00000000000E+00  0.74505805969E-08  0.10566000000E+00  0.10566000000E+00 0. -1.
     999900   -1    0    0    0    0 -0.00000000000E+00 -0.00000000000E+00 -0.74505805969E-08  0.93827000000E+00  0.93827000000E+00 0.  1.
     999902    2    1    2    0    0 -0.21281048596E-01 -0.10310474706E-01  0.46272707989E-02  0.10198343458E+01  0.10195496517E+01 0.  0.
     999903    2    3    3    0    0  0.93009251747E-01 -0.85373969903E-01 -0.14792506922E-01  0.12906281005E+00  0.22337301331E-01 0.  0.
         14    1    1    2    0    0  0.21281048596E-01  0.10310474706E-01 -0.46272707989E-02  0.24095654236E-01  0.00000000000E+00 0.  1.
     999901    1    3    3    0    0 -0.11429030034E+00  0.75063495196E-01  0.19419777721E-01  0.89077153571E+00  0.88000000000E+00 0. -1.
        -11    1    4    4    0    0  0.61738271382E-01 -0.42505111527E-01 -0.12121410125E-01  0.75930813005E-01  0.51100000000E-03 0. -1.
         11    1    4    4    0    0  0.31270980364E-01 -0.42868858375E-01 -0.26710967974E-02  0.53131997050E-01  0.51100000000E-03 0.  1.
</event>
<event>
 8    1  0.1109294E+005  0.1043930E+01  0.7957747E-01            NaN
         13   -1    0    0    0    0  0.00000000000E+00  0.00000000000E+00  0.74505805969E-08  0.10566000000E+00  0.10566000000E+00 0.  1.
     999900   -1    0    0    0    0 -0.00000000000E+00 -0.00000000000E+00 -0.74505805969E-08  0.93827000000E+00  0.93827000000E+00 0. -1.
     999902    2    1    2    0    0  0.13918358127E-01 -0.12123123609E-01  0.14001305678E-01  0.10207626225E+01  0.10204996836E+01 0.  0.
     999903    2    3    3    0    0 -0.18705864329E-01  0.12586187202E+00 -0.72950984422E-02  0.12915859844E+00  0.20919008166E-01 0.  0.
         14    1    1    2    0    0 -0.13918358127E-01  0.12123123609E-01 -0.14001305678E-01  0.23167377488E-01  0.00000000000E+00 0. -1.
     999901    1    3    3    0    0  0.32624222456E-01 -0.13798499562E+00  0.21296404121E-01  0.89160402407E+00  0.88000000000E+00 0.  1.
        -11    1    4    4    0    0 -0.42359278295E-02  0.18593348927E-01  0.62471411571E-02  0.20073455172E-01  0.51100000000E-03 0.  1.
         11    1    4    4    0    0 -0.14469936499E-01  0.10726852309E+00 -0.13542239599E-01  0.10908514327E+00  0.51100000000E-03 0. -1.
</event>
<event>
 8    1  0.1109294E+005  0.1043930E+01  0.7957747E-01            NaN
         13   -1    0    0    0    0  0.00000000000E+00  0.00000000000E+00  0.74505805969E-08  0.10566000000E+00  0.10566000000E+00 0.  1.
     999900   -1    0    0    0    0 -0.00000000000E+00 -0.00000000000E+00 -0.74505805969E-08  0.93827000000E+00  0.93827000000E+00 0.  1.
     999902    2    1    2    0    0  0.20374064764E-01 -0.11332320493E-01  0.27027338737E-02  0.10204602583E+01  0.10201903303E+01 0.  0.
     999903    2    3    3    0    0  0.10113814978E+00  0.66790213940E-01 -0.45878288605E-01  0.13198623872E+00  0.25013832711E-01 0.  0.
         14    1    1    2    0    0 -0.20374064764E-01  0.11332320493E-01 -0.27027338737E-02  0.23469741651E-01  0.00000000000E+00 0. -1.
     999901    1    3    3    0    0 -0.80764085015E-01 -0.78122534433E-01  0.48581022478E-01  0.88847401963E+00  0.88000000000E+00 0.  1.
        -11    1    4    4    0    0  0.28559653125E-01  0.23653506491E-01 -0.25865526496E-01  0.45215359534E-01  0.51100000000E-03 0. -1.
         11    1    4    4    0    0  0.72578496654E-01  0.43136707450E-01 -0.20012762109E-01  0.86770879184E-01  0.51100000000E-03 0.  1.
</event>
<event>
 8    1  0.1109294E+005  0.1043930E+01  0.7957747E-01            NaN
         13   -1    0    0    0    0  0.00000000000E+00  0.00000000000E+00  0.74505805969E-08  0.10566000000E+00  0.10566000000E+00 0. -1.
     999900   -1    0    0    0    0 -0.00000000000E+00 -0.00000000000E+00 -0.74505805969E-08  0.93827000000E+00  0.93827000000E+00 0. -1.
     999902    2    1    2    0    0 -0.20323585359E-01 -0.11328927070E-01  0.13395397931E-02  0.10206236258E+01  0.10203574856E+01 0.  0.
     999903    2    3    3    0    0 -0.93791296731E-01  0.61266431735E-01 -0.66746999677E-01  0.13197106853E+00  0.20268644801E-01 0.  0.
         14    1    1    2    0    0  0.20323585359E-01  0.11328927070E-01 -0.13395397931E-02  0.23306374177E-01  0.00000000000E+00 0.  1.
     999901    1    3    3    0    0  0.73467711372E-01 -0.72595358805E-01  0.68086539470E-01  0.88865255730E+00  0.88000000000E+00 0.  1.
        -11    1    4    4    0    0 -0.46621600707E-01  0.27961558239E-01 -0.20922902428E-01  0.58253337747E-01  0.51100000000E-03 0.  1.
         11    1    4    4    0    0 -0.47169696024E-01  0.33304873496E-01 -0.45824097249E-01  0.73717730779E-01  0.51100000000E-03 0. -1.
</event>
<event>
 8    1  0.1109294E+005  0.1043930E+01  0.7957747E-01            NaN
         13   -1    0    0    0    0  0.00000000000E+00  0.00000000000E+00  0.74505805969E-08  0.10566000000E+00  0.10566000000E+00 0.  1.
     999900   -1    0    0    0    0 -0.00000000000E+00 -0.00000000000E+00 -0.74505805969E-08  0.93827000000E+00  0.93827000000E+00 0.  1.
     999902    2    1    2    0    0 -0.19551772974E-01 -0.12870038917E-01 -0.36973899782E-02  0.10202323119E+01  0.10199570529E+01 0.  0.
     999903    2    3    3    0    0  0.91625415158E-01 -0.12279321822E-01 -0.88079799362E-01  0.12923225180E+00  0.19922986765E-01 0.  0.
         14    1    1    2    0    0  0.19551772974E-01  0.12870038917E-01  0.36973899782E-02  0.23697688090E-01  0.00000000000E+00 0. -1.
     999901    1    3    3    0    0 -0.11117718813E+00 -0.59071709500E-03  0.84382409384E-01  0.89100006011E+00  0.88000000000E+00 0.  1.
        -11    1    4    4    0    0  0.35661608385E-01 -0.87062792601E-02 -0.22995229337E-01  0.43319641093E-01  0.51100000000E-03 0. -1.
         11    1    4    4    0    0  0.55963806773E-01 -0.35730425622E-02 -0.65084570026E-01  0.85912610705E-01  0.51100000000E-03 0.  1.
</event>
<event>
 8    1  0.1109294E+005  0.1043930E+01  0.7957747E-01            NaN
         13   -1    0    0    0    0  0.00000000000E+00  0.00000000000E+00  0.74505805969E-08  0.10566000000E+00  0.10566000000E+00 0.  1.
     999900   -1    0    0    0    0 -0.00000000000E+00 -0.00000000000E+00 -0.74505805969E-08  0.93827000000E+00  0.93827000000E+00 0. -1.
     999902    2    1    2    0    0 -0.30651219881E-02  0.23432907451E-01 -0.35059805284E-02  0.10200388296E+01  0.10197590038E+01 0.  0.
     999903    2    3    3    0    0 -0.32569600957E-01 -0.57028203434E-01 -0.10919474564E+00  0.12958129566E+00  0.23554719617E-01 0.  0.
         14    1    1    2    0    0  0.30651219881E-02 -0.23432907451E-01  0.35059805284E-02  0.23891170416E-01  0.00000000000E+00 0. -1.
     999901    1    3    3    0    0  0.29504478969E-01  0.80461110884E-01  0.10568876512E+00  0.89045753392E+00  0.88000000000E+00 0. -1.
        -11    1    4    4    0    0 -0.58951213543E-02 -0.32501618871E-01 -0.44420807178E-01  0.55358620976E-01  0.51100000000E-03 0. -1.
         11    1    4    4    0    0 -0.26674479603E-01 -0.24526584562E-01 -0.64773938466E-01  0.74222674687E-01  0.51100000000E-03 0.  1.
</event>
<event>
 8    1  0.1109294E+005  0.1043930E+01  0.7957747E-01            NaN
         13   -1    0    0    0    0  0.00000000000E+00  0.00000000000E+00  0.74505805969E-08  0.10566000000E+00  0.10566000000E+00 0.  1.
     999900   -1    0    0    0    0 -0.00000000000E+00 -0.00000000000E+00 -0.74505805969E-08  0.93827000000E+00  0.93827000000E+00 0. -1.
     999902    2    1    2    0    0  0.36656192376E-02 -0.10958341926E-01 -0.21399394818E-01  0.10196101291E+01  0.10193200475E+01 0.  0.
     999903    2    3    3    0    0  0.43094584577E-01  0.77937801079E-01 -0.94220088579E-01  0.13126333815E+00  0.20523030794E-01 0.  0.
         14    1    1    2    0    0 -0.36656192376E-02  0.10958341926E-01  0.21399394818E-01  0.24319870903E-01  0.00000000000E+00 0.  1.
     999901    1    3    3    0    0 -0.39428965339E-01 -0.88896143006E-01  0.72820693761E-01  0.88834679095E+00  0.88000000000E+00 0.  1.
        -11    1    4    4    0    0  0.23331081529E-01  0.61034272719E-01 -0.65669739613E-01  0.92640691024E-01  0.51100000000E-03 0. -1.
         11    1    4    4    0    0  0.19763503047E-01  0.16903528360E-01 -0.28550348967E-01  0.38622647124E-01  0.51100000000E-03 0.  1.
</event>
<event>
 8    1  0.1109294E+005  0.1043930E+01  0.7957747E-01            NaN
         13   -1    0    0    0    0  0.00000000000E+00  0.00000000000E+00  0.74505805969E-08  0.10566000000E+00  0.10566000000E+00 0.  1.
     999900   -1    0    0    0    0 -0.00000000000E+00 -0.00000000000E+00 -0.74505805969E-08  0.93827000000E+00  0.93827000000E+00 0.  1.
     999902    2    1    2    0    0  0.11144052771E-01  0.18285447551E-01 -0.10112140498E-01  0.10202487228E+01  0.10199738494E+01 0.  0.
     999903    2    3    3    0    0 -0.12085530601E+00  0.22967655563E-01 -0.37320648121E-01  0.12997569913E+00  0.19165943644E-01 0.  0.
         14    1    1    2    0    0 -0.11144052771E-01 -0.18285447551E-01  0.10112140498E-01  0.23681277199E-01  0.00000000000E+00 0. -1.
     999901    1    3    3    0    0  0.13199935878E+00 -0.46822080114E-02  0.27208507623E-01  0.89027302367E+00  0.88000000000E+00 0. -1.
        -11    1    4    4    0    0 -0.52121410250E-01  0.66686368229E-03 -0.18356131199E-01  0.55265674584E-01  0.51100000000E-03 0.  1.
         11    1    4    4    0    0 -0.68733895758E-01  0.22300791880E-01 -0.18964516923E-01  0.74710024546E-01  0.51100000000E-03 0. -1.
</event>
<event>
 7    1  0.1109294E+005  0.1043930E+01  0.7957747E-01            NaN
         13   -1    0    0    0    0  0.00000000000E+00  0.00000000000E+00  0.74505805969E-08  0.10566000000E+00  0.10566000000E+00 0.  1.
     999900   -1    0    0    0    0 -0.00000000000E+00 -0.00000000000E+00 -0.74505805969E-08  0.93827000000E+00  0.93827000000E+00 0.  1.
     999903    2    1    2    0    0 -0.10048247962E-01 -0.93328907664E-02  0.11128010066E+00  0.11381441941E+00  0.19554823576E-01 0.  0.
         14    1    1    2    0    0  0.14299623494E-01 -0.38456517273E-01 -0.14476606143E-01  0.43508103593E-01  0.00000000000E+00 0.  1.
     999901    1    1    2    0    0 -0.42513755322E-02  0.47789408039E-01 -0.96803494519E-01  0.88660747700E+00  0.88000000000E+00 0.  1.
        -11    1    3    3    0    0 -0.11871023997E-02 -0.57548607544E-03  0.81718646870E-01  0.81730892345E-01  0.51100000000E-03 0.  1.
         11    1    3    3    0    0 -0.88611455621E-02 -0.87574046910E-02  0.29561453793E-01  0.32083527065E-01  0.51100000000E-03 0. -1.
</event>
<event>
 8    1  0.1109294E+005  0.1043930E+01  0.7957747E-01            NaN
         13   -1    0    0    0    0  0.00000000000E+00  0.00000000000E+00  0.74505805969E-08  0.10566000000E+00  0.10566000000E+00 0.  1.
     999900   -1    0    0    0    0 -0.00000000000E+00 -0.00000000000E+00 -0.74505805969E-08  0.93827000000E+00  0.93827000000E+00 0. -1.
     999902    2    1    2    0    0 -0.21493000596E-01  0.10439456345E-01  0.18144243894E-03  0.10200351419E+01  0.10197552287E+01 0.  0.
     999903    2    3    3    0    0  0.11380053632E-01  0.74663814085E-01 -0.10484489359E+00  0.13085802955E+00  0.20668367893E-01 0.  0.
         14    1    1    2    0    0  0.21493000596E-01 -0.10439456345E-01 -0.18144243894E-03  0.23894858123E-01  0.00000000000E+00 0.  1.
     999901    1    3    3    0    0 -0.32873054227E-01 -0.64224357740E-01  0.10502633603E+00  0.88917711232E+00  0.88000000000E+00 0. -1.
        -11    1    4    4    0    0  0.17543950266E-02  0.60525720303E-01 -0.74331968675E-01  0.95874623380E-01  0.51100000000E-03 0. -1.
         11    1    4    4    0    0  0.96256586052E-02  0.14138093782E-01 -0.30512924918E-01  0.34983406172E-01  0.51100000000E-03 0.  1.
</event>
<event>
 8    1  0.1109294E+005  0.1043930E+01  0.7957747E-01            NaN
         13   -1    0    0    0    0  0.00000000000E+00  0.00000000000E+00  0.74505805969E-08  0.10566000000E+00  0.10566000000E+00 0. -1.
     999900   -1    0    0    0    0 -0.00000000000E+00 -0.00000000000E+00 -0.74505805969E-08  0.93827000000E+00  0.93827000000E+00 0. -1.
     999902    2    1    2    0    0  0.15303597827E-01  0.18003271962E-01 -0.28834291719E-02  0.10201259652E+01  0.10198482009E+01 0.  0.
     999903    2    3    3    0    0 -0.64428534080E-01 -0.88933873080E-01  0.61493386374E-01  0.12774872424E+00  0.21863901580E-01 0.  0.
         14    1    1    2    0    0 -0.15303597827E-01 -0.18003271962E-01  0.28834291719E-02  0.23804034775E-01  0.00000000000E+00 0. -1.
     999901    1    3    3    0    0  0.79732131907E-01  0.10693714504E+00 -0.64376815546E-01  0.89237724099E+00  0.88000000000E+00 0. -1.
        -11    1    4    4    0    0 -0.40492290593E-01 -0.64874121383E-01  0.32445645481E-01  0.83073812085E-01  0.51100000000E-03 0.  1.
         11    1    4    4    0    0 -0.23936243487E-01 -0.24059751698E-01  0.29047740893E-01  0.44674912155E-01  0.51100000000E-03 0. -1.
</event>
<event>
 8    1  0.1109294E+005  0.1043930E+01  0.7957747E-01            NaN
         13   -1    0    0    0    0  0.00000000000E+00  0.00000000000E+00  0.74505805969E-08  0.10566000000E+00  0.10566000000E+00 0.  1.
     999900   -1    0    0    0    0 -0.00000000000E+00 -0.00000000000E+00 -0.74505805969E-08  0.93827000000E+00  0.93827000000E+00 0. -1.
     999902    2    1    2    0    0 -0.13442798638E-01 -0.16624400477E-01  0.12970384828E-01  0.10189237926E+01  0.10186168979E+01 0.  0.
     999903    2    3    3    0    0  0.83353620414E-01 -0.96322448101E-01 -0.14158025155E-01  0.12962222610E+00  0.19381222309E-01 0.  0.
         14    1    1    2    0    0  0.13442798638E-01  0.16624400477E-01 -0.12970384828E-01  0.25006207410E-01  0.00000000000E+00 0.  1.
     999901    1    3    3    0    0 -0.96796419051E-01  0.79698047624E-01  0.27128409983E-01  0.88930156649E+00  0.88000000000E+00 0.  1.
        -11    1    4    4    0    0  0.45365868232E-01 -0.38080781363E-01 -0.42776199255E-02  0.59386589924E-01  0.51100000000E-03 0. -1.
         11    1    4    4    0    0  0.37987752182E-01 -0.58241666738E-01 -0.98804052290E-02  0.70235636174E-01  0.51100000000E-03 0.  1.
</event>
<event>
 8    1  0.1109294E+005  0.1043930E+01  0.7957747E-01            NaN
         13   -1    0    0    0    0  0.00000000000E+00  0.00000000000E+00  0.74505805969E-08  0.10566000000E+00  0.10566000000E+00 0. -1.
     999900   -1    0    0    0    0 -0.00000000000E+00 -0.00000000000E+00 -0.74505805969E-08  0.93827000000E+00  0.93827000000E+00 0. -1.
     999902    2    1    2    0    0  0.26312476280E-02 -0.11571103914E-02 -0.18517094953E-01  0.10251911320E+01  0.10250198593E+01 0.  0.
     999903    2    3    3    0    0 -0.79709187427E-01 -0.65492352958E-01  0.81936047269E-01  0.13333362967E+00  0.20531393073E-01 0.  0.
         14    1    1    2    0    0 -0.26312476280E-02  0.11571103914E-02  0.18517094953E-01  0.18738868003E-01  0.00000000000E+00 0. -1.
     999901    1    3    3    0    0  0.82340435055E-01  0.64335242567E-01 -0.10045314222E+00  0.89185750233E+00  0.88000000000E+00 0. -1.
        -11    1    4    4    0    0 -0.60769132969E-01 -0.39178719514E-01  0.50693911726E-01  0.88306247750E-01  0.51100000000E-03 0.  1.
         11    1    4    4    0    0 -0.18940054458E-01 -0.26313633445E-01  0.31242135543E-01  0.45027381916E-01  0.51100000000E-03 0. -1.
</event>
<event>
 8    1  0.1109294E+005  0.1043930E+01  0.7957747E-01            NaN
         13   -1    0    0    0    0  0.00000000000E+00  0.00000000000E+00  0.74505805969E-08  0.10566000000E+00  0.10566000000E+00 0. -1.
     999900   -1    0    0    0    0 -0.00000000000E+00 -0.00000000000E+00 -0.74505805969E-08  0.93827000000E+00  0.93827000000E+00 0. -1.
     999902    2    1    2    0    0  0.11873193994E-01  0.17360235540E-01  0.24699870502E-02  0.10227533301E+01  0.10225340693E+01 0.  0.
     999903    2    3    3    0    0  0.20070718414E-01 -0.11031035105E+00 -0.64690224863E-01  0.13097001997E+00  0.19927710671E-01 0.  0.
         14    1    1    2    0    0 -0.11873193994E-01 -0.17360235540E-01 -0.24699870502E-02  0.21176669938E-01  0.00000000000E+00 0.  1.
     999901    1    3    3    0    0 -0.81975244204E-02  0.12767058659E+00  0.67160211913E-01  0.89178331009E+00  0.88000000000E+00 0.  1.
        -11    1    4    4    0    0 -0.39648278117E-02 -0.21039300631E-01 -0.12890554850E-01  0.24995990798E-01  0.51100000000E-03 0.  1.
         11    1    4    4    0    0  0.24035546226E-01 -0.89271050420E-01 -0.51799670013E-01  0.10597402918E+00  0.51100000000E-03 0. -1.
</event>
<event>
 8    1  0.1109294E+005  0.1043930E+01  0.7957747E-01            NaN
         13   -1    0    0    0    0  0.00000000000E+00  0.00000000000E+00  0.74505805969E-08  0.10566000000E+00  0.10566000000E+00 0. -1.
     999900   -1    0    0    0    0 -0.00000000000E+00 -0.00000000000E+00 -0.74505805969E-08  0.93827000000E+00  0.93827000000E+00 0. -1.
     999902    2    1    2    0    0 -0.15172101181E-01 -0.16374684403E-01 -0.12566489463E-01  0.10183128261E+01  0.10179905560E+01 0.  0.
     999903    2    3    3    0    0 -0.99488647738E-01  0.79061122619E-01 -0.12502966819E-01  0.12914620651E+00  0.19333037450E-01 0.  0.
         14    1    1    2    0    0  0.15172101181E-01  0.16374684403E-01  0.12566489463E-01  0.25617173945E-01  0.00000000000E+00 0.  1.
     999901    1    3    3    0    0  0.84316546557E-01 -0.95435807021E-01 -0.63522643448E-04  0.88916661955E+00  0.88000000000E+00 0. -1.
        -11    1    4    4    0    0 -0.55767291698E-01  0.50281666996E-01 -0.15659487187E-01  0.76705394329E-01  0.51100000000E-03 0.  1.
         11    1    4    4    0    0 -0.43721356040E-01  0.28779455623E-01  0.31565203675E-02  0.52440812177E-01  0.51100000000E-03 0. -1.
</event>
<event>
 8    1  0.1109294E+005  0.1043930E+01  0.7957747E-01            NaN
         13   -1    0    0    0    0  0.00000000000E+00  0.00000000000E+00  0.74505805969E-08  0.10566000000E+00  0.10566000000E+00 0. -1.
     999900   -1    0    0    0    0 -0.00000000000E+00 -0.00000000000E+00 -0.74505805969E-08  0.93827000000E+00  0.93827000000E+00 0.  1.
     999902    2    1    2    0    0 -0.23205500977E-01 -0.46153656622E-02 -0.60539083296E-02  0.10195077421E+01  0.10192151831E+01 0.  0.
     999903    2    3    3    0    0 -0.41885722216E-01 -0.97166585524E-01  0.74225896064E-01  0.13082358786E+00  0.20237796993E-01 0.  0.
         14    1    1    2    0    0  0.23205500977E-01  0.46153656622E-02  0.60539083296E-02  0.24422257919E-01  0.00000000000E+00 0. -1.
     999901    1    3    3    0    0  0.18680221238E-01  0.92551219862E-01 -0.80279804393E-01  0.88868415422E+00  0.88000000000E+00 0. -1.
        -11    1    4    4    0    0 -0.14705380227E-01 -0.59265333436E-01  0.43352466779E-01  0.74888753840E-01  0.51100000000E-03 0.  1.
         11    1    4    4    0    0 -0.27180341988E-01 -0.37901252089E-01  0.30873429285E-01  0.55934834024E-01  0.51100000000E-03 0. -1.
</event>
<event>
 8    1  0.1109294E+005  0.1043930E+01  0.7957747E-01            NaN
         13   -1    0    0    0    0  0.00000000000E+00  0.00000000000E+00  0.74505805969E-08  0.10566000000E+00  0.10566000000E+00 0. -1.
     999900   -1    0    0    0    0 -0.00000000000E+00 -0.00000000000E+00 -0.74505805969E-08  0.93827000000E+00  0.93827000000E+00 0. -1.
     999902    2    1    2    0    0  0.20794002734E-01  0.56292038638E-02  0.94555264824E-02  0.10204037282E+01  0.10201324830E+01 0.  0.
     999903    2    3    3    0    0 -0.81959168909E-01 -0.20436392272E-01  0.96327339334E-01  0.12979475591E+00  0.20803145441E-01 0.  0.
         14    1    1    2    0    0 -0.20794002734E-01 -0.56292038638E-02 -0.94555264824E-02  0.23526271844E-01  0.00000000000E+00 0. -1.
     999901    1    3    3    0    0  0.10275317164E+00  0.26065596136E-01 -0.86871812851E-01  0.89060897225E+00  0.88000000000E+00 0.  1.
        -11    1    4    4    0    0 -0.32585177963E-01 -0.17954341920E-01  0.47143441196E-01  0.60057617215E-01  0.51100000000E-03 0.  1.
         11    1    4    4    0    0 -0.49373990945E-01 -0.24820503516E-02  0.49183898137E-01  0.69737138691E-01  0.51100000000E-03 0. -1.
</event>
<event>
 8    1  0.1109294E+005  0.1043930E+01  0.7957747E-01            NaN
         13   -1    0    0    0    0  0.00000000000E+00  0.00000000000E+00  0.74505805969E-08  0.10566000000E+00  0.10566000000E+00 0. -1.
     999900   -1    0    0    0    0 -0.00000000000E+00 -0.00000000000E+00 -0.74505805969E-08  0.93827000000E+00  0.93827000000E+00 0. -1.
     999902    2    1    2    0    0  0.23617228692E-02  0.12229930419E-01  0.20162485178E-01  0.10202303219E+01  0.10199550162E+01 0.  0.
     999903    2    3    3    0    0  0.39984950321E-01 -0.21138733612E-01  0.12320054271E+00  0.13279254027E+00  0.20244572555E-01 0.  0.
         14    1    1    2    0    0 -0.23617228692E-02 -0.12229930419E-01 -0.20162485178E-01  0.23699678088E-01  0.00000000000E+00 0.  1.
     999901    1    3    3    0    0 -0.37623227452E-01  0.33368664030E-01 -0.10303805753E+00  0.88743778164E+00  0.88000000000E+00 0. -1.
        -11    1    4    4    0    0  0.11092129797E-01  0.14361689999E-02  0.16279477948E-01  0.19758047679E-01  0.51100000000E-03 0. -1.
         11    1    4    4    0    0  0.28892820524E-01 -0.22574902612E-01  0.10692106476E+00  0.11303449259E+00  0.51100000000E-03 0.  1.
</event>
<event>
 8    1  0.1109294E+005  0.1043930E+01  0.7957747E-01            NaN
         13   -1    0    0    0    0  0.00000000000E+00  0.00000000000E+00  0.74505805969E-08  0.10566000000E+00  0.10566000000E+00 0. -1.
     999900   -1    0    0    0    0 -0.00000000000E+00 -0.00000000000E+00 -0.74505805969E-08  0.93827000000E+00  0.93827000000E+00 0. -1.
     999902    2    1    2    0    0  0.41706029626E-02 -0.34479863488E-02  0.23763261724E-01  0.10195583947E+01  0.10192670626E+01 0.  0.
     999903    2    3    3    0    0 -0.21339203570E-02  0.12797993926E+00  0.73434444672E-02  0.12962432011E+00  0.19108106081E-01 0.  0.
         14    1    1    2    0    0 -0.41706029626E-02  0.34479863488E-02 -0.23763261724E-01  0.24371605337E-01  0.00000000000E+00 0.  1.
     999901    1    3    3    0    0  0.63045233195E-02 -0.13142792561E+00  0.16419817257E-01  0.88993407455E+00  0.88000000000E+00 0.  1.
        -11    1    4    4    0    0 -0.10397961134E-01  0.64909613917E-01  0.57935418376E-02  0.65993952925E-01  0.51100000000E-03 0. -1.
         11    1    4    4    0    0  0.82640407775E-02  0.63070325347E-01  0.15499026296E-02  0.63630367188E-01  0.51100000000E-03 0.  1.
</event>
<event>
 8    1  0.1109294E+005  0.1043930E+01  0.7957747E-01            NaN
         13   -1    0    0    0    0  0.00000000000E+00  0.00000000000E+00  0.74505805969E-08  0.10566000000E+00  0.10566000000E+00 0. -1.
     999900   -1    0    0    0    0 -0.00000000000E+00 -0.00000000000E+00 -0.74505805969E-08  0.93827000000E+00  0.93827000000E+00 0.  1.
     999902    2    1    2    0    0 -0.40294050480E-02 -0.75209838875E-03 -0.25573704645E-01  0.10180298817E+01  0.10177003606E+01 0.  0.
     999903    2    3    3    0    0 -0.68123519980E-01  0.74436703592E-01 -0.81114206039E-01  0.13076094910E+00  0.18365036701E-01 0.  0.
         14    1    1    2    0    0  0.40294050480E-02  0.75209838875E-03  0.25573704645E-01  0.25900118268E-01  0.00000000000E+00 0.  1.
     999901    1    3    3    0    0  0.64094114932E-01 -0.75188801981E-01  0.55540501394E-01  0.88726893263E+00  0.88000000000E+00 0. -1.
        -11    1    4    4    0    0 -0.54935445314E-01  0.64985244710E-01 -0.59970185396E-01  0.10410412787E+00  0.51100000000E-03 0.  1.
         11    1    4    4    0    0 -0.13188074666E-01  0.94514588822E-02 -0.21144020643E-01  0.26656821235E-01  0.51100000000E-03 0. -1.
</event>
<event>
 8    1  0.1109294E+005  0.1043930E+01  0.7957747E-01            NaN
         13   -1    0    0    0    0  0.00000000000E+00  0.00000000000E+00  0.74505805969E-08  0.10566000000E+00  0.10566000000E+00 0. -1.
     999900   -1    0    0    0    0 -0.00000000000E+00 -0.00000000000E+00 -0.74505805969E-08  0.93827000000E+00  0.93827000000E+00 0. -1.
     999902    2    1    2    0    0 -0.96518934461E-02 -0.39996631263E-02 -0.78061262321E-02  0.10308880692E+01  0.10308055681E+01 0.  0.
     999903    2    3    3    0    0  0.86218823497E-01  0.73172780802E-01  0.77221236577E-01  0.13826472596E+00  0.19133052326E-01 0.  0.
         14    1    1    2    0    0  0.96518934461E-02  0.39996631263E-02  0.78061262321E-02  0.13041930799E-01  0.00000000000E+00 0. -1.
     999901    1    3    3    0    0 -0.95870716943E-01 -0.77172443928E-01 -0.85027362809E-01  0.89262334324E+00  0.88000000000E+00 0.  1.
        -11    1    4    4    0    0  0.46929076558E-01  0.51054976231E-01  0.51236728976E-01  0.86223038347E-01  0.51100000000E-03 0.  1.
         11    1    4    4    0    0  0.39289746939E-01  0.22117804570E-01  0.25984507601E-01  0.52041687615E-01  0.51100000000E-03 0. -1.
</event>
<event>
 8    1  0.1109294E+005  0.1043930E+01  0.7957747E-01            NaN
         13   -1    0    0    0    0  0.00000000000E+00  0.00000000000E+00  0.74505805969E-08  0.10566000000E+00  0.10566000000E+00 0.  1.
     999900   -1    0    0    0    0 -0.00000000000E+00 -0.00000000000E+00 -0.74505805969E-08  0.93827000000E+00  0.93827000000E+00 0. -1.
     999902    2    1    2    0    0 -0.11145254575E-01  0.17514214928E-01 -0.13262691470E-01  0.10192954022E+01  0.10189976710E+01 0.  0.
     999903    2    3    3    0    0 -0.10018437650E+00  0.64285226414E-01 -0.54865248125E-01  0.13259011549E+00  0.20011088006E-01 0.  0.
         14    1    1    2    0    0  0.11145254575E-01 -0.17514214928E-01  0.13262691470E-01  0.24634597807E-01  0.00000000000E+00 0.  1.
     999901    1    3    3    0    0  0.89039121927E-01 -0.46771011486E-01  0.41602556655E-01  0.88670528670E+00  0.88000000000E+00 0.  1.
        -11    1    4    4    0    0 -0.98791062701E-01  0.59088845850E-01 -0.50789392470E-01  0.12582125926E+00  0.51100000000E-03 0.  1.
         11    1    4    4    0    0 -0.13933138014E-02  0.51963805637E-02 -0.40758556548E-02  0.67688562276E-02  0.51100000000E-03 0. -1.
</event>
<event>
 8    1  0.1109294E+005  0.1043930E+01  0.7957747E-01            NaN
         13   -1    0    0    0    0  0.00000000000E+00  0.00000000000E+00  0.74505805969E-08  0.10566000000E+00  0.10566000000E+00 0. -1.
     999900   -1    0    0    0    0 -0.00000000000E+00 -0.00000000000E+00 -0.74505805969E-08  0.93827000000E+00  0.93827000000E+00 0. -1.
     999902    2    1    2    0    0 -0.16797715987E-01 -0.29361138672E-02  0.16689468390E-01  0.10200695226E+01  0.10197904238E+01 0.  0.
     999903    2    3    3    0    0 -0.37798382996E-01  0.11410379680E+00 -0.44803157811E-01  0.12994553585E+00  0.20739458399E-01 0.  0.
         14    1    1    2    0    0  0.16797715987E-01  0.29361138672E-02 -0.16689468390E-01  0.23860477408E-01  0.00000000000E+00 0. -1.
     999901    1    3    3    0    0  0.21000667009E-01 -0.11703991067E+00  0.61492626202E-01  0.89012398675E+00  0.88000000000E+00 0.  1.
        -11    1    4    4    0    0 -0.22395724989E-01  0.74540025737E-01 -0.39107390621E-01  0.87105872688E-01  0.51100000000E-03 0. -1.
         11    1    4    4    0    0 -0.15402658006E-01  0.39563771065E-01 -0.56957671905E-02  0.42839663157E-01  0.51100000000E-03 0.  1.
</event>
<event>
 8    1  0.1109294E+005  0.1043930E+01  0.7957747E-01            NaN
         13   -1    0    0    0    0  0.00000000000E+00  0.00000000000E+00  0.74505805969E-08  0.10566000000E+00  0.10566000000E+00 0. -1.
     999900   -1    0    0    0    0 -0.00000000000E+00 -0.00000000000E+00 -0.74505805969E-08  0.93827000000E+00  0.93827000000E+00 0. -1.
     999902    2    1    2    0    0 -0.13353091556E-01 -0.17205139206E-01  0.17994195104E-02  0.10220768588E+01  0.10218432099E+01 0.  0.
     999903    2    3    3    0    0 -0.53535612435E-02  0.12053513475E+00  0.43121211479E-01  0.13036846138E+00  0.24064860644E-01 0.  0.
         14    1    1    2    0    0  0.13353091556E-01  0.17205139206E-01 -0.17994195104E-02  0.21853141188E-01  0.00000000000E+00 0. -1.
     999901    1    3    3    0    0 -0.79995303129E-02 -0.13774027395E+00 -0.41321791968E-01  0.89170839743E+00  0.88000000000E+00 0. -1.
        -11    1    4    4    0    0 -0.54030696012E-02  0.93753554608E-01  0.22511732678E-01  0.96571017349E-01  0.51100000000E-03 0.  1.
         11    1    4    4    0    0  0.49508357682E-04  0.26781580138E-01  0.20609478801E-01  0.33797444034E-01  0.51100000000E-03 0. -1.
</event>
<event>
 8    1  0.1109294E+005  0.1043930E+01  0.7957747E-01            NaN
         13   -1    0    0    0    0  0.00000000000E+00  0.00000000000E+00  0.74505805969E-08  0.10566000000E+00  0.10566000000E+00 0.  1.
     999900   -1    0    0    0    0 -0.00000000000E+00 -0.00000000000E+00 -0.74505805969E-08  0.93827000000E+00  0.93827000000E+00 0. -1.
     999902    2    1    2    0    0 -0.79436148901E-02  0.34934498128E-02 -0.21347096582E-01  0.10208864816E+01  0.10206263785E+01 0.  0.
     999903    2    3    3    0    0  0.10238858298E+00 -0.71763007433E-01  0.29143697234E-01  0.12937874268E+00  0.16004774514E-01 0.  0.
         14    1    1    2    0    0  0.79436148901E-02 -0.34934498128E-02  0.21347096582E-01  0.23043518429E-01  0.00000000000E+00 0.  1.
     999901    1    3    3    0    0 -0.11033219787E+00  0.75256457246E-01 -0.50490793816E-01  0.89150773889E+00  0.88000000000E+00 0. -1.
        -11    1    4    4    0    0  0.52275438961E-01 -0.29360614762E-01  0.84739705229E-02  0.60554409544E-01  0.51100000000E-03 0. -1.
         11    1    4    4    0    0  0.50113144022E-01 -0.42402392671E-01  0.20669726711E-01  0.68824333134E-01  0.51100000000E-03 0.  1.
</event>
<event>
 8    1  0.1172224E+005  0.1043930E+01  0.7957747E-01            NaN
         13   -1    0    0    0    0  0.00000000000E+00  0.00000000000E+00  0.74505805969E-08  0.10566000000E+00  0.10566000000E+00 0. -1.
     999900   -1    0    0    0    0 -0.00000000000E+00 -0.00000000000E+00 -0.74505805969E-08  0.93827000000E+00  0.93827000000E+00 0. -1.
     999902    2    1    2    0    0  0.19119727814E-01  0.12866452792E-01 -0.23789837403E-02  0.10207617208E+01  0.10204987611E+01 0.  0.
     999903    2    3    3    0    0 -0.11455985099E+00 -0.36464777135E-01 -0.40495139492E-01  0.12848561923E+00  0.20372986925E-01 0.  0.
         14    1    1    2    0    0 -0.19119727814E-01 -0.12866452792E-01  0.23789837403E-02  0.23168279237E-01  0.00000000000E+00 0.  1.
     999901    1    3    3    0    0  0.13367957881E+00  0.49331229927E-01  0.38116155751E-01  0.89227610153E+00  0.88000000000E+00 0. -1.
        -11    1    4    4    0    0 -0.52647997775E-01 -0.18292801802E-01 -0.82279591644E-02  0.56341802425E-01  0.51100000000E-03 0. -1.
         11    1    4    4    0    0 -0.61911853216E-01 -0.18171975333E-01 -0.32267180327E-01  0.72143816807E-01  0.51100000000E-03 0.  1.
</event>
<event>
 8    1  0.1109294E+005  0.1043930E+01  0.7957747E-01            NaN
         13   -1    0    0    0    0  0.00000000000E+00  0.00000000000E+00  0.74505805969E-08  0.10566000000E+00  0.10566000000E+00 0. -1.
     999900   -1    0    0    0    0 -0.00000000000E+00 -0.00000000000E+00 -0.74505805969E-08  0.93827000000E+00  0.93827000000E+00 0.  1.
     999902    2    1    2    0    0 -0.33862808170E-02 -0.78876345251E-03  0.21244821143E-01  0.10224025415E+01  0.10221758779E+01 0.  0.
     999903    2    3    3    0    0 -0.78443274730E-01  0.18115803051E-01 -0.10097868399E+00  0.13059004986E+00  0.19378772734E-01 0.  0.
         14    1    1    2    0    0  0.33862808170E-02  0.78876345251E-03 -0.21244821143E-01  0.21527458535E-01  0.00000000000E+00 0. -1.
     999901    1    3    3    0    0  0.75056993913E-01 -0.18904566503E-01  0.12222350513E+00  0.89181249160E+00  0.88000000000E+00 0. -1.
        -11    1    4    4    0    0 -0.44878313822E-01  0.14498848041E-01 -0.44826084803E-01  0.65068568801E-01  0.51100000000E-03 0. -1.
         11    1    4    4    0    0 -0.33564960908E-01  0.36169550096E-02 -0.56152599186E-01  0.65521481063E-01  0.51100000000E-03 0.  1.
</event>
<event>
 8    1  0.1109294E+005  0.1043930E+01  0.7957747E-01            NaN
         13   -1    0    0    0    0  0.00000000000E+00  0.00000000000E+00  0.74505805969E-08  0.10566000000E+00  0.10566000000E+00 0. -1.
     999900   -1    0    0    0    0 -0.00000000000E+00 -0.00000000000E+00 -0.74505805969E-08  0.93827000000E+00  0.93827000000E+00 0.  1.
     999902    2    1    2    0    0 -0.18064309234E-01  0.14041525251E-01 -0.38419444439E-02  0.10207299087E+01  0.10204662181E+01 0.  0.
     999903    2    3    3    0    0  0.22756433633E-01  0.12819072325E+00 -0.13834953249E-01  0.13236273648E+00  0.19436339078E-01 0.  0.
         14    1    1    2    0    0  0.18064309234E-01 -0.14041525251E-01  0.38419444439E-02  0.23200091305E-01  0.00000000000E+00 0. -1.
     999901    1    3    3    0    0 -0.40820742867E-01 -0.11414919800E+00  0.99930088051E-02  0.88836717222E+00  0.88000000000E+00 0.  1.
        -11    1    4    4    0    0  0.34378666381E-02  0.66701484842E-01 -0.12137218521E-01  0.67885787920E-01  0.51100000000E-03 0. -1.
         11    1    4    4    0    0  0.19318566995E-01  0.61489238408E-01 -0.16977347283E-02  0.64476948555E-01  0.51100000000E-03 0.  1.
</event>
<event>
 8    1  0.1109294E+005  0.1043930E+01  0.7957747E-01            NaN
         13   -1    0    0    0    0  0.00000000000E+00  0.00000000000E+00  0.74505805969E-08  0.10566000000E+00  0.10566000000E+00 0.  1.
     999900   -1    0    0    0    0 -0.00000000000E+00 -0.00000000000E+00 -0.74505805969E-08  0.93827000000E+00  0.93827000000E+00 0.  1.
     999902    2    1    2    0    0  0.24300272192E-02  0.21610068020E-01 -0.10066742009E-01  0.10199667079E+01  0.10196851700E+01 0.  0.
     999903    2    3    3    0    0  0.10724920525E+00 -0.42217298638E-02  0.70161954774E-01  0.12974708017E+00  0.19783576156E-01 0.  0.
         14    1    1    2    0    0 -0.24300272192E-02 -0.21610068020E-01  0.10066742009E-01  0.23963292070E-01  0.00000000000E+00 0.  1.
     999901    1    3    3    0    0 -0.10481917803E+00  0.25831797884E-01 -0.80228696783E-01  0.89021962776E+00  0.88000000000E+00 0.  1.
        -11    1    4    4    0    0  0.30181133060E-01 -0.75998682711E-03  0.30823457776E-01  0.43148870704E-01  0.51100000000E-03 0.  1.
         11    1    4    4    0    0  0.77068072187E-01 -0.34617430367E-02  0.39338496998E-01  0.86598209465E-01  0.51100000000E-03 0. -1.
</event>
<event>
 8    1  0.1109294E+005  0.1043930E+01  0.7957747E-01            NaN
         13   -1    0    0    0    0  0.00000000000E+00  0.00000000000E+00  0.74505805969E-08  0.10566000000E+00  0.10566000000E+00 0. -1.
     999900   -1    0    0    0    0 -0.00000000000E+00 -0.00000000000E+00 -0.74505805969E-08  0.93827000000E+00  0.93827000000E+00 0. -1.
     999902    2    1    2    0    0 -0.13202883388E-01 -0.75114816656E-02  0.18154583097E-01  0.10202587648E+01  0.10199841273E+01 0.  0.
     999903    2    3    3    0    0 -0.35822876837E-01  0.64990019884E-01  0.10786683161E+00  0.13244323256E+00  0.19974366062E-01 0.  0.
         14    1    1    2    0    0  0.13202883388E-01  0.75114816656E-02 -0.18154583097E-01  0.23671235160E-01  0.00000000000E+00 0. -1.
     999901    1    3    3    0    0  0.22619993449E-01 -0.72501501549E-01 -0.89712248512E-01  0.88781553228E+00  0.88000000000E+00 0. -1.
        -11    1    4    4    0    0 -0.14617289707E-01  0.18900421678E-01  0.50432070554E-01  0.55808117325E-01  0.51100000000E-03 0.  1.
         11    1    4    4    0    0 -0.21205587130E-01  0.46089598205E-01  0.57434761054E-01  0.76635115232E-01  0.51100000000E-03 0. -1.
</event>
<event>
 8    1  0.1109294E+005  0.1043930E+01  0.7957747E-01            NaN
         13   -1    0    0    0    0  0.00000000000E+00  0.00000000000E+00  0.74505805969E-08  0.10566000000E+00  0.10566000000E+00 0. -1.
     999900   -1    0    0    0    0 -0.00000000000E+00 -0.00000000000E+00 -0.74505805969E-08  0.93827000000E+00  0.93827000000E+00 0.  1.
     999902    2    1    2    0    0 -0.85769976794E-02  0.17229034705E-01  0.12809025553E-01  0.10208112703E+01  0.10205494471E+01 0.  0.
     999903    2    3    3    0    0  0.59383723281E-01  0.11712202052E+00  0.75563369125E-02  0.13254055768E+00  0.16306652710E-01 0.  0.
         14    1    1    2    0    0  0.85769976794E-02 -0.17229034705E-01 -0.12809025553E-01  0.23118729672E-01  0.00000000000E+00 0.  1.
     999901    1    3    3    0    0 -0.67960720960E-01 -0.99892985811E-01  0.52526886408E-02  0.88827071265E+00  0.88000000000E+00 0. -1.
        -11    1    4    4    0    0  0.34584359156E-01  0.84640942843E-01  0.62976769603E-02  0.91651999213E-01  0.51100000000E-03 0.  1.
         11    1    4    4    0    0  0.24799364125E-01  0.32481077672E-01  0.12586599522E-02  0.40888558468E-01  0.51100000000E-03 0. -1.
</event>
<event>
 8    1  0.1109294E+005  0.1043930E+01  0.7957747E-01            NaN
         13   -1    0    0    0    0  0.00000000000E+00  0.00000000000E+00  0.74505805969E-08  0.10566000000E+00  0.10566000000E+00 0. -1.
     999900   -1    0    0    0    0 -0.00000000000E+00 -0.00000000000E+00 -0.74505805969E-08  0.93827000000E+00  0.93827000000E+00 0. -1.
     999902    2    1    2    0    0  0.20140402408E-01 -0.10824730775E-01 -0.58528491539E-02  0.10203277448E+01  0.10200547242E+01 0.  0.
     999903    2    3    3    0    0 -0.10528286088E+00 -0.20900383357E-01  0.67598396564E-01  0.12834814908E+00  0.19554982326E-01 0.  0.
         14    1    1    2    0    0 -0.20140402408E-01  0.10824730775E-01  0.58528491539E-02  0.23602255162E-01  0.00000000000E+00 0. -1.
     999901    1    3    3    0    0  0.12542326329E+00  0.10075652581E-01 -0.73451245717E-01  0.89197959576E+00  0.88000000000E+00 0. -1.
        -11    1    4    4    0    0 -0.54240298517E-01 -0.19653514820E-01  0.30718425690E-01  0.65361712232E-01  0.51100000000E-03 0. -1.
         11    1    4    4    0    0 -0.51042562367E-01 -0.12468685368E-02  0.36879970874E-01  0.62986436848E-01  0.51100000000E-03 0.  1.
</event>
<event>
 8    1  0.1109294E+005  0.1043930E+01  0.7957747E-01            NaN
         13   -1    0    0    0    0  0.00000000000E+00  0.00000000000E+00  0.74505805969E-08  0.10566000000E+00  0.10566000000E+00 0. -1.
     999900   -1    0    0    0    0 -0.00000000000E+00 -0.00000000000E+00 -0.74505805969E-08  0.93827000000E+00  0.93827000000E+00 0.  1.
     999902    2    1    2    0    0 -0.13677036740E-01 -0.15959320493E-01  0.10675759859E-01  0.10203560081E+01  0.10200836486E+01 0.  0.
     999903    2    3    3    0    0  0.31021056569E-01 -0.12056707802E+00 -0.37386477940E-01  0.13173309530E+00  0.21380678482E-01 0.  0.
         14    1    1    2    0    0  0.13677036740E-01  0.15959320493E-01 -0.10675759859E-01  0.23573991880E-01  0.00000000000E+00 0. -1.
     999901    1    3    3    0    0 -0.44698093309E-01  0.10460775753E+00  0.48062237799E-01  0.88862291282E+00  0.88000000000E+00 0. -1.
        -11    1    4    4    0    0  0.17303654255E-01 -0.48445060287E-01 -0.56638185694E-02  0.51755968531E-01  0.51100000000E-03 0. -1.
         11    1    4    4    0    0  0.13717402314E-01 -0.72122017734E-01 -0.31722659371E-01  0.79977126772E-01  0.51100000000E-03 0.  1.
</event>
<event>
 8    1  0.1109294E+005  0.1043930E+01  0.7957747E-01            NaN
         13   -1    0    0    0    0  0.00000000000E+00  0.00000000000E+00  0.74505805969E-08  0.10566000000E+00  0.10566000000E+00 0. -1.
     999900   -1    0    0    0    0 -0.00000000000E+00 -0.00000000000E+00 -0.74505805969E-08  0.93827000000E+00  0.93827000000E+00 0.  1.
     999902    2    1    2    0    0  0.10997999223E-01 -0.96264844349E-02 -0.18129129201E-01  0.10206428680E+01  0.10203771722E+01 0.  0.
     999903    2    3    3    0    0  0.22719560144E-01 -0.89772988923E-01 -0.93333234721E-01  0.13372882786E+00  0.24432329904E-01 0.  0.
         14    1    1    2    0    0 -0.10997999223E-01  0.96264844349E-02  0.18129129201E-01  0.23287131963E-01  0.00000000000E+00 0. -1.
     999901    1    3    3    0    0 -0.11721560921E-01  0.80146504488E-01  0.75204105520E-01  0.88691404017E+00  0.88000000000E+00 0.  1.
        -11    1    4    4    0    0  0.19329466593E-01 -0.39766166908E-01 -0.32342597426E-01  0.54783948731E-01  0.51100000000E-03 0. -1.
         11    1    4    4    0    0  0.33900935517E-02 -0.50006822016E-01 -0.60990637295E-01  0.78944879131E-01  0.51100000000E-03 0.  1.
</event>
<event>
 8    1  0.1109294E+005  0.1043930E+01  0.7957747E-01            NaN
         13   -1    0    0    0    0  0.00000000000E+00  0.00000000000E+00  0.74505805969E-08  0.10566000000E+00  0.10566000000E+00 0.  1.
     999900   -1    0    0    0    0 -0.00000000000E+00 -0.00000000000E+00 -0.74505805969E-08  0.93827000000E+00  0.93827000000E+00 0.  1.
     999902    2    1    2    0    0  0.22005753849E-01  0.63770589367E-02 -0.18076773974E-01  0.10147462744E+01  0.10143265310E+01 0.  0.
     999903    2    3    3    0    0  0.12656934438E+00  0.71388704716E-02 -0.41023591224E-02  0.12844530458E+00  0.20263378521E-01 0.  0.
         14    1    1    2    0    0 -0.22005753849E-01 -0.63770589367E-02  0.18076773974E-01  0.29183725610E-01  0.00000000000E+00 0.  1.
     999901    1    3    3    0    0 -0.10456359053E+00 -0.76181153492E-03 -0.13974414852E-01  0.88630096981E+00  0.88000000000E+00 0.  1.
        -11    1    4    4    0    0  0.30412553504E-01  0.38523737445E-02  0.74160645162E-02  0.31543990363E-01  0.51100000000E-03 0. -1.
         11    1    4    4    0    0  0.96156790876E-01  0.32864967272E-02 -0.11518423639E-01  0.96901314214E-01  0.51100000000E-03 0.  1.
</event>
<event>
 8    1  0.1109294E+005  0.1043930E+01  0.7957747E-01            NaN
         13   -1    0    0    0    0  0.00000000000E+00  0.00000000000E+00  0.74505805969E-08  0.10566000000E+00  0.10566000000E+00 0.  1.
     999900   -1    0    0    0    0 -0.00000000000E+00 -0.00000000000E+00 -0.74505805969E-08  0.93827000000E+00  0.93827000000E+00 0. -1.
     999902    2    1    2    0    0  0.14719861690E-01 -0.18305263889E-01  0.38843167497E-02  0.10201214946E+01  0.10198436247E+01 0.  0.
     999903    2    3    3    0    0  0.54289683223E-01  0.11043466747E+00  0.34298540718E-01  0.12935510223E+00  0.20326512126E-01 0.  0.
         14    1    1    2    0    0 -0.14719861690E-01  0.18305263889E-01 -0.38843167497E-02  0.23808505430E-01  0.00000000000E+00 0. -1.
     999901    1    3    3    0    0 -0.39569821533E-01 -0.12873993135E+00 -0.30414223968E-01  0.89076639234E+00  0.88000000000E+00 0. -1.
        -11    1    4    4    0    0  0.46477924081E-01  0.73454782382E-01  0.23845153775E-01  0.90136867935E-01  0.51100000000E-03 0.  1.
         11    1    4    4    0    0  0.78117591411E-02  0.36979885083E-01  0.10453386943E-01  0.39218234295E-01  0.51100000000E-03 0. -1.
</event>
<event>
 8    1  0.1292878E+005  0.1043930E+01  0.7957747E-01            NaN
         13   -1    0    0    0    0  0.00000000000E+00  0.00000000000E+00  0.74505805969E-08  0.10566000000E+00  0.10566000000E+00 0. -1.
     999900   -1    0    0    0    0 -0.00000000000E+00 -0.00000000000E+00 -0.74505805969E-08  0.93827000000E+00  0.93827000000E+00 0. -1.
     999902    2    1    2    0    0 -0.23183371783E-01 -0.20283211664E-02 -0.42797150972E-02  0.10202678197E+01  0.10199933947E+01 0.  0.
     999903    2    3    3    0    0 -0.96723581412E-01 -0.81556052969E-01 -0.36095260465E-01  0.13305586563E+00  0.19853326537E-01 0.  0.
         14    1    1    2    0    0  0.23183371783E-01  0.20283211664E-02  0.42797150972E-02  0.23662180273E-01  0.00000000000E+00 0. -1.
     999901    1    3    3    0    0  0.73540209629E-01  0.79527731803E-01  0.31815545368E-01  0.88721195409E+00  0.88000000000E+00 0. -1.
        -11    1    4    4    0    0 -0.56991553647E-01 -0.46569940010E-01 -0.10828414781E-01  0.74392957915E-01  0.51100000000E-03 0. -1.
         11    1    4    4    0    0 -0.39732027765E-01 -0.34986112959E-01 -0.25266845684E-01  0.58662907719E-01  0.51100000000E-03 0.  1.
</event>
<event>
 8    1  0.1109294E+005  0.1043930E+01  0.7957747E-01            NaN
         13   -1    0    0    0    0  0.00000000000E+00  0.00000000000E+00  0.74505805969E-08  0.10566000000E+00  0.10566000000E+00 0.  1.
     999900   -1    0    0    0    0 -0.00000000000E+00 -0.00000000000E+00 -0.74505805969E-08  0.93827000000E+00  0.93827000000E+00 0.  1.
     999902    2    1    2    0    0  0.24848071107E-03 -0.17335093624E-01  0.15691551096E-01  0.10205464162E+01  0.10202784893E+01 0.  0.
     999903    2    3    3    0    0 -0.10147566984E-01 -0.12687907672E+00  0.34893081495E-01  0.13348573015E+00  0.19990992777E-01 0.  0.
         14    1    1    2    0    0 -0.24848071107E-03  0.17335093624E-01 -0.15691551096E-01  0.23383583759E-01  0.00000000000E+00 0. -1.
     999901    1    3    3    0    0  0.10396047695E-01  0.10954398310E+00 -0.19201530399E-01  0.88706068609E+00  0.88000000000E+00 0. -1.
        -11    1    4    4    0    0  0.20082188928E-02 -0.21503696748E-01  0.12876068440E-01  0.25149476663E-01  0.51100000000E-03 0. -1.
         11    1    4    4    0    0 -0.12155785877E-01 -0.10537537997E+00  0.22017013054E-01  0.10833625349E+00  0.51100000000E-03 0.  1.
</event>
<event>
 8    1  0.1109294E+005  0.1043930E+01  0.7957747E-01            NaN
         13   -1    0    0    0    0  0.00000000000E+00  0.00000000000E+00  0.74505805969E-08  0.10566000000E+00  0.10566000000E+00 0. -1.
     999900   -1    0    0    0    0 -0.00000000000E+00 -0.00000000000E+00 -0.74505805969E-08  0.93827000000E+00  0.93827000000E+00 0.  1.
     999902    2    1    2    0    0  0.10328687416E-01  0.20987309671E-01 -0.26409522747E-02  0.10203901704E+01  0.10201186089E+01 0.  0.
     999903    2    3    3    0    0 -0.39941996406E-01 -0.11094713027E+00 -0.44939693039E-01  0.12813290837E+00  0.22222452718E-01 0.  0.
         14    1    1    2    0    0 -0.10328687416E-01 -0.20987309671E-01  0.26409522747E-02  0.23539829649E-01  0.00000000000E+00 0.  1.
     999901    1    3    3    0    0  0.50270683822E-01  0.13193443994E+00  0.42298740765E-01  0.89225726198E+00  0.88000000000E+00 0. -1.
        -11    1    4    4    0    0 -0.41231860687E-02 -0.40461026231E-01 -0.19236343098E-01  0.44993258649E-01  0.51100000000E-03 0. -1.
         11    1    4    4    0    0 -0.35818810338E-01 -0.70486104035E-01 -0.25703349942E-01  0.83139649718E-01  0.51100000000E-03 0.  1.
</event>
<event>
 8    1  0.1109294E+005  0.1043930E+01  0.7957747E-01            NaN
         13   -1    0    0    0    0  0.00000000000E+00  0.00000000000E+00  0.74505805969E-08  0.10566000000E+00  0.10566000000E+00 0. -1.
     999900   -1    0    0    0    0 -0.00000000000E+00 -0.00000000000E+00 -0.74505805969E-08  0.93827000000E+00  0.93827000000E+00 0. -1.
     999902    2    1    2    0    0 -0.11746190667E-01 -0.11432307096E-01  0.80713981550E-02  0.10256593101E+01  0.10254965638E+01 0.  0.
     999903    2    3    3    0    0 -0.84691321069E-01 -0.42591636536E-01 -0.95689277121E-01  0.13601995982E+00  0.18929457097E-01 0.  0.
         14    1    1    2    0    0  0.11746190667E-01  0.11432307096E-01 -0.80713981550E-02  0.18270689886E-01  0.00000000000E+00 0.  1.
     999901    1    3    3    0    0  0.72945130401E-01  0.31159329439E-01  0.10376067528E+00  0.88963935030E+00  0.88000000000E+00 0.  1.
        -11    1    4    4    0    0 -0.55928810141E-01 -0.19075668717E-01 -0.52494060809E-01  0.79043029307E-01  0.51100000000E-03 0. -1.
         11    1    4    4    0    0 -0.28762510927E-01 -0.23515967818E-01 -0.43195216312E-01  0.56976930512E-01  0.51100000000E-03 0.  1.
</event>
<event>
 8    1  0.1109294E+005  0.1043930E+01  0.7957747E-01            NaN
         13   -1    0    0    0    0  0.00000000000E+00  0.00000000000E+00  0.74505805969E-08  0.10566000000E+00  0.10566000000E+00 0.  1.
     999900   -1    0    0    0    0 -0.00000000000E+00 -0.00000000000E+00 -0.74505805969E-08  0.93827000000E+00  0.93827000000E+00 0. -1.
     999902    2    1    2    0    0 -0.16119652341E-01  0.17351578043E-01 -0.10367861208E-02  0.10202235583E+01  0.10199480936E+01 0.  0.
     999903    2    3    3    0    0 -0.81510873836E-01 -0.98281268595E-01 -0.15888176578E-01  0.13012944482E+00  0.19442426395E-01 0.  0.
         14    1    1    2    0    0  0.16119652341E-01 -0.17351578043E-01  0.10367861208E-02  0.23706441690E-01  0.00000000000E+00 0.  1.
     999901    1    3    3    0    0  0.65391221495E-01  0.11563284664E+00  0.14851390457E-01  0.89009411349E+00  0.88000000000E+00 0.  1.
        -11    1    4    4    0    0 -0.60337653507E-01 -0.81263183669E-01 -0.18286724663E-01  0.10285427979E+00  0.51100000000E-03 0. -1.
         11    1    4    4    0    0 -0.21173220328E-01 -0.17018084927E-01  0.23985480851E-02  0.27275165033E-01  0.51100000000E-03 0.  1.
</event>
<event>
 8    1  0.1109294E+005  0.1043930E+01  0.7957747E-01            NaN
         13   -1    0    0    0    0  0.00000000000E+00  0.00000000000E+00  0.74505805969E-08  0.10566000000E+00  0.10566000000E+00 0. -1.
     999900   -1    0    0    0    0 -0.00000000000E+00 -0.00000000000E+00 -0.74505805969E-08  0.93827000000E+00  0.93827000000E+00 0.  1.
     999902    2    1    2    0    0 -0.17331539195E-01 -0.12857338979E-01  0.82225736342E-02  0.10208366214E+01  0.10205753787E+01 0.  0.
     999903    2    3    3    0    0  0.71200651777E-01  0.97130367481E-01  0.41529121008E-01  0.12895962851E+00  0.20051852601E-01 0.  0.
         14    1    1    2    0    0  0.17331539195E-01  0.12857338979E-01 -0.82225736342E-02  0.23093378567E-01  0.00000000000E+00 0. -1.
     999901    1    3    3    0    0 -0.88532190973E-01 -0.10998770646E+00 -0.33306547374E-01  0.89187699292E+00  0.88000000000E+00 0. -1.
        -11    1    4    4    0    0  0.18080991852E-01  0.40943719772E-01  0.15799329344E-01  0.47467782588E-01  0.51100000000E-03 0. -1.
         11    1    4    4    0    0  0.53119659925E-01  0.56186647709E-01  0.25729791664E-01  0.81491845920E-01  0.51100000000E-03 0.  1.
</event>
<event>
 8    1  0.1109294E+005  0.1043930E+01  0.7957747E-01            NaN
         13   -1    0    0    0    0  0.00000000000E+00  0.00000000000E+00  0.74505805969E-08  0.10566000000E+00  0.10566000000E+00 0. -1.
     999900   -1    0    0    0    0 -0.00000000000E+00 -0.00000000000E+00 -0.74505805969E-08  0.93827000000E+00  0.93827000000E+00 0. -1.
     999902    2    1    2    0    0  0.80454148282E-02  0.11913782729E-02 -0.23378162751E-01  0.10191774936E+01  0.10188768703E+01 0.  0.
     999903    2    3    3    0    0 -0.63614505713E-01  0.10568039505E+00 -0.35719409822E-01  0.13001755000E+00  0.20335580512E-01 0.  0.
         14    1    1    2    0    0 -0.80454148282E-02 -0.11913782729E-02  0.23378162751E-01  0.24752506450E-01  0.00000000000E+00 0. -1.
     999901    1    3    3    0    0  0.71659920541E-01 -0.10448901678E+00  0.12341247072E-01  0.88915994355E+00  0.88000000000E+00 0.  1.
        -11    1    4    4    0    0 -0.54289928368E-02  0.19331384856E-01 -0.11381451546E-01  0.23086250540E-01  0.51100000000E-03 0.  1.
         11    1    4    4    0    0 -0.58185512876E-01  0.86349010192E-01 -0.24337958276E-01  0.10693129946E+00  0.51100000000E-03 0. -1.
</event>
<event>
 8    1  0.1109294E+005  0.1043930E+01  0.7957747E-01            NaN
         13   -1    0    0    0    0  0.00000000000E+00  0.00000000000E+00  0.74505805969E-08  0.10566000000E+00  0.10566000000E+00 0.  1.
     999900   -1    0    0    0    0 -0.00000000000E+00 -0.00000000000E+00 -0.74505805969E-08  0.93827000000E+00  0.93827000000E+00 0. -1.
     999902    2    1    2    0    0 -0.18576313810E-01 -0.10343536277E-01  0.10471795460E-01  0.10202292262E+01  0.10199538947E+01 0.  0.
     999903    2    3    3    0    0  0.81976516690E-01  0.29332088488E-01  0.93885217442E-01  0.12969970628E+00  0.20665407120E-01 0.  0.
         14    1    1    2    0    0  0.18576313810E-01  0.10343536277E-01 -0.10471795460E-01  0.23700773777E-01  0.00000000000E+00 0. -1.
     999901    1    3    3    0    0 -0.10055283050E+00 -0.39675624765E-01 -0.83413421982E-01  0.89052951994E+00  0.88000000000E+00 0.  1.
        -11    1    4    4    0    0  0.42187023174E-01  0.51677343669E-02  0.38525467734E-01  0.57366568556E-01  0.51100000000E-03 0.  1.
         11    1    4    4    0    0  0.39789493516E-01  0.24164354121E-01  0.55359749708E-01  0.72333137725E-01  0.51100000000E-03 0. -1.
</event>
<event>
 8    1  0.1109294E+005  0.1043930E+01  0.7957747E-01            NaN
         13   -1    0    0    0    0  0.00000000000E+00  0.00000000000E+00  0.74505805969E-08  0.10566000000E+00  0.10566000000E+00 0.  1.
     999900   -1    0    0    0    0 -0.00000000000E+00 -0.00000000000E+00 -0.74505805969E-08  0.93827000000E+00  0.93827000000E+00 0.  1.
     999902    2    1    2    0    0 -0.19863605484E-01 -0.13984350830E-01 -0.25194418790E-02  0.10195072140E+01  0.10192146422E+01 0.  0.
     999903    2    3    3    0    0 -0.12096788657E+00  0.22992730922E-02  0.49081883001E-01  0.13206711525E+00  0.19853852346E-01 0.  0.
         14    1    1    2    0    0  0.19863605484E-01  0.13984350830E-01  0.25194418790E-02  0.24422786047E-01  0.00000000000E+00 0. -1.
     999901    1    3    3    0    0  0.10110428109E+00 -0.16283623922E-01 -0.51601324880E-01  0.88744009871E+00  0.88000000000E+00 0.  1.
        -11    1    4    4    0    0 -0.52196407742E-01 -0.39927541631E-02  0.12114594495E-01  0.53734826582E-01  0.51100000000E-03 0.  1.
         11    1    4    4    0    0 -0.68771478826E-01  0.62920272553E-02  0.36967288506E-01  0.78332288665E-01  0.51100000000E-03 0. -1.
</event>
<event>
 8    1  0.1109294E+005  0.1043930E+01  0.7957747E-01            NaN
         13   -1    0    0    0    0  0.00000000000E+00  0.00000000000E+00  0.74505805969E-08  0.10566000000E+00  0.10566000000E+00 0.  1.
     999900   -1    0    0    0    0 -0.00000000000E+00 -0.00000000000E+00 -0.74505805969E-08  0.93827000000E+00  0.93827000000E+00 0. -1.
     999902    2    1    2    0    0  0.23791663445E-01 -0.12795887154E-01 -0.37320598645E-02  0.10166590219E+01  0.10162931961E+01 0.  0.
     999903    2    3    3    0    0  0.12320044275E+00 -0.16270934196E-01 -0.34434159421E-01  0.13052314048E+00  0.20186294181E-01 0.  0.
         14    1    1    2    0    0 -0.23791663445E-01  0.12795887154E-01  0.37320598645E-02  0.27270978134E-01  0.00000000000E+00 0.  1.
     999901    1    3    3    0    0 -0.99408779307E-01  0.34750470421E-02  0.30702099556E-01  0.88613588138E+00  0.88000000000E+00 0.  1.
        -11    1    4    4    0    0  0.16495711663E-01  0.41204021267E-02 -0.75424023171E-02  0.18607395591E-01  0.51100000000E-03 0. -1.
         11    1    4    4    0    0  0.10670473109E+00 -0.20391336323E-01 -0.26891757104E-01  0.11191574489E+00  0.51100000000E-03 0.  1.
</event>
<event>
 8    1  0.1109294E+005  0.1043930E+01  0.7957747E-01            NaN
         13   -1    0    0    0    0  0.00000000000E+00  0.00000000000E+00  0.74505805969E-08  0.10566000000E+00  0.10566000000E+00 0.  1.
     999900   -1    0    0    0    0 -0.00000000000E+00 -0.00000000000E+00 -0.74505805969E-08  0.93827000000E+00  0.93827000000E+00 0.  1.
     999902    2    1    2    0    0  0.21956933945E-01  0.74639398854E-02 -0.65927699486E-02  0.10198202102E+01  0.10195351780E+01 0.  0.
     999903    2    3    3    0    0  0.23039504369E-01  0.84178377438E-01  0.95130839868E-01  0.13064420422E+00  0.20030312318E-01 0.  0.
         14    1    1    2    0    0 -0.21956933945E-01 -0.74639398854E-02  0.65927699486E-02  0.24109789764E-01  0.00000000000E+00 0. -1.
     999901    1    3    3    0    0 -0.10825704246E-02 -0.76714437552E-01 -0.10172360982E+00  0.88917600602E+00  0.88000000000E+00 0. -1.
        -11    1    4    4    0    0  0.28584962097E-02  0.32866592223E-01  0.47169582056E-01  0.57564003312E-01  0.51100000000E-03 0. -1.
         11    1    4    4    0    0  0.20181008160E-01  0.51311785215E-01  0.47961257812E-01  0.73080200904E-01  0.51100000000E-03 0.  1.
</event>
<event>
 8    1  0.1109294E+005  0.1043930E+01  0.7957747E-01            NaN
         13   -1    0    0    0    0  0.00000000000E+00  0.00000000000E+00  0.74505805969E-08  0.10566000000E+00  0.10566000000E+00 0. -1.
     999900   -1    0    0    0    0 -0.00000000000E+00 -0.00000000000E+00 -0.74505805969E-08  0.93827000000E+00  0.93827000000E+00 0.  1.
     999902    2    1    2    0    0 -0.86594372366E-02  0.41420920050E-02 -0.22377555003E-01  0.10195805083E+01  0.10192897111E+01 0.  0.
     999903    2    3    3    0    0  0.58291707037E-01 -0.54025823519E-01 -0.10280427741E+00  0.13147329639E+00  0.19994886697E-01 0.  0.
         14    1    1    2    0    0  0.86594372366E-02 -0.41420920050E-02  0.22377555003E-01  0.24349491726E-01  0.00000000000E+00 0. -1.
     999901    1    3    3    0    0 -0.66951144274E-01  0.58167915524E-01  0.80426722410E-01  0.88810721188E+00  0.88000000000E+00 0. -1.
        -11    1    4    4    0    0  0.31053539546E-01 -0.35516374071E-01 -0.46503243619E-01  0.66246116366E-01  0.51100000000E-03 0. -1.
         11    1    4    4    0    0  0.27238167491E-01 -0.18509449449E-01 -0.56301033793E-01  0.65227180028E-01  0.51100000000E-03 0.  1.
</event>
<event>
 7    1  0.1109294E+005  0.1043930E+01  0.7957747E-01            NaN
         13   -1    0    0    0    0  0.00000000000E+00  0.00000000000E+00  0.74505805969E-08  0.10566000000E+00  0.10566000000E+00 0.  1.
     999900   -1    0    0    0    0 -0.00000000000E+00 -0.00000000000E+00 -0.74505805969E-08  0.93827000000E+00  0.93827000000E+00 0.  1.
     999903    2    1    2    0    0  0.11367748292E-01  0.11487055224E+00  0.10919627782E-01  0.11730314723E+00  0.17785404298E-01 0.  0.
         14    1    1    2    0    0 -0.24451028316E-01 -0.10078243073E-01 -0.30148402230E-01  0.40104238257E-01  0.00000000000E+00 0. -1.
     999901    1    1    2    0    0  0.13083280024E-01 -0.10479230917E+00  0.19228774449E-01  0.88652261451E+00  0.88000000000E+00 0.  1.
        -11    1    3    3    0    0  0.15384174705E-01  0.78082947520E-01  0.10628606434E-01  0.80292265633E-01  0.51100000000E-03 0.  1.
         11    1    3    3    0    0 -0.40164264131E-02  0.36787604719E-01  0.29102134780E-03  0.37010881596E-01  0.51100000000E-03 0. -1.
</event>
<event>
 8    1  0.1109294E+005  0.1043930E+01  0.7957747E-01            NaN
         13   -1    0    0    0    0  0.00000000000E+00  0.00000000000E+00  0.74505805969E-08  0.10566000000E+00  0.10566000000E+00 0.  1.
     999900   -1    0    0    0    0 -0.00000000000E+00 -0.00000000000E+00 -0.74505805969E-08  0.93827000000E+00  0.93827000000E+00 0.  1.
     999902    2    1    2    0    0  0.37389179621E-02  0.18108495626E-01  0.14446076493E-01  0.10204654257E+01  0.10201956179E+01 0.  0.
     999903    2    3    3    0    0  0.24637989689E-01 -0.49786978144E-02 -0.12493340859E+00  0.12895186407E+00  0.19708087081E-01 0.  0.
         14    1    1    2    0    0 -0.37389179621E-02 -0.18108495626E-01 -0.14446076493E-01  0.23464574307E-01  0.00000000000E+00 0. -1.
     999901    1    3    3    0    0 -0.20899071727E-01  0.23087193440E-01  0.13937948508E+00  0.89151356163E+00  0.88000000000E+00 0. -1.
        -11    1    4    4    0    0  0.61930256945E-02  0.73906801060E-02 -0.41901946924E-01  0.43000116241E-01  0.51100000000E-03 0.  1.
         11    1    4    4    0    0  0.18444963995E-01 -0.12369377920E-01 -0.83031461667E-01  0.85951747827E-01  0.51100000000E-03 0. -1.
</event>
<event>
 8    1  0.1109294E+005  0.1043930E+01  0.7957747E-01            NaN
         13   -1    0    0    0    0  0.00000000000E+00  0.00000000000E+00  0.74505805969E-08  0.10566000000E+00  0.10566000000E+00 0. -1.
     999900   -1    0    0    0    0 -0.00000000000E+00 -0.00000000000E+00 -0.74505805969E-08  0.93827000000E+00  0.93827000000E+00 0. -1.
     999902    2    1    2    0    0 -0.14930831242E-01  0.29908244603E-02 -0.19835248545E-01  0.10189237640E+01  0.10186168686E+01 0.  0.
     999903    2    3    3    0    0  0.90112917177E-01  0.30706262892E-01  0.80928435940E-01  0.12653614941E+00  0.19969299995E-01 0.  0.
         14    1    1    2    0    0  0.14930831242E-01 -0.29908244603E-02  0.19835248545E-01  0.25006235969E-01  0.00000000000E+00 0. -1.
     999901    1    3    3    0    0 -0.10504374842E+00 -0.27715438431E-01 -0.10076368448E+00  0.89238761462E+00  0.88000000000E+00 0. -1.
        -11    1    4    4    0    0  0.17636246156E-01  0.12051125408E-01  0.10662466128E-01  0.23879198207E-01  0.51100000000E-03 0.  1.
         11    1    4    4    0    0  0.72476671021E-01  0.18655137484E-01  0.70265969811E-01  0.10265695121E+00  0.51100000000E-03 0. -1.
</event>
<event>
 8    1  0.1109294E+005  0.1043930E+01  0.7957747E-01            NaN
         13   -1    0    0    0    0  0.00000000000E+00  0.00000000000E+00  0.74505805969E-08  0.10566000000E+00  0.10566000000E+00 0.  1.
     999900   -1    0    0    0    0 -0.00000000000E+00 -0.00000000000E+00 -0.74505805969E-08  0.93827000000E+00  0.93827000000E+00 0.  1.
     999902    2    1    2    0    0  0.36168154260E-02  0.23368103248E-01 -0.30634729949E-03  0.10202816713E+01  0.10200075712E+01 0.  0.
     999903    2    3    3    0    0  0.10415298805E+00 -0.60290852743E-01  0.42813605832E-01  0.12957090268E+00  0.21743553804E-01 0.  0.
         14    1    1    2    0    0 -0.36168154260E-02 -0.23368103248E-01  0.30634729949E-03  0.23648328734E-01  0.00000000000E+00 0. -1.
     999901    1    3    3    0    0 -0.10053617262E+00  0.83658955991E-01 -0.43119953132E-01  0.89071076859E+00  0.88000000000E+00 0. -1.
        -11    1    4    4    0    0  0.49064465510E-02 -0.97131109874E-02  0.34250055176E-02  0.11419699059E-01  0.51100000000E-03 0.  1.
         11    1    4    4    0    0  0.99246541498E-01 -0.50577741755E-01  0.39388600314E-01  0.11815120362E+00  0.51100000000E-03 0. -1.
</event>
<event>
 8    1  0.1109294E+005  0.1043930E+01  0.7957747E-01            NaN
         13   -1    0    0    0    0  0.00000000000E+00  0.00000000000E+00  0.74505805969E-08  0.10566000000E+00  0.10566000000E+00 0.  1.
     999900   -1    0    0    0    0 -0.00000000000E+00 -0.00000000000E+00 -0.74505805969E-08  0.93827000000E+00  0.93827000000E+00 0.  1.
     999902    2    1    2    0    0  0.55932465063E-02  0.23585561907E-01 -0.36709803262E-03  0.10196875187E+01  0.10193993025E+01 0.  0.
     999903    2    3    3    0    0  0.13144713192E-02  0.12879491977E+00 -0.30281907173E-01  0.13290557671E+00  0.12531529256E-01 0.  0.
         14    1    1    2    0    0 -0.55932465063E-02 -0.23585561907E-01  0.36709803262E-03  0.24242481266E-01  0.00000000000E+00 0.  1.
     999901    1    3    3    0    0  0.42787751871E-02 -0.10520935786E+00  0.29914809140E-01  0.88678194203E+00  0.88000000000E+00 0. -1.
        -11    1    4    4    0    0  0.41684258932E-02  0.30223503723E-01 -0.10918194304E-01  0.32408394585E-01  0.51100000000E-03 0.  1.
         11    1    4    4    0    0 -0.28539545741E-02  0.98571416043E-01 -0.19363712869E-01  0.10049718212E+00  0.51100000000E-03 0. -1.
</event>
<event>
 8    1  0.1109294E+005  0.1043930E+01  0.7957747E-01            NaN
         13   -1    0    0    0    0  0.00000000000E+00  0.00000000000E+00  0.74505805969E-08  0.10566000000E+00  0.10566000000E+00 0.  1.
     999900   -1    0    0    0    0 -0.00000000000E+00 -0.00000000000E+00 -0.74505805969E-08  0.93827000000E+00  0.93827000000E+00 0.  1.
     999902    2    1    2    0    0  0.20414595934E-01 -0.53884437364E-02 -0.13788781191E-01  0.10187125152E+01  0.10184003472E+01 0.  0.
     999903    2    3    3    0    0 -0.60784740652E-01 -0.95390510747E-01  0.55870324033E-01  0.12767598661E+00  0.19634923313E-01 0.  0.
         14    1    1    2    0    0 -0.20414595934E-01  0.53884437364E-02  0.13788781191E-01  0.25217484803E-01  0.00000000000E+00 0.  1.
     999901    1    3    3    0    0  0.81199336586E-01  0.90002067011E-01 -0.69659105224E-01  0.89103652858E+00  0.88000000000E+00 0.  1.
        -11    1    4    4    0    0 -0.39242980599E-01 -0.76173448101E-01  0.45325148214E-01  0.96938309783E-01  0.51100000000E-03 0. -1.
         11    1    4    4    0    0 -0.21541760053E-01 -0.19217062646E-01  0.10545175819E-01  0.30737676831E-01  0.51100000000E-03 0.  1.
</event>
<event>
 8    1  0.1109294E+005  0.1043930E+01  0.7957747E-01            NaN
         13   -1    0    0    0    0  0.00000000000E+00  0.00000000000E+00  0.74505805969E-08  0.10566000000E+00  0.10566000000E+00 0.  1.
     999900   -1    0    0    0    0 -0.00000000000E+00 -0.00000000000E+00 -0.74505805969E-08  0.93827000000E+00  0.93827000000E+00 0. -1.
     999902    2    1    2    0    0  0.89714584478E-02  0.18581010639E-01 -0.11611977484E-01  0.10202534495E+01  0.10199786871E+01 0.  0.
     999903    2    3    3    0    0  0.41945794102E-01 -0.11100556066E+00 -0.47429477501E-01  0.12943198613E+00  0.20528018813E-01 0.  0.
         14    1    1    2    0    0 -0.89714584478E-02 -0.18581010639E-01  0.11611977484E-01  0.23676550511E-01  0.00000000000E+00 0.  1.
     999901    1    3    3    0    0 -0.32974335654E-01  0.12958657130E+00  0.35817500018E-01  0.89082146336E+00  0.88000000000E+00 0.  1.
        -11    1    4    4    0    0  0.40437744168E-01 -0.86138567887E-01 -0.41518914016E-01  0.10382266310E+00  0.51100000000E-03 0.  1.
         11    1    4    4    0    0  0.15080499339E-02 -0.24866992777E-01 -0.59105634855E-02  0.25609323030E-01  0.51100000000E-03 0. -1.
</event>
<event>
 8    1  0.1109294E+005  0.1043930E+01  0.7957747E-01            NaN
         13   -1    0    0    0    0  0.00000000000E+00  0.00000000000E+00  0.74505805969E-08  0.10566000000E+00  0.10566000000E+00 0. -1.
     999900   -1    0    0    0    0 -0.00000000000E+00 -0.00000000000E+00 -0.74505805969E-08  0.93827000000E+00  0.93827000000E+00 0. -1.
     999902    2    1    2    0    0 -0.16347694753E-01  0.10217956121E-01  0.15005540286E-01  0.10195001005E+01  0.10192073562E+01 0.  0.
     999903    2    3    3    0    0  0.33325471260E-01 -0.10789939793E+00 -0.55473580132E-01  0.12743147131E+00  0.20213725002E-01 0.  0.
         14    1    1    2    0    0  0.16347694753E-01 -0.10217956121E-01 -0.15005540286E-01  0.24429899515E-01  0.00000000000E+00 0.  1.
     999901    1    3    3    0    0 -0.49673166013E-01  0.11811735405E+00  0.70479120418E-01  0.89206862918E+00  0.88000000000E+00 0. -1.
        -11    1    4    4    0    0  0.78495907286E-02 -0.27464381299E-01 -0.24222671126E-01  0.37455403245E-01  0.51100000000E-03 0.  1.
         11    1    4    4    0    0  0.25475880531E-01 -0.80435016630E-01 -0.31250909007E-01  0.89976068062E-01  0.51100000000E-03 0. -1.
</event>
<event>
 8    1  0.1109294E+005  0.1043930E+01  0.7957747E-01            NaN
         13   -1    0    0    0    0  0.00000000000E+00  0.00000000000E+00  0.74505805969E-08  0.10566000000E+00  0.10566000000E+00 0. -1.
     999900   -1    0    0    0    0 -0.00000000000E+00 -0.00000000000E+00 -0.74505805969E-08  0.93827000000E+00  0.93827000000E+00 0.  1.
     999902    2    1    2    0    0 -0.11053724912E-01 -0.17518525089E-01  0.89886013442E-02  0.10213495104E+01  0.10210998697E+01 0.  0.
     999903    2    3    3    0    0  0.61725812994E-01 -0.72184004528E-01 -0.88407185975E-01  0.13130955897E+00  0.20143565864E-01 0.  0.
         14    1    1    2    0    0  0.11053724912E-01  0.17518525089E-01 -0.89886013442E-02  0.22580489584E-01  0.00000000000E+00 0.  1.
     999901    1    3    3    0    0 -0.72779537906E-01  0.54665479439E-01  0.97395787319E-01  0.89003995144E+00  0.88000000000E+00 0. -1.
        -11    1    4    4    0    0  0.28274371018E-01 -0.24287467318E-01 -0.23914738600E-01  0.44288790551E-01  0.51100000000E-03 0. -1.
         11    1    4    4    0    0  0.33451441976E-01 -0.47896537211E-01 -0.64492447375E-01  0.87020768420E-01  0.51100000000E-03 0.  1.
</event>
<event>
 7    1  0.1109294E+005  0.1043930E+01  0.7957747E-01            NaN
         13   -1    0    0    0    0  0.00000000000E+00  0.00000000000E+00  0.74505805969E-08  0.10566000000E+00  0.10566000000E+00 0.  1.
     999900   -1    0    0    0    0 -0.00000000000E+00 -0.00000000000E+00 -0.74505805969E-08  0.93827000000E+00  0.93827000000E+00 0.  1.
     999902    2    1    2    0    0 -0.21093061592E-01  0.49402127695E-02 -0.95171368793E-02  0.10202678183E+01  0.10199933932E+01 0.  0.
         14    1    1    2    0    0  0.21093061592E-01 -0.49402127695E-02  0.95171368793E-02  0.23662181724E-01  0.00000000000E+00 0.  1.
     999901    1    3    3    0    0 -0.93872038308E-01  0.82810995749E-01  0.41391041130E-01  0.88982180176E+00  0.88000000000E+00 0.  1.
        -11    1    3    3    0    0  0.47501894787E-01 -0.14369566075E-01 -0.94979692323E-02  0.50531049643E-01  0.51100000000E-03 0.  1.
         11    1    3    3    0    0  0.25277081929E-01 -0.63501216904E-01 -0.41410208777E-01  0.79914966878E-01  0.51100000000E-03 0. -1.
</event>
<event>
 8    1  0.1109294E+005  0.1043930E+01  0.7957747E-01            NaN
         13   -1    0    0    0    0  0.00000000000E+00  0.00000000000E+00  0.74505805969E-08  0.10566000000E+00  0.10566000000E+00 0.  1.
     999900   -1    0    0    0    0 -0.00000000000E+00 -0.00000000000E+00 -0.74505805969E-08  0.93827000000E+00  0.93827000000E+00 0. -1.
     999902    2    1    2    0    0  0.20709515606E-01 -0.73963717280E-02 -0.51446139724E-02  0.10213455495E+01  0.10210958202E+01 0.  0.
     999903    2    3    3    0    0 -0.96223560128E-01 -0.84830265561E-01 -0.61692689480E-02  0.13023926963E+00  0.21657792934E-01 0.  0.
         14    1    1    2    0    0 -0.20709515606E-01  0.73963717280E-02  0.51446139724E-02  0.22584450498E-01  0.00000000000E+00 0. -1.
     999901    1    3    3    0    0  0.11693307573E+00  0.77433893833E-01  0.10246549756E-02  0.89110627987E+00  0.88000000000E+00 0.  1.
        -11    1    4    4    0    0 -0.12647542521E-01 -0.38472935654E-02  0.27827387349E-02  0.13519125544E-01  0.51100000000E-03 0. -1.
         11    1    4    4    0    0 -0.83576017607E-01 -0.80982971995E-01 -0.89520076829E-02  0.11672014408E+00  0.51100000000E-03 0.  1.
</event>
<event>
 8    1  0.1109294E+005  0.1043930E+01  0.7957747E-01            NaN
         13   -1    0    0    0    0  0.00000000000E+00  0.00000000000E+00  0.74505805969E-08  0.10566000000E+00  0.10566000000E+00 0. -1.
     999900   -1    0    0    0    0 -0.00000000000E+00 -0.00000000000E+00 -0.74505805969E-08  0.93827000000E+00  0.93827000000E+00 0. -1.
     999902    2    1    2    0    0 -0.91722642767E-03  0.67129973690E-02 -0.22658867970E-01  0.10202798428E+01  0.10200056998E+01 0.  0.
     999903    2    3    3    0    0 -0.32315235277E-01  0.12531078344E+00  0.72853577882E-02  0.13126469868E+00  0.20743138703E-01 0.  0.
         14    1    1    2    0    0  0.91722642767E-03 -0.67129973690E-02  0.22658867970E-01  0.23650157202E-01  0.00000000000E+00 0. -1.
     999901    1    3    3    0    0  0.31398008849E-01 -0.11859778607E+00 -0.29944225758E-01  0.88901514412E+00  0.88000000000E+00 0. -1.
        -11    1    4    4    0    0 -0.29083095840E-01  0.72283261606E-01  0.53885565556E-02  0.78102458571E-01  0.51100000000E-03 0.  1.
         11    1    4    4    0    0 -0.32321394376E-02  0.53027521834E-01  0.18968012327E-02  0.53162240106E-01  0.51100000000E-03 0. -1.
</event>
<event>
 8    1  0.1109294E+005  0.1043930E+01  0.7957747E-01            NaN
         13   -1    0    0    0    0  0.00000000000E+00  0.00000000000E+00  0.74505805969E-08  0.10566000000E+00  0.10566000000E+00 0.  1.
     999900   -1    0    0    0    0 -0.00000000000E+00 -0.00000000000E+00 -0.74505805969E-08  0.93827000000E+00  0.93827000000E+00 0. -1.
     999902    2    1    2    0    0  0.65170601905E-02 -0.18851690953E-01  0.16401369063E-01  0.10181063048E+01  0.10177787504E+01 0.  0.
     999903    2    3    3    0    0  0.23830719457E-02 -0.11680552182E+00  0.57312907995E-01  0.13171711443E+00  0.20381850973E-01 0.  0.
         14    1    1    2    0    0 -0.65170601905E-02  0.18851690953E-01 -0.16401369063E-01  0.25823695174E-01  0.00000000000E+00 0. -1.
     999901    1    3    3    0    0  0.41339882448E-02  0.97953830872E-01 -0.40911538932E-01  0.88638919040E+00  0.88000000000E+00 0. -1.
        -11    1    4    4    0    0  0.21599723754E-02 -0.78392436190E-01  0.27558893268E-01  0.83125166176E-01  0.51100000000E-03 0. -1.
         11    1    4    4    0    0  0.22309957025E-03 -0.38413085634E-01  0.29754014726E-01  0.48591948250E-01  0.51100000000E-03 0.  1.
</event>
<event>
 8    1  0.1109294E+005  0.1043930E+01  0.7957747E-01            NaN
         13   -1    0    0    0    0  0.00000000000E+00  0.00000000000E+00  0.74505805969E-08  0.10566000000E+00  0.10566000000E+00 0.  1.
     999900   -1    0    0    0    0 -0.00000000000E+00 -0.00000000000E+00 -0.74505805969E-08  0.93827000000E+00  0.93827000000E+00 0. -1.
     999902    2    1    2    0    0 -0.18698399925E-01 -0.14396754685E-02 -0.19224574875E-01  0.10170732112E+01  0.10167185598E+01 0.  0.
     999903    2    3    3    0    0 -0.93792323687E-01  0.79853602197E-01  0.31306707494E-01  0.12870329677E+00  0.20268963926E-01 0.  0.
         14    1    1    2    0    0  0.18698399925E-01  0.14396754685E-02  0.19224574875E-01  0.26856788794E-01  0.00000000000E+00 0.  1.
     999901    1    3    3    0    0  0.75093923761E-01 -0.81293277665E-01 -0.50531282369E-01  0.88836991444E+00  0.88000000000E+00 0. -1.
        -11    1    4    4    0    0 -0.56349168481E-01  0.54196145072E-01  0.10922309011E-01  0.78943073694E-01  0.51100000000E-03 0.  1.
         11    1    4    4    0    0 -0.37443155206E-01  0.25657457124E-01  0.20384398483E-01  0.49760223074E-01  0.51100000000E-03 0. -1.
</event>
<event>
 8    1  0.1109294E+005  0.1043930E+01  0.7957747E-01            NaN
         13   -1    0    0    0    0  0.00000000000E+00  0.00000000000E+00  0.74505805969E-08  0.10566000000E+00  0.10566000000E+00 0. -1.
     999900   -1    0    0    0    0 -0.00000000000E+00 -0.00000000000E+00 -0.74505805969E-08  0.93827000000E+00  0.93827000000E+00 0. -1.
     999902    2    1    2    0    0  0.99853559514E-02  0.16093461750E-01 -0.12780222033E-01  0.10210817852E+01  0.10208261219E+01 0.  0.
     999903    2    3    3    0    0 -0.84789923574E-02  0.49754369452E-01  0.11867446327E+00  0.13048966579E+00  0.19913162819E-01 0.  0.
         14    1    1    2    0    0 -0.99853559514E-02 -0.16093461750E-01  0.12780222033E-01  0.22848214806E-01  0.00000000000E+00 0. -1.
     999901    1    3    3    0    0  0.18464348309E-01 -0.33660907702E-01 -0.13145468530E+00  0.89059211941E+00  0.88000000000E+00 0. -1.
        -11    1    4    4    0    0  0.41895819471E-02  0.31917593371E-01  0.75770290164E-01  0.82326686780E-01  0.51100000000E-03 0.  1.
         11    1    4    4    0    0 -0.12668574304E-01  0.17836776081E-01  0.42904173105E-01  0.48162979006E-01  0.51100000000E-03 0. -1.
</event>
<event>
 8    1  0.1109294E+005  0.1043930E+01  0.7957747E-01            NaN
         13   -1    0    0    0    0  0.00000000000E+00  0.00000000000E+00  0.74505805969E-08  0.10566000000E+00  0.10566000000E+00 0.  1.
     999900   -1    0    0    0    0 -0.00000000000E+00 -0.00000000000E+00 -0.74505805969E-08  0.93827000000E+00  0.93827000000E+00 0.  1.
     999902    2    1    2    0    0 -0.19652616004E-01  0.62764164689E-02 -0.10943210995E-01  0.10205767864E+01  0.10203095630E+01 0.  0.
     999903    2    3    3    0    0  0.94407219794E-02 -0.63382974630E-01  0.11079979536E+00  0.12899380500E+00  0.16008696819E-01 0.  0.
         14    1    1    2    0    0  0.19652616004E-01 -0.62764164689E-02  0.10943210995E-01  0.23353213620E-01  0.00000000000E+00 0. -1.
     999901    1    3    3    0    0 -0.29093337983E-01  0.69659391099E-01 -0.12174300635E+00  0.89158298138E+00  0.88000000000E+00 0. -1.
        -11    1    4    4    0    0  0.11962244830E-01 -0.61917534537E-01  0.10654352054E+00  0.12380896282E+00  0.51100000000E-03 0.  1.
         11    1    4    4    0    0 -0.25215228511E-02 -0.14654400925E-02  0.42562748183E-02  0.51848421849E-02  0.51100000000E-03 0. -1.
</event>
<event>
 8    1  0.1109294E+005  0.1043930E+01  0.7957747E-01            NaN
         13   -1    0    0    0    0  0.00000000000E+00  0.00000000000E+00  0.74505805969E-08  0.10566000000E+00  0.10566000000E+00 0.  1.
     999900   -1    0    0    0    0 -0.00000000000E+00 -0.00000000000E+00 -0.74505805969E-08  0.93827000000E+00  0.93827000000E+00 0.  1.
     999902    2    1    2    0    0 -0.16894092595E-01  0.13775070269E-01  0.14232492664E-01  0.10178968140E+01  0.10175638541E+01 0.  0.
     999903    2    3    3    0    0  0.44177331860E-01  0.77934116311E-01 -0.88557788273E-01  0.12749693534E+00  0.19688156895E-01 0.  0.
         14    1    1    2    0    0  0.16894092595E-01 -0.13775070269E-01 -0.14232492664E-01  0.26033185993E-01  0.00000000000E+00 0. -1.
     999901    1    3    3    0    0 -0.61071424455E-01 -0.64159046042E-01  0.10279028094E+00  0.89039987867E+00  0.88000000000E+00 0. -1.
        -11    1    4    4    0    0  0.15166567133E-01  0.42088464748E-01 -0.34889833205E-01  0.56736453939E-01  0.51100000000E-03 0. -1.
         11    1    4    4    0    0  0.29010764727E-01  0.35845651563E-01 -0.53667955068E-01  0.70760481402E-01  0.51100000000E-03 0.  1.
</event>
<event>
 8    1  0.1109294E+005  0.1043930E+01  0.7957747E-01            NaN
         13   -1    0    0    0    0  0.00000000000E+00  0.00000000000E+00  0.74505805969E-08  0.10566000000E+00  0.10566000000E+00 0.  1.
     999900   -1    0    0    0    0 -0.00000000000E+00 -0.00000000000E+00 -0.74505805969E-08  0.93827000000E+00  0.93827000000E+00 0. -1.
     999902    2    1    2    0    0  0.10910014801E-01 -0.12906740072E-01 -0.16976610216E-01  0.10199755086E+01  0.10196941799E+01 0.  0.
     999903    2    3    3    0    0  0.39736263589E-01  0.11029268035E+00 -0.53087967370E-01  0.13019290601E+00  0.19708234670E-01 0.  0.
         14    1    1    2    0    0 -0.10910014801E-01  0.12906740072E-01  0.16976610216E-01  0.23954491367E-01  0.00000000000E+00 0.  1.
     999901    1    3    3    0    0 -0.28826248789E-01 -0.12319942042E+00  0.36111357155E-01  0.88978260262E+00  0.88000000000E+00 0.  1.
        -11    1    4    4    0    0  0.23063905278E-01  0.71051427717E-01 -0.23568656702E-01  0.78332571814E-01  0.51100000000E-03 0. -1.
         11    1    4    4    0    0  0.16672358312E-01  0.39241252632E-01 -0.29519310669E-01  0.51860334198E-01  0.51100000000E-03 0.  1.
</event>
<event>
 8    1  0.1109294E+005  0.1043930E+01  0.7957747E-01            NaN
         13   -1    0    0    0    0  0.00000000000E+00  0.00000000000E+00  0.74505805969E-08  0.10566000000E+00  0.10566000000E+00 0. -1.
     999900   -1    0    0    0    0 -0.00000000000E+00 -0.00000000000E+00 -0.74505805969E-08  0.93827000000E+00  0.93827000000E+00 0. -1.
     999902    2    1    2    0    0  0.24462419502E-01  0.34039536172E-02  0.10772355200E-01  0.10169848612E+01  0.10166278412E+01 0.  0.
     999903    2    3    3    0    0 -0.18825653089E-01  0.67562158826E-01 -0.10331423023E+00  0.12625152204E+00  0.18616286687E-01 0.  0.
         14    1    1    2    0    0 -0.24462419502E-01 -0.34039536172E-02 -0.10772355200E-01  0.26945138795E-01  0.00000000000E+00 0.  1.
     999901    1    3    3    0    0  0.43288072592E-01 -0.64158205209E-01  0.11408658543E+00  0.89073333916E+00  0.88000000000E+00 0.  1.
        -11    1    4    4    0    0 -0.79892808475E-02  0.11090360043E-01 -0.30825670312E-01  0.33723993914E-01  0.51100000000E-03 0.  1.
         11    1    4    4    0    0 -0.10836372242E-01  0.56471798783E-01 -0.72488559917E-01  0.92527528126E-01  0.51100000000E-03 0. -1.
</event>
<event>
 8    1  0.1109294E+005  0.1043930E+01  0.7957747E-01            NaN
         13   -1    0    0    0    0  0.00000000000E+00  0.00000000000E+00  0.74505805969E-08  0.10566000000E+00  0.10566000000E+00 0.  1.
     999900   -1    0    0    0    0 -0.00000000000E+00 -0.00000000000E+00 -0.74505805969E-08  0.93827000000E+00  0.93827000000E+00 0. -1.
     999902    2    1    2    0    0  0.59602558132E-03  0.16349006533E-01  0.18565813917E-01  0.10191846023E+01  0.10188841538E+01 0.  0.
     999903    2    3    3    0    0 -0.24912090333E-01 -0.10287845060E+00  0.71417891497E-01  0.12920752809E+00  0.19735304554E-01 0.  0.
         14    1    1    2    0    0 -0.59602558132E-03 -0.16349006533E-01 -0.18565813917E-01  0.24745397704E-01  0.00000000000E+00 0.  1.
     999901    1    3    3    0    0  0.25508115915E-01  0.11922745713E+00 -0.52852077580E-01  0.88997707421E+00  0.88000000000E+00 0. -1.
        -11    1    4    4    0    0  0.18699998034E-03 -0.38341230671E-01  0.27893773496E-01  0.47417387730E-01  0.51100000000E-03 0.  1.
         11    1    4    4    0    0 -0.25099090314E-01 -0.64537219931E-01  0.43524118001E-01  0.81790140358E-01  0.51100000000E-03 0. -1.
</event>
<event>
 8    1  0.1109294E+005  0.1043930E+01  0.7957747E-01            NaN
         13   -1    0    0    0    0  0.00000000000E+00  0.00000000000E+00  0.74505805969E-08  0.10566000000E+00  0.10566000000E+00 0. -1.
     999900   -1    0    0    0    0 -0.00000000000E+00 -0.00000000000E+00 -0.74505805969E-08  0.93827000000E+00  0.93827000000E+00 0.  1.
     999902    2    1    2    0    0  0.92893528964E-02 -0.13826290203E-01  0.16712422892E-01  0.10203341644E+01  0.10200612940E+01 0.  0.
     999903    2    3    3    0    0  0.10224302720E+00  0.78089502010E-01  0.10581363271E-01  0.13065642033E+00  0.20187322521E-01 0.  0.
         14    1    1    2    0    0 -0.92893528964E-02  0.13826290203E-01 -0.16712422892E-01  0.23595835585E-01  0.00000000000E+00 0.  1.
     999901    1    3    3    0    0 -0.92953674302E-01 -0.91915792213E-01  0.61310596210E-02  0.88967774408E+00  0.88000000000E+00 0.  1.
        -11    1    4    4    0    0  0.95967957047E-01  0.66875880656E-01  0.64536367490E-02  0.11715008639E+00  0.51100000000E-03 0.  1.
         11    1    4    4    0    0  0.62750701510E-02  0.11213621354E-01  0.41277265223E-02  0.13506333940E-01  0.51100000000E-03 0. -1.
</event>
<event>
 8    1  0.1109294E+005  0.1043930E+01  0.7957747E-01            NaN
         13   -1    0    0    0    0  0.00000000000E+00  0.00000000000E+00  0.74505805969E-08  0.10566000000E+00  0.10566000000E+00 0.  1.
     999900   -1    0    0    0    0 -0.00000000000E+00 -0.00000000000E+00 -0.74505805969E-08  0.93827000000E+00  0.93827000000E+00 0. -1.
     999902    2    1    2    0    0  0.21059163184E-01 -0.12471686615E-01 -0.19148311259E-02  0.10193800937E+01  0.10190844310E+01 0.  0.
     999903    2    3    3    0    0  0.61926495810E-01 -0.64093322212E-01  0.94566419334E-01  0.13166191555E+00  0.21194515892E-01 0.  0.
         14    1    1    2    0    0 -0.21059163184E-01  0.12471686615E-01  0.19148311259E-02  0.24549906299E-01  0.00000000000E+00 0.  1.
     999901    1    3    3    0    0 -0.40867332627E-01  0.51621635597E-01 -0.96481250460E-01  0.88771817816E+00  0.88000000000E+00 0.  1.
        -11    1    4    4    0    0  0.17375492874E-01 -0.28200681008E-01  0.45552057067E-01  0.56324392460E-01  0.51100000000E-03 0. -1.
         11    1    4    4    0    0  0.44551002936E-01 -0.35892641204E-01  0.49014362267E-01  0.75337523086E-01  0.51100000000E-03 0.  1.
</event>
<event>
 8    1  0.1109294E+005  0.1043930E+01  0.7957747E-01            NaN
         13   -1    0    0    0    0  0.00000000000E+00  0.00000000000E+00  0.74505805969E-08  0.10566000000E+00  0.10566000000E+00 0. -1.
     999900   -1    0    0    0    0 -0.00000000000E+00 -0.00000000000E+00 -0.74505805969E-08  0.93827000000E+00  0.93827000000E+00 0. -1.
     999902    2    1    2    0    0  0.16234103215E-01  0.16214879046E-01 -0.57469380242E-02  0.10202763384E+01  0.10200021132E+01 0.  0.
     999903    2    3    3    0    0  0.11392451030E+00 -0.15786757186E-01 -0.62613514655E-01  0.13246930539E+00  0.19991220669E-01 0.  0.
         14    1    1    2    0    0 -0.16234103215E-01 -0.16214879046E-01  0.57469380242E-02  0.23653661584E-01  0.00000000000E+00 0. -1.
     999901    1    3    3    0    0 -0.97690407081E-01  0.32001636232E-01  0.56866576630E-01  0.88780703303E+00  0.88000000000E+00 0.  1.
        -11    1    4    4    0    0  0.71653424836E-01 -0.16804307796E-02 -0.44484578688E-01  0.84357430025E-01  0.51100000000E-03 0. -1.
         11    1    4    4    0    0  0.42271085460E-01 -0.14106326406E-01 -0.18128935966E-01  0.48111875363E-01  0.51100000000E-03 0.  1.
</event>
<event>
 8    1  0.1109294E+005  0.1043930E+01  0.7957747E-01            NaN
         13   -1    0    0    0    0  0.00000000000E+00  0.00000000000E+00  0.74505805969E-08  0.10566000000E+00  0.10566000000E+00 0. -1.
     999900   -1    0    0    0    0 -0.00000000000E+00 -0.00000000000E+00 -0.74505805969E-08  0.93827000000E+00  0.93827000000E+00 0.  1.
     999902    2    1    2    0    0  0.51751135011E-03  0.13780975870E-01 -0.18196243846E-01  0.10210983026E+01  0.10208430130E+01 0.  0.
     999903    2    3    3    0    0  0.34749265773E-02 -0.10869575163E+00 -0.70390202124E-01  0.13107948017E+00  0.20005200064E-01 0.  0.
         14    1    1    2    0    0 -0.51751135011E-03 -0.13780975870E-01  0.18196243846E-01  0.22831697353E-01  0.00000000000E+00 0. -1.
     999901    1    3    3    0    0 -0.29574152272E-02  0.12247672750E+00  0.52193958278E-01  0.89001882248E+00  0.88000000000E+00 0.  1.
        -11    1    4    4    0    0  0.99615281408E-02 -0.90696275070E-01 -0.55167013478E-01  0.10662413822E+00  0.51100000000E-03 0.  1.
         11    1    4    4    0    0 -0.64866015635E-02 -0.17999476559E-01 -0.15223188645E-01  0.24455341948E-01  0.51100000000E-03 0. -1.
</event>
<event>
 8    1  0.1109294E+005  0.1043930E+01  0.7957747E-01            NaN
         13   -1    0    0    0    0  0.00000000000E+00  0.00000000000E+00  0.74505805969E-08  0.10566000000E+00  0.10566000000E+00 0. -1.
     999900   -1    0    0    0    0 -0.00000000000E+00 -0.00000000000E+00 -0.74505805969E-08  0.93827000000E+00  0.93827000000E+00 0. -1.
     999902    2    1    2    0    0  0.11407859600E-02  0.23424234002E-01  0.42512094634E-02  0.10200958037E+01  0.10198173267E+01 0.  0.
     999903    2    3    3    0    0  0.12273302871E+00  0.39272882182E-01  0.17692357823E-01  0.13149211385E+00  0.19271763525E-01 0.  0.
         14    1    1    2    0    0 -0.11407859600E-02 -0.23424234002E-01 -0.42512094634E-02  0.23834196296E-01  0.00000000000E+00 0. -1.
     999901    1    3    3    0    0 -0.12159224275E+00 -0.15848648180E-01 -0.13441148359E-01  0.88860368985E+00  0.88000000000E+00 0.  1.
        -11    1    4    4    0    0  0.37130210766E-01  0.12632567590E-01 -0.34625937735E-02  0.39376198293E-01  0.51100000000E-03 0. -1.
         11    1    4    4    0    0  0.85602817943E-01  0.26640314593E-01  0.21154951596E-01  0.92115915560E-01  0.51100000000E-03 0.  1.
</event>
<event>
 8    1  0.1109294E+005  0.1043930E+01  0.7957747E-01            NaN
         13   -1    0    0    0    0  0.00000000000E+00  0.00000000000E+00  0.74505805969E-08  0.10566000000E+00  0.10566000000E+00 0. -1.
     999900   -1    0    0    0    0 -0.00000000000E+00 -0.00000000000E+00 -0.74505805969E-08  0.93827000000E+00  0.93827000000E+00 0.  1.
     999902    2    1    2    0    0  0.11506957144E-01  0.16404638262E-01 -0.11516852307E-01  0.10208180960E+01  0.10205564291E+01 0.  0.
     999903    2    3    3    0    0  0.12073123122E+00  0.23991760234E-02 -0.52004316998E-01  0.13303133680E+00  0.20275634322E-01 0.  0.
         14    1    1    2    0    0 -0.11506957144E-01 -0.16404638262E-01  0.11516852307E-01  0.23111903995E-01  0.00000000000E+00 0. -1.
     999901    1    3    3    0    0 -0.10922427408E+00  0.14005462239E-01  0.40487464691E-01  0.88778675920E+00  0.88000000000E+00 0.  1.
        -11    1    4    4    0    0  0.43711161886E-01  0.94765347794E-02 -0.14118584791E-01  0.46904860541E-01  0.51100000000E-03 0.  1.
         11    1    4    4    0    0  0.77020069334E-01 -0.70773587560E-02 -0.37885732206E-01  0.86126476260E-01  0.51100000000E-03 0. -1.
</event>
<event>
 8    1  0.1109294E+005  0.1043930E+01  0.7957747E-01            NaN
         13   -1    0    0    0    0  0.00000000000E+00  0.00000000000E+00  0.74505805969E-08  0.10566000000E+00  0.10566000000E+00 0.  1.
     999900   -1    0    0    0    0 -0.00000000000E+00 -0.00000000000E+00 -0.74505805969E-08  0.93827000000E+00  0.93827000000E+00 0.  1.
     999902    2    1    2    0    0 -0.41533416272E-02  0.19996751119E-01 -0.10440094957E-01  0.10209927839E+01  0.10207351022E+01 0.  0.
     999903    2    3    3    0    0  0.12787045500E+00 -0.87100947740E-02 -0.13410891051E-01  0.13067644035E+00  0.21673971755E-01 0.  0.
         14    1    1    2    0    0  0.41533416272E-02 -0.19996751119E-01  0.10440094957E-01  0.22937216150E-01  0.00000000000E+00 0. -1.
     999901    1    3    3    0    0 -0.13202379662E+00  0.28706845893E-01  0.29707960935E-02  0.89031634350E+00  0.88000000000E+00 0.  1.
        -11    1    4    4    0    0  0.87548974650E-01 -0.10641563700E-01 -0.18752811690E-03  0.88195023261E-01  0.51100000000E-03 0. -1.
         11    1    4    4    0    0  0.40321480346E-01  0.19314689259E-02 -0.13223362934E-01  0.42481417088E-01  0.51100000000E-03 0.  1.
</event>
<event>
 8    1  0.1109294E+005  0.1043930E+01  0.7957747E-01            NaN
         13   -1    0    0    0    0  0.00000000000E+00  0.00000000000E+00  0.74505805969E-08  0.10566000000E+00  0.10566000000E+00 0.  1.
     999900   -1    0    0    0    0 -0.00000000000E+00 -0.00000000000E+00 -0.74505805969E-08  0.93827000000E+00  0.93827000000E+00 0. -1.
     999902    2    1    2    0    0 -0.66371012756E-02 -0.13565582615E-01 -0.22275411624E-01  0.10170177331E+01  0.10166615953E+01 0.  0.
     999903    2    3    3    0    0 -0.51109508871E-01  0.10930948911E+00  0.29629633808E-01  0.12585545160E+00  0.20023316161E-01 0.  0.
         14    1    1    2    0    0  0.66371012756E-02  0.13565582615E-01  0.22275411624E-01  0.26912266869E-01  0.00000000000E+00 0.  1.
     999901    1    3    3    0    0  0.44472407595E-01 -0.12287507173E+00 -0.51905045432E-01  0.89116228153E+00  0.88000000000E+00 0. -1.
        -11    1    4    4    0    0 -0.27014207343E-01  0.49278541222E-01  0.42273655187E-02  0.56358440038E-01  0.51100000000E-03 0.  1.
         11    1    4    4    0    0 -0.24095301528E-01  0.60030947889E-01  0.25402268290E-01  0.69497011557E-01  0.51100000000E-03 0. -1.
</event>
<event>
 8    1  0.1109294E+005  0.1043930E+01  0.7957747E-01            NaN
         13   -1    0    0    0    0  0.00000000000E+00  0.00000000000E+00  0.74505805969E-08  0.10566000000E+00  0.10566000000E+00 0. -1.
     999900   -1    0    0    0    0 -0.00000000000E+00 -0.00000000000E+00 -0.74505805969E-08  0.93827000000E+00  0.93827000000E+00 0.  1.
     999902    2    1    2    0    0 -0.74567693389E-02 -0.19036834802E-01  0.11610144452E-01  0.10204183020E+01  0.10201473968E+01 0.  0.
     999903    2    3    3    0    0  0.26923793718E-01 -0.12745085649E+00  0.16203308052E-01  0.13308706714E+00  0.21931911939E-01 0.  0.
         14    1    1    2    0    0  0.74567693389E-02  0.19036834802E-01 -0.11610144452E-01  0.23511697991E-01  0.00000000000E+00 0.  1.
     999901    1    3    3    0    0 -0.34380563057E-01  0.10841402169E+00 -0.45931636004E-02  0.88733123486E+00  0.88000000000E+00 0.  1.
        -11    1    4    4    0    0  0.10527369089E-01 -0.94624344592E-01  0.84839448983E-02  0.95586769646E-01  0.51100000000E-03 0.  1.
         11    1    4    4    0    0  0.16396424629E-01 -0.32826511897E-01  0.77193631539E-02  0.37500297498E-01  0.51100000000E-03 0. -1.
</event>
<event>
 8    1  0.1109294E+005  0.1043930E+01  0.7957747E-01            NaN
         13   -1    0    0    0    0  0.00000000000E+00  0.00000000000E+00  0.74505805969E-08  0.10566000000E+00  0.10566000000E+00 0. -1.
     999900   -1    0    0    0    0 -0.00000000000E+00 -0.00000000000E+00 -0.74505805969E-08  0.93827000000E+00  0.93827000000E+00 0. -1.
     999902    2    1    2    0    0  0.11274721504E-01 -0.17742196333E-01  0.10682190480E-01  0.10203500494E+01  0.10200775506E+01 0.  0.
     999903    2    3    3    0    0 -0.45311530455E-02  0.68170840548E-01 -0.10695303245E+00  0.12823519065E+00  0.18371666287E-01 0.  0.
         14    1    1    2    0    0 -0.11274721504E-01  0.17742196333E-01 -0.10682190480E-01  0.23579950576E-01  0.00000000000E+00 0.  1.
     999901    1    3    3    0    0  0.15805874549E-01 -0.85913036882E-01  0.11763522293E+00  0.89211485878E+00  0.88000000000E+00 0.  1.
        -11    1    4    4    0    0  0.43458652152E-02  0.52575616911E-01 -0.81620329629E-01  0.97186528736E-01  0.51100000000E-03 0. -1.
         11    1    4    4    0    0 -0.88770182606E-02  0.15595223637E-01 -0.25332702816E-01  0.31048661911E-01  0.51100000000E-03 0.  1.
</event>
<event>
 8    1  0.1109294E+005  0.1043930E+01  0.7957747E-01            NaN
         13   -1    0    0    0    0  0.00000000000E+00  0.00000000000E+00  0.74505805969E-08  0.10566000000E+00  0.10566000000E+00 0.  1.
     999900   -1    0    0    0    0 -0.00000000000E+00 -0.00000000000E+00 -0.74505805969E-08  0.93827000000E+00  0.93827000000E+00 0.  1.
     999902    2    1    2    0    0 -0.39662120070E-02 -0.55497631066E-02 -0.23975937986E-01  0.10190025791E+01  0.10186976391E+01 0.  0.
     999903    2    3    3    0    0 -0.10677114390E+00  0.60024395904E-01  0.34736041179E-01  0.12865662343E+00  0.18518340203E-01 0.  0.
         14    1    1    2    0    0  0.39662120070E-02  0.55497631066E-02  0.23975937986E-01  0.24927420856E-01  0.00000000000E+00 0.  1.
     999901    1    3    3    0    0  0.10280493189E+00 -0.65574159010E-01 -0.58711979164E-01  0.89034595571E+00  0.88000000000E+00 0.  1.
        -11    1    4    4    0    0 -0.68615747499E-01  0.32240703948E-01  0.28723062183E-01  0.81073171999E-01  0.51100000000E-03 0.  1.
         11    1    4    4    0    0 -0.38155396400E-01  0.27783691955E-01  0.60129789959E-02  0.47583451435E-01  0.51100000000E-03 0. -1.
</event>
<event>
 8    1  0.1109294E+005  0.1043930E+01  0.7957747E-01            NaN
         13   -1    0    0    0    0  0.00000000000E+00  0.00000000000E+00  0.74505805969E-08  0.10566000000E+00  0.10566000000E+00 0.  1.
     999900   -1    0    0    0    0 -0.00000000000E+00 -0.00000000000E+00 -0.74505805969E-08  0.93827000000E+00  0.93827000000E+00 0. -1.
     999902    2    1    2    0    0  0.83840636753E-02 -0.60546662116E-02 -0.60656934216E-02  0.10319406654E+01  0.10318710156E+01 0.  0.
     999903    2    3    3    0    0  0.13147314226E+00  0.12517262789E-01  0.47239172446E-01  0.14158273374E+00  0.19294094338E-01 0.  0.
         14    1    1    2    0    0 -0.83840636753E-02  0.60546662116E-02  0.60656934216E-02  0.11989334566E-01  0.00000000000E+00 0.  1.
     999901    1    3    3    0    0 -0.12308907858E+00 -0.18571929001E-01 -0.53304865867E-01  0.89035793170E+00  0.88000000000E+00 0. -1.
        -11    1    4    4    0    0  0.41798800189E-01 -0.21587976931E-02  0.80556419214E-02  0.42625750345E-01  0.51100000000E-03 0. -1.
         11    1    4    4    0    0  0.89674342067E-01  0.14676060482E-01  0.39183530524E-01  0.98956983391E-01  0.51100000000E-03 0.  1.
</event>
<event>
 8    1  0.1109294E+005  0.1043930E+01  0.7957747E-01            NaN
         13   -1    0    0    0    0  0.00000000000E+00  0.00000000000E+00  0.74505805969E-08  0.10566000000E+00  0.10566000000E+00 0.  1.
     999900   -1    0    0    0    0 -0.00000000000E+00 -0.00000000000E+00 -0.74505805969E-08  0.93827000000E+00  0.93827000000E+00 0.  1.
     999902    2    1    2    0    0  0.95149262936E-04  0.13352149275E-01 -0.21923332928E-01  0.10182605343E+01  0.10179369304E+01 0.  0.
     999903    2    3    3    0    0  0.12343453984E+00 -0.26147856416E-01  0.10947009402E-01  0.12817440636E+00  0.19724234076E-01 0.  0.
         14    1    1    2    0    0 -0.95149262936E-04 -0.13352149275E-01  0.21923332928E-01  0.25669465719E-01  0.00000000000E+00 0.  1.
     999901    1    3    3    0    0 -0.12333939058E+00  0.39500005692E-01 -0.32870342330E-01  0.89008612792E+00  0.88000000000E+00 0. -1.
        -11    1    4    4    0    0  0.22753986441E-01  0.13463637921E-02 -0.25299604513E-02  0.22939451068E-01  0.51100000000E-03 0. -1.
         11    1    4    4    0    0  0.10068055340E+00 -0.27494220208E-01  0.13476969853E-01  0.10523495529E+00  0.51100000000E-03 0.  1.
</event>
<event>
 8    1  0.1109294E+005  0.1043930E+01  0.7957747E-01            NaN
         13   -1    0    0    0    0  0.00000000000E+00  0.00000000000E+00  0.74505805969E-08  0.10566000000E+00  0.10566000000E+00 0.  1.
     999900   -1    0    0    0    0 -0.00000000000E+00 -0.00000000000E+00 -0.74505805969E-08  0.93827000000E+00  0.93827000000E+00 0.  1.
     999902    2    1    2    0    0  0.13439117230E-01  0.17253696823E-01 -0.10214733020E-01  0.10197920486E+01  0.10195063422E+01 0.  0.
     999903    2    3    3    0    0  0.80847544175E-01 -0.70632625194E-01  0.69387025507E-01  0.12928413648E+00  0.19352919600E-01 0.  0.
         14    1    1    2    0    0 -0.13439117230E-01 -0.17253696823E-01  0.10214733020E-01  0.24137951377E-01  0.00000000000E+00 0.  1.
     999901    1    3    3    0    0 -0.67408426944E-01  0.87886322017E-01 -0.79601758527E-01  0.89050791214E+00  0.88000000000E+00 0.  1.
        -11    1    4    4    0    0  0.30392585193E-01 -0.33251195485E-01  0.38700275779E-01  0.59391276315E-01  0.51100000000E-03 0.  1.
         11    1    4    4    0    0  0.50454958981E-01 -0.37381429709E-01  0.30686749729E-01  0.69892860170E-01  0.51100000000E-03 0. -1.
</event>
<event>
 8    1  0.1109294E+005  0.1043930E+01  0.7957747E-01            NaN
         13   -1    0    0    0    0  0.00000000000E+00  0.00000000000E+00  0.74505805969E-08  0.10566000000E+00  0.10566000000E+00 0.  1.
     999900   -1    0    0    0    0 -0.00000000000E+00 -0.00000000000E+00 -0.74505805969E-08  0.93827000000E+00  0.93827000000E+00 0. -1.
     999902    2    1    2    0    0  0.16877167152E-01 -0.17042794573E-01  0.12334563252E-01  0.10169589587E+01  0.10166012427E+01 0.  0.
     999903    2    3    3    0    0 -0.17029104866E-01  0.43507638943E-01 -0.11423824463E+00  0.12519852788E+00  0.21009278633E-01 0.  0.
         14    1    1    2    0    0 -0.16877167152E-01  0.17042794573E-01 -0.12334563252E-01  0.26971041296E-01  0.00000000000E+00 0. -1.
     999901    1    3    3    0    0  0.33906272018E-01 -0.60550433516E-01  0.12657280788E+00  0.89176043082E+00  0.88000000000E+00 0.  1.
        -11    1    4    4    0    0 -0.90155522698E-02  0.32684894776E-01 -0.56381111323E-01  0.65792654334E-01  0.51100000000E-03 0.  1.
         11    1    4    4    0    0 -0.80135525964E-02  0.10822744167E-01 -0.57857133309E-01  0.59405873550E-01  0.51100000000E-03 0. -1.
</event>
<event>
 8    1  0.1109294E+005  0.1043930E+01  0.7957747E-01            NaN
         13   -1    0    0    0    0  0.00000000000E+00  0.00000000000E+00  0.74505805969E-08  0.10566000000E+00  0.10566000000E+00 0. -1.
     999900   -1    0    0    0    0 -0.00000000000E+00 -0.00000000000E+00 -0.74505805969E-08  0.93827000000E+00  0.93827000000E+00 0. -1.
     999902    2    1    2    0    0  0.39080835798E-02 -0.14309081140E-01  0.17952897563E-01  0.10206420320E+01  0.10203763169E+01 0.  0.
     999903    2    3    3    0    0 -0.17995835202E-01 -0.12428785981E+00 -0.34876243857E-01  0.13195421757E+00  0.20597110695E-01 0.  0.
         14    1    1    2    0    0 -0.39080835798E-02  0.14309081140E-01 -0.17952897563E-01  0.23287967950E-01  0.00000000000E+00 0.  1.
     999901    1    3    3    0    0  0.21903918782E-01  0.10997877867E+00  0.52829141420E-01  0.88868781448E+00  0.88000000000E+00 0.  1.
        -11    1    4    4    0    0 -0.45311060830E-03 -0.56529794967E-01 -0.85689395896E-02  0.57179636890E-01  0.51100000000E-03 0. -1.
         11    1    4    4    0    0 -0.17542724594E-01 -0.67758064843E-01 -0.26307304268E-01  0.74774580683E-01  0.51100000000E-03 0.  1.
</event>
<event>
 8    1  0.1109294E+005  0.1043930E+01  0.7957747E-01            NaN
         13   -1    0    0    0    0  0.00000000000E+00  0.00000000000E+00  0.74505805969E-08  0.10566000000E+00  0.10566000000E+00 0.  1.
     999900   -1    0    0    0    0 -0.00000000000E+00 -0.00000000000E+00 -0.74505805969E-08  0.93827000000E+00  0.93827000000E+00 0. -1.
     999902    2    1    2    0    0  0.23980000171E-01  0.14293294471E-02  0.20389522936E-02  0.10198210656E+01  0.10195360539E+01 0.  0.
     999903    2    3    3    0    0  0.60115781711E-01 -0.96614972480E-01  0.62946885628E-01  0.13154844069E+00  0.19857535570E-01 0.  0.
         14    1    1    2    0    0 -0.23980000171E-01 -0.14293294471E-02 -0.20389522936E-02  0.24108934388E-01  0.00000000000E+00 0.  1.
     999901    1    3    3    0    0 -0.36135781540E-01  0.98044301927E-01 -0.60907933335E-01  0.88827262492E+00  0.88000000000E+00 0.  1.
        -11    1    4    4    0    0  0.16414326495E-01 -0.43934556410E-01  0.22234660499E-01  0.51906806969E-01  0.51100000000E-03 0. -1.
         11    1    4    4    0    0  0.43701455216E-01 -0.52680416070E-01  0.40712225129E-01  0.79641633718E-01  0.51100000000E-03 0.  1.
</event>
<event>
 8    1  0.1109294E+005  0.1043930E+01  0.7957747E-01            NaN
         13   -1    0    0    0    0  0.00000000000E+00  0.00000000000E+00  0.74505805969E-08  0.10566000000E+00  0.10566000000E+00 0.  1.
     999900   -1    0    0    0    0 -0.00000000000E+00 -0.00000000000E+00 -0.74505805969E-08  0.93827000000E+00  0.93827000000E+00 0.  1.
     999902    2    1    2    0    0  0.21797205502E-01  0.13588631591E-02 -0.52570475765E-02  0.10214666693E+01  0.10212196411E+01 0.  0.
     999903    2    3    3    0    0  0.38812361137E-01 -0.12312493240E+00  0.20356815076E-01  0.13217380368E+00  0.19732361841E-01 0.  0.
         14    1    1    2    0    0 -0.21797205502E-01 -0.13588631591E-02  0.52570475765E-02  0.22463330697E-01  0.00000000000E+00 0.  1.
     999901    1    3    3    0    0 -0.17015155635E-01  0.12448379556E+00 -0.25613862653E-01  0.88929286562E+00  0.88000000000E+00 0.  1.
        -11    1    4    4    0    0  0.13230754049E-02 -0.29122161573E-01  0.78869116214E-02  0.30204557920E-01  0.51100000000E-03 0. -1.
         11    1    4    4    0    0  0.37489285732E-01 -0.94002770831E-01  0.12469903455E-01  0.10196924576E+00  0.51100000000E-03 0.  1.
</event>
<event>
 8    1  0.1109294E+005  0.1043930E+01  0.7957747E-01            NaN
         13   -1    0    0    0    0  0.00000000000E+00  0.00000000000E+00  0.74505805969E-08  0.10566000000E+00  0.10566000000E+00 0. -1.
     999900   -1    0    0    0    0 -0.00000000000E+00 -0.00000000000E+00 -0.74505805969E-08  0.93827000000E+00  0.93827000000E+00 0. -1.
     999902    2    1    2    0    0  0.37359442918E-02 -0.24019453860E-02 -0.23701848602E-01  0.10198156008E+01  0.10195304583E+01 0.  0.
     999903    2    3    3    0    0  0.31140449128E-01 -0.14176260227E-01  0.12097795317E+00  0.12750293900E+00  0.21228291855E-01 0.  0.
         14    1    1    2    0    0 -0.37359442918E-02  0.24019453860E-02  0.23701848602E-01  0.24114399195E-01  0.00000000000E+00 0. -1.
     999901    1    3    3    0    0 -0.27404504836E-01  0.11774314841E-01 -0.14467980177E+00  0.89231266180E+00  0.88000000000E+00 0. -1.
        -11    1    4    4    0    0  0.90408995083E-02  0.29738234006E-04  0.65427963420E-01  0.66051633337E-01  0.51100000000E-03 0.  1.
         11    1    4    4    0    0  0.22099549620E-01 -0.14205998461E-01  0.55549989749E-01  0.61451305664E-01  0.51100000000E-03 0. -1.
</event>
<event>
 8    1  0.1109294E+005  0.1043930E+01  0.7957747E-01            NaN
         13   -1    0    0    0    0  0.00000000000E+00  0.00000000000E+00  0.74505805969E-08  0.10566000000E+00  0.10566000000E+00 0. -1.
     999900   -1    0    0    0    0 -0.00000000000E+00 -0.00000000000E+00 -0.74505805969E-08  0.93827000000E+00  0.93827000000E+00 0.  1.
     999902    2    1    2    0    0 -0.96146850203E-02  0.21496313582E-01 -0.28869098526E-02  0.10202051625E+01  0.10199292650E+01 0.  0.
     999903    2    3    3    0    0  0.96597866341E-01  0.74800693979E-01 -0.43134716961E-01  0.13130564680E+00  0.21313786008E-01 0.  0.
         14    1    1    2    0    0  0.96146850203E-02 -0.21496313582E-01  0.28869098526E-02  0.23724837495E-01  0.00000000000E+00 0.  1.
     999901    1    3    3    0    0 -0.10621255136E+00 -0.53304380397E-01  0.40247807109E-01  0.88889951570E+00  0.88000000000E+00 0. -1.
        -11    1    4    4    0    0  0.53539098580E-01  0.54510090257E-01 -0.25828241828E-01  0.80654474231E-01  0.51100000000E-03 0. -1.
         11    1    4    4    0    0  0.43058767761E-01  0.20290603723E-01 -0.17306475133E-01  0.50651172574E-01  0.51100000000E-03 0.  1.
</event>
<event>
 8    1  0.1109294E+005  0.1043930E+01  0.7957747E-01            NaN
         13   -1    0    0    0    0  0.00000000000E+00  0.00000000000E+00  0.74505805969E-08  0.10566000000E+00  0.10566000000E+00 0. -1.
     999900   -1    0    0    0    0 -0.00000000000E+00 -0.00000000000E+00 -0.74505805969E-08  0.93827000000E+00  0.93827000000E+00 0.  1.
     999902    2    1    2    0    0 -0.69962396624E-02  0.98149406005E-02  0.20659170157E-01  0.10200117697E+01  0.10197313022E+01 0.  0.
     999903    2    3    3    0    0  0.85119844887E-01  0.32091842097E-02 -0.93101687342E-01  0.12789600270E+00  0.20827300950E-01 0.  0.
         14    1    1    2    0    0  0.69962396624E-02 -0.98149406005E-02 -0.20659170157E-01  0.23918230285E-01  0.00000000000E+00 0.  1.
     999901    1    3    3    0    0 -0.92116084550E-01  0.66057563908E-02  0.11376085750E+00  0.89211576701E+00  0.88000000000E+00 0. -1.
        -11    1    4    4    0    0  0.32175753816E-01  0.39501704118E-02 -0.50135625319E-01  0.59705318248E-01  0.51100000000E-03 0. -1.
         11    1    4    4    0    0  0.52944091071E-01 -0.74098620212E-03 -0.42966062023E-01  0.68190684456E-01  0.51100000000E-03 0.  1.
</event>
<event>
 8    1  0.1109294E+005  0.1043930E+01  0.7957747E-01            NaN
         13   -1    0    0    0    0  0.00000000000E+00  0.00000000000E+00  0.74505805969E-08  0.10566000000E+00  0.10566000000E+00 0. -1.
     999900   -1    0    0    0    0 -0.00000000000E+00 -0.00000000000E+00 -0.74505805969E-08  0.93827000000E+00  0.93827000000E+00 0.  1.
     999902    2    1    2    0    0 -0.53399114863E-02 -0.56982392408E-02  0.22726610575E-01  0.10198991154E+01  0.10196159680E+01 0.  0.
     999903    2    3    3    0    0 -0.97631802350E-01  0.60456696959E-01  0.61453214711E-01  0.13175835036E+00  0.19919444130E-01 0.  0.
         14    1    1    2    0    0  0.53399114863E-02  0.56982392408E-02 -0.22726610575E-01  0.24030884573E-01  0.00000000000E+00 0.  1.
     999901    1    3    3    0    0  0.92291890863E-01 -0.66154936199E-01 -0.38726604136E-01  0.88814076507E+00  0.88000000000E+00 0.  1.
        -11    1    4    4    0    0 -0.38307183719E-01  0.33707328267E-01  0.21341757790E-01  0.55311445922E-01  0.51100000000E-03 0. -1.
         11    1    4    4    0    0 -0.59324618631E-01  0.26749368691E-01  0.40111456922E-01  0.76446904440E-01  0.51100000000E-03 0.  1.
</event>
<event>
 8    1  0.1109294E+005  0.1043930E+01  0.7957747E-01            NaN
         13   -1    0    0    0    0  0.00000000000E+00  0.00000000000E+00  0.74505805969E-08  0.10566000000E+00  0.10566000000E+00 0.  1.
     999900   -1    0    0    0    0 -0.00000000000E+00 -0.00000000000E+00 -0.74505805969E-08  0.93827000000E+00  0.93827000000E+00 0.  1.
     999902    2    1    2    0    0  0.17655253507E-01 -0.14665813197E-01  0.46858954868E-02  0.10205045508E+01  0.10202356525E+01 0.  0.
     999903    2    3    3    0    0  0.69494176987E-01 -0.11201630498E-01 -0.10941097117E+00  0.13161908601E+00  0.19947582067E-01 0.  0.
         14    1    1    2    0    0 -0.17655253507E-01  0.14665813197E-01 -0.46858954868E-02  0.23425449188E-01  0.00000000000E+00 0.  1.
     999901    1    3    3    0    0 -0.51838923479E-01 -0.34641826989E-02  0.11409686665E+00  0.88888546480E+00  0.88000000000E+00 0. -1.
        -11    1    4    4    0    0  0.31508988471E-01 -0.20950269819E-02 -0.32285040142E-01  0.45164039129E-01  0.51100000000E-03 0. -1.
         11    1    4    4    0    0  0.37985188516E-01 -0.91066035159E-02 -0.77125931026E-01  0.86455046885E-01  0.51100000000E-03 0.  1.
</event>
<event>
 8    1  0.1109294E+005  0.1043930E+01  0.7957747E-01            NaN
         13   -1    0    0    0    0  0.00000000000E+00  0.00000000000E+00  0.74505805969E-08  0.10566000000E+00  0.10566000000E+00 0. -1.
     999900   -1    0    0    0    0 -0.00000000000E+00 -0.00000000000E+00 -0.74505805969E-08  0.93827000000E+00  0.93827000000E+00 0. -1.
     999902    2    1    2    0    0 -0.18653722853E-01  0.38933785005E-02  0.13132267350E-01  0.10207874803E+01  0.10205251118E+01 0.  0.
     999903    2    3    3    0    0 -0.12388263618E+00 -0.16805998392E-02 -0.43506587937E-01  0.13269280440E+00  0.19100397469E-01 0.  0.
         14    1    1    2    0    0  0.18653722853E-01 -0.38933785005E-02 -0.13132267350E-01  0.23142519702E-01  0.00000000000E+00 0.  1.
     999901    1    3    3    0    0  0.10522891332E+00  0.55739783397E-02  0.56638855287E-01  0.88809467590E+00  0.88000000000E+00 0.  1.
        -11    1    4    4    0    0 -0.51338458308E-01 -0.97319946764E-02 -0.15404194444E-01  0.54478430128E-01  0.51100000000E-03 0.  1.
         11    1    4    4    0    0 -0.72544177868E-01  0.80513948372E-02 -0.28102393493E-01  0.78214374269E-01  0.51100000000E-03 0. -1.
</event>
<event>
 8    1  0.1109294E+005  0.1043930E+01  0.7957747E-01            NaN
         13   -1    0    0    0    0  0.00000000000E+00  0.00000000000E+00  0.74505805969E-08  0.10566000000E+00  0.10566000000E+00 0. -1.
     999900   -1    0    0    0    0 -0.00000000000E+00 -0.00000000000E+00 -0.74505805969E-08  0.93827000000E+00  0.93827000000E+00 0.  1.
     999902    2    1    2    0    0  0.21773070056E-01 -0.76167218653E-02 -0.65309194722E-02  0.10199563907E+01  0.10196746074E+01 0.  0.
     999903    2    3    3    0    0  0.11642759775E+00  0.45386608428E-01 -0.40007845359E-01  0.13266301356E+00  0.19583608797E-01 0.  0.
         14    1    1    2    0    0 -0.21773070056E-01  0.76167218653E-02  0.65309194722E-02  0.23973609256E-01  0.00000000000E+00 0.  1.
     999901    1    3    3    0    0 -0.94654527692E-01 -0.53003330293E-01  0.33476925887E-01  0.88729337719E+00  0.88000000000E+00 0.  1.
        -11    1    4    4    0    0  0.54421276895E-01  0.31540185463E-01 -0.18066760338E-01  0.65445608165E-01  0.51100000000E-03 0.  1.
         11    1    4    4    0    0  0.62006320852E-01  0.13846422964E-01 -0.21941085021E-01  0.67217405391E-01  0.51100000000E-03 0. -1.
</event>
<event>
 8    1  0.1109294E+005  0.1043930E+01  0.7957747E-01            NaN
         13   -1    0    0    0    0  0.00000000000E+00  0.00000000000E+00  0.74505805969E-08  0.10566000000E+00  0.10566000000E+00 0. -1.
     999900   -1    0    0    0    0 -0.00000000000E+00 -0.00000000000E+00 -0.74505805969E-08  0.93827000000E+00  0.93827000000E+00 0.  1.
     999902    2    1    2    0    0  0.20982487951E-01  0.86793677503E-02  0.30949570706E-02  0.10210133034E+01  0.10207560877E+01 0.  0.
     999903    2    3    3    0    0  0.59681662776E-01  0.11062726433E+00 -0.41135111114E-01  0.13318038064E+00  0.15640458310E-01 0.  0.
         14    1    1    2    0    0 -0.20982487951E-01 -0.86793677503E-02 -0.30949570706E-02  0.22916696630E-01  0.00000000000E+00 0. -1.
     999901    1    3    3    0    0 -0.38699174825E-01 -0.10194789658E+00  0.44230068185E-01  0.88783292273E+00  0.88000000000E+00 0.  1.
        -11    1    4    4    0    0  0.28325572062E-01  0.67132621362E-01 -0.20164452949E-01  0.75604187498E-01  0.51100000000E-03 0.  1.
         11    1    4    4    0    0  0.31356090714E-01  0.43494642970E-01 -0.20970658166E-01  0.57576193143E-01  0.51100000000E-03 0. -1.
</event>
<event>
 8    1  0.1109294E+005  0.1043930E+01  0.7957747E-01            NaN
         13   -1    0    0    0    0  0.00000000000E+00  0.00000000000E+00  0.74505805969E-08  0.10566000000E+00  0.10566000000E+00 0. -1.
     999900   -1    0    0    0    0 -0.00000000000E+00 -0.00000000000E+00 -0.74505805969E-08  0.93827000000E+00  0.93827000000E+00 0. -1.
     999902    2    1    2    0    0 -0.20473722337E-01  0.61343916616E-02 -0.11184933782E-01  0.10198072553E+01  0.10195219130E+01 0.  0.
     999903    2    3    3    0    0  0.12381850866E+00 -0.83169439141E-02 -0.22962149239E-01  0.12786118529E+00  0.20518961108E-01 0.  0.
         14    1    1    2    0    0  0.20473722337E-01 -0.61343916616E-02  0.11184933782E-01  0.24122744684E-01  0.00000000000E+00 0. -1.
     999901    1    3    3    0    0 -0.14429223099E+00  0.14451335576E-01  0.11777215457E-01  0.89194607002E+00  0.88000000000E+00 0.  1.
        -11    1    4    4    0    0  0.56068131829E-01 -0.11567415272E-01 -0.38046324001E-02  0.57377494295E-01  0.51100000000E-03 0.  1.
         11    1    4    4    0    0  0.67750376827E-01  0.32504713581E-02 -0.19157516839E-01  0.70483690998E-01  0.51100000000E-03 0. -1.
</event>
<event>
 8    1  0.1109294E+005  0.1043930E+01  0.7957747E-01            NaN
         13   -1    0    0    0    0  0.00000000000E+00  0.00000000000E+00  0.74505805969E-08  0.10566000000E+00  0.10566000000E+00 0.  1.
     999900   -1    0    0    0    0 -0.00000000000E+00 -0.00000000000E+00 -0.74505805969E-08  0.93827000000E+00  0.93827000000E+00 0.  1.
     999902    2    1    2    0    0  0.14098297510E-01 -0.16769112971E-01  0.77761501978E-02  0.10206827710E+01  0.10204179955E+01 0.  0.
     999903    2    3    3    0    0  0.32854379971E-01  0.10638856036E+00  0.64264228652E-01  0.13011525190E+00  0.20053718705E-01 0.  0.
         14    1    1    2    0    0 -0.14098297510E-01  0.16769112971E-01 -0.77761501978E-02  0.23247228962E-01  0.00000000000E+00 0. -1.
     999901    1    3    3    0    0 -0.18756082461E-01 -0.12315767333E+00 -0.56488078454E-01  0.89056751913E+00  0.88000000000E+00 0.  1.
        -11    1    4    4    0    0  0.63030348352E-02  0.54122604268E-01  0.32212114620E-01  0.63299810349E-01  0.51100000000E-03 0. -1.
         11    1    4    4    0    0  0.26551345136E-01  0.52265956096E-01  0.32052114032E-01  0.66815441554E-01  0.51100000000E-03 0.  1.
</event>
<event>
 8    1  0.1184595E+005  0.1043930E+01  0.7957747E-01            NaN
         13   -1    0    0    0    0  0.00000000000E+00  0.00000000000E+00  0.74505805969E-08  0.10566000000E+00  0.10566000000E+00 0. -1.
     999900   -1    0    0    0    0 -0.00000000000E+00 -0.00000000000E+00 -0.74505805969E-08  0.93827000000E+00  0.93827000000E+00 0. -1.
     999902    2    1    2    0    0  0.27082874634E-01 -0.68039896676E-02  0.28494551294E-02  0.10158605189E+01  0.10154726476E+01 0.  0.
     999903    2    3    3    0    0 -0.50356026199E-01  0.77232394227E-01 -0.81365930349E-01  0.12448454418E+00  0.19375629694E-01 0.  0.
         14    1    1    2    0    0 -0.27082874634E-01  0.68039896676E-02 -0.28494551294E-02  0.28069481085E-01  0.00000000000E+00 0.  1.
     999901    1    3    3    0    0  0.77438900833E-01 -0.84036383894E-01  0.84215385479E-01  0.89137597473E+00  0.88000000000E+00 0. -1.
        -11    1    4    4    0    0 -0.29083887391E-01  0.55283223292E-01 -0.45071418243E-01  0.77031169969E-01  0.51100000000E-03 0.  1.
         11    1    4    4    0    0 -0.21272138808E-01  0.21949170935E-01 -0.36294512106E-01  0.47453374213E-01  0.51100000000E-03 0. -1.
</event>
<event>
 8    1  0.1109294E+005  0.1043930E+01  0.7957747E-01            NaN
         13   -1    0    0    0    0  0.00000000000E+00  0.00000000000E+00  0.74505805969E-08  0.10566000000E+00  0.10566000000E+00 0.  1.
     999900   -1    0    0    0    0 -0.00000000000E+00 -0.00000000000E+00 -0.74505805969E-08  0.93827000000E+00  0.93827000000E+00 0.  1.
     999902    2    1    2    0    0  0.15504225922E-01 -0.76085048739E-02 -0.16480781951E-01  0.10200577035E+01  0.10197783249E+01 0.  0.
     999903    2    3    3    0    0  0.10290560972E+00  0.15322286747E-01  0.76313551880E-01  0.13057717446E+00  0.20057500025E-01 0.  0.
         14    1    1    2    0    0 -0.15504225922E-01  0.76085048739E-02  0.16480781951E-01  0.23872296530E-01  0.00000000000E+00 0.  1.
     999901    1    3    3    0    0 -0.87401383796E-01 -0.22930791621E-01 -0.92794333832E-01  0.88948052901E+00  0.88000000000E+00 0.  1.
        -11    1    4    4    0    0  0.33049442132E-01  0.10819702886E-01  0.16472997823E-01  0.38483144025E-01  0.51100000000E-03 0.  1.
         11    1    4    4    0    0  0.69856167587E-01  0.45025838611E-02  0.59840554057E-01  0.92094030437E-01  0.51100000000E-03 0. -1.
</event>
<event>
 8    1  0.1109294E+005  0.1043930E+01  0.7957747E-01            NaN
         13   -1    0    0    0    0  0.00000000000E+00  0.00000000000E+00  0.74505805969E-08  0.10566000000E+00  0.10566000000E+00 0.  1.
     999900   -1    0    0    0    0 -0.00000000000E+00 -0.00000000000E+00 -0.74505805969E-08  0.93827000000E+00  0.93827000000E+00 0.  1.
     999902    2    1    2    0    0  0.21029757695E-01 -0.64066092946E-02  0.14906500017E-01  0.10173687671E+01  0.10170219807E+01 0.  0.
     999903    2    3    3    0    0 -0.83150699637E-01 -0.90378636252E-02 -0.90574305060E-01  0.12496376293E+00  0.20408710898E-01 0.  0.
         14    1    1    2    0    0 -0.21029757695E-01  0.64066092946E-02 -0.14906500017E-01  0.26561232918E-01  0.00000000000E+00 0. -1.
     999901    1    3    3    0    0  0.10418045733E+00  0.26312543307E-02  0.10548080508E+00  0.89240500415E+00  0.88000000000E+00 0. -1.
        -11    1    4    4    0    0 -0.35000729666E-01  0.22102687394E-02 -0.26148050812E-01  0.43748349081E-01  0.51100000000E-03 0. -1.
         11    1    4    4    0    0 -0.48149969971E-01 -0.11248132365E-01 -0.64426254247E-01  0.81215413853E-01  0.51100000000E-03 0.  1.
</event>
<event>
 8    1  0.1109294E+005  0.1043930E+01  0.7957747E-01            NaN
         13   -1    0    0    0    0  0.00000000000E+00  0.00000000000E+00  0.74505805969E-08  0.10566000000E+00  0.10566000000E+00 0.  1.
     999900   -1    0    0    0    0 -0.00000000000E+00 -0.00000000000E+00 -0.74505805969E-08  0.93827000000E+00  0.93827000000E+00 0.  1.
     999902    2    1    2    0    0  0.19576146914E-01  0.41333576100E-02 -0.12719108429E-01  0.10202216493E+01  0.10199461397E+01 0.  0.
     999903    2    3    3    0    0 -0.13360495296E-01 -0.11616947037E-01 -0.12894961771E+00  0.13182847859E+00  0.20911421889E-01 0.  0.
         14    1    1    2    0    0 -0.19576146914E-01 -0.41333576100E-02  0.12719108429E-01  0.23708350689E-01  0.00000000000E+00 0.  1.
     999901    1    3    3    0    0  0.32936642211E-01  0.15750304647E-01  0.11623050929E+00  0.88839317072E+00  0.88000000000E+00 0. -1.
        -11    1    4    4    0    0 -0.68989361086E-02 -0.15049957104E-01 -0.11377272494E+00  0.11497212962E+00  0.51100000000E-03 0. -1.
         11    1    4    4    0    0 -0.64615591879E-02  0.34330100676E-02 -0.15176892776E-01  0.16856348970E-01  0.51100000000E-03 0.  1.
</event>
<event>
 8    1  0.1109294E+005  0.1043930E+01  0.7957747E-01            NaN
         13   -1    0    0    0    0  0.00000000000E+00  0.00000000000E+00  0.74505805969E-08  0.10566000000E+00  0.10566000000E+00 0. -1.
     999900   -1    0    0    0    0 -0.00000000000E+00 -0.00000000000E+00 -0.74505805969E-08  0.93827000000E+00  0.93827000000E+00 0.  1.
     999902    2    1    2    0    0  0.16603654220E-01 -0.11434517264E-01 -0.14219421703E-01  0.10192597452E+01  0.10189611409E+01 0.  0.
     999903    2    3    3    0    0  0.63090644339E-01 -0.27530447265E-01  0.10785925660E+00  0.12947138670E+00  0.19770326527E-01 0.  0.
         14    1    1    2    0    0 -0.16603654220E-01  0.11434517264E-01  0.14219421703E-01  0.24670254804E-01  0.00000000000E+00 0.  1.
     999901    1    3    3    0    0 -0.46486990120E-01  0.16095930000E-01 -0.12207867830E+00  0.88978835849E+00  0.88000000000E+00 0.  1.
        -11    1    4    4    0    0  0.30332883623E-01 -0.20707617171E-01  0.69167920387E-01  0.78315717257E-01  0.51100000000E-03 0.  1.
         11    1    4    4    0    0  0.32757760716E-01 -0.68228300939E-02  0.38691336212E-01  0.51155669447E-01  0.51100000000E-03 0. -1.
</event>
<event>
 8    1  0.1109294E+005  0.1043930E+01  0.7957747E-01            NaN
         13   -1    0    0    0    0  0.00000000000E+00  0.00000000000E+00  0.74505805969E-08  0.10566000000E+00  0.10566000000E+00 0.  1.
     999900   -1    0    0    0    0 -0.00000000000E+00 -0.00000000000E+00 -0.74505805969E-08  0.93827000000E+00  0.93827000000E+00 0.  1.
     999902    2    1    2    0    0  0.81081854476E-02  0.16823676162E-01 -0.12851116166E-01  0.10212599771E+01  0.10210083305E+01 0.  0.
     999903    2    3    3    0    0  0.42116704896E-04  0.10470781106E+00 -0.81506183720E-01  0.13418489521E+00  0.19964985569E-01 0.  0.
         14    1    1    2    0    0 -0.81081854476E-02 -0.16823676162E-01  0.12851116166E-01  0.22670022885E-01  0.00000000000E+00 0.  1.
     999901    1    3    3    0    0  0.80660687427E-02 -0.87884134894E-01  0.68655067554E-01  0.88707508190E+00  0.88000000000E+00 0. -1.
        -11    1    4    4    0    0 -0.90125964730E-02  0.29794702326E-01 -0.23434749893E-01  0.38966649913E-01  0.51100000000E-03 0.  1.
         11    1    4    4    0    0  0.90547131779E-02  0.74913108730E-01 -0.58071433828E-01  0.95218245300E-01  0.51100000000E-03 0. -1.
</event>
<event>
 8    1  0.1109294E+005  0.1043930E+01  0.7957747E-01            NaN
         13   -1    0    0    0    0  0.00000000000E+00  0.00000000000E+00  0.74505805969E-08  0.10566000000E+00  0.10566000000E+00 0.  1.
     999900   -1    0    0    0    0 -0.00000000000E+00 -0.00000000000E+00 -0.74505805969E-08  0.93827000000E+00  0.93827000000E+00 0.  1.
     999902    2    1    2    0    0 -0.94800395702E-02 -0.10864516170E-01 -0.19017276459E-01  0.10200644251E+01  0.10197852057E+01 0.  0.
     999903    2    3    3    0    0  0.12680501403E+00 -0.13189580001E-02  0.10500828828E-01  0.12903353222E+00  0.21404060292E-01 0.  0.
         14    1    1    2    0    0  0.94800395702E-02  0.10864516170E-01  0.19017276459E-01  0.23865574910E-01  0.00000000000E+00 0.  1.
     999901    1    3    3    0    0 -0.13628505360E+00 -0.95455581694E-02 -0.29518105287E-01  0.89103089287E+00  0.88000000000E+00 0.  1.
        -11    1    4    4    0    0  0.70611082516E-01 -0.54394703252E-03 -0.48252845070E-02  0.70779695846E-01  0.51100000000E-03 0. -1.
         11    1    4    4    0    0  0.56193931513E-01 -0.77501096761E-03  0.15326113335E-01  0.58253836371E-01  0.51100000000E-03 0.  1.
</event>
<event>
 8    1  0.1109294E+005  0.1043930E+01  0.7957747E-01            NaN
         13   -1    0    0    0    0  0.00000000000E+00  0.00000000000E+00  0.74505805969E-08  0.10566000000E+00  0.10566000000E+00 0. -1.
     999900   -1    0    0    0    0 -0.00000000000E+00 -0.00000000000E+00 -0.74505805969E-08  0.93827000000E+00  0.93827000000E+00 0.  1.
     999902    2    1    2    0    0  0.17490492866E-01 -0.46252830066E-02  0.15388411200E-01  0.10201789204E+01  0.10199024050E+01 0.  0.
     999903    2    3    3    0    0  0.11254857698E+00  0.16428441310E-01 -0.62796073036E-01  0.13136391588E+00  0.19392156704E-01 0.  0.
         14    1    1    2    0    0 -0.17490492866E-01  0.46252830066E-02 -0.15388411200E-01  0.23751079615E-01  0.00000000000E+00 0.  1.
     999901    1    3    3    0    0 -0.95058084114E-01 -0.21053724317E-01  0.78184484236E-01  0.88881500451E+00  0.88000000000E+00 0. -1.
        -11    1    4    4    0    0  0.97725522205E-01  0.12335680256E-01 -0.61030433347E-01  0.11587675182E+00  0.51100000000E-03 0. -1.
         11    1    4    4    0    0  0.14823054775E-01  0.40927610540E-02 -0.17656396892E-02  0.15487164054E-01  0.51100000000E-03 0.  1.
</event>
<event>
 8    1  0.1109294E+005  0.1043930E+01  0.7957747E-01            NaN
         13   -1    0    0    0    0  0.00000000000E+00  0.00000000000E+00  0.74505805969E-08  0.10566000000E+00  0.10566000000E+00 0.  1.
     999900   -1    0    0    0    0 -0.00000000000E+00 -0.00000000000E+00 -0.74505805969E-08  0.93827000000E+00  0.93827000000E+00 0.  1.
     999902    2    1    2    0    0  0.77776272722E-02 -0.11339560776E-01  0.19798408645E-01  0.10198249360E+01  0.10195400169E+01 0.  0.
     999903    2    3    3    0    0  0.11781986324E+00  0.52259577245E-01  0.97685603132E-02  0.13063724947E+00  0.18923070341E-01 0.  0.
         14    1    1    2    0    0 -0.77776272722E-02  0.11339560776E-01 -0.19798408645E-01  0.24105063979E-01  0.00000000000E+00 0. -1.
     999901    1    3    3    0    0 -0.11004223597E+00 -0.63599138020E-01  0.10029848332E-01  0.88918768655E+00  0.88000000000E+00 0. -1.
        -11    1    4    4    0    0  0.52660691077E-01  0.27896599239E-01 -0.39670601209E-02  0.59727441941E-01  0.51100000000E-03 0.  1.
         11    1    4    4    0    0  0.65159172163E-01  0.24362978005E-01  0.13735620434E-01  0.70909807530E-01  0.51100000000E-03 0. -1.
</event>
<event>
 8    1  0.1109294E+005  0.1043930E+01  0.7957747E-01            NaN
         13   -1    0    0    0    0  0.00000000000E+00  0.00000000000E+00  0.74505805969E-08  0.10566000000E+00  0.10566000000E+00 0. -1.
     999900   -1    0    0    0    0 -0.00000000000E+00 -0.00000000000E+00 -0.74505805969E-08  0.93827000000E+00  0.93827000000E+00 0.  1.
     999902    2    1    2    0    0 -0.95761251397E-02 -0.15076558081E-01  0.15247498464E-01  0.10204461548E+01  0.10201758985E+01 0.  0.
     999903    2    3    3    0    0 -0.84166535157E-01 -0.10086327475E+00  0.71060169962E-02  0.13309652035E+00  0.20168847738E-01 0.  0.
         14    1    1    2    0    0  0.95761251397E-02  0.15076558081E-01 -0.15247498464E-01  0.23483845206E-01  0.00000000000E+00 0. -1.
     999901    1    3    3    0    0  0.74590410018E-01  0.85786716667E-01  0.81414814676E-02  0.88734963444E+00  0.88000000000E+00 0.  1.
        -11    1    4    4    0    0 -0.23130902741E-01 -0.38882090853E-01 -0.39004657920E-02  0.45412888095E-01  0.51100000000E-03 0. -1.
         11    1    4    4    0    0 -0.61035632417E-01 -0.61981183895E-01  0.11006482788E-01  0.87683632258E-01  0.51100000000E-03 0.  1.
</event>
<event>
 8    1  0.1109294E+005  0.1043930E+01  0.7957747E-01            NaN
         13   -1    0    0    0    0  0.00000000000E+00  0.00000000000E+00  0.74505805969E-08  0.10566000000E+00  0.10566000000E+00 0. -1.
     999900   -1    0    0    0    0 -0.00000000000E+00 -0.00000000000E+00 -0.74505805969E-08  0.93827000000E+00  0.93827000000E+00 0. -1.
     999902    2    1    2    0    0 -0.65592022979E-03 -0.34853038822E-02  0.23117435787E-01  0.10205421097E+01  0.10202740829E+01 0.  0.
     999903    2    3    3    0    0 -0.36734233864E-01  0.12292004187E+00  0.15802237209E-01  0.13074805024E+00  0.19662179698E-01 0.  0.
         14    1    1    2    0    0  0.65592022979E-03  0.34853038822E-02 -0.23117435787E-01  0.23387890282E-01  0.00000000000E+00 0.  1.
     999901    1    3    3    0    0  0.36078313634E-01 -0.12640534575E+00  0.73151985775E-02  0.88979405948E+00  0.88000000000E+00 0.  1.
        -11    1    4    4    0    0 -0.66551908024E-02  0.47677790911E-01 -0.23322118398E-03  0.48143315464E-01  0.51100000000E-03 0. -1.
         11    1    4    4    0    0 -0.30079043062E-01  0.75242250958E-01  0.16035458393E-01  0.82604734778E-01  0.51100000000E-03 0.  1.
</event>
<event>
 8    1  0.1109294E+005  0.1043930E+01  0.7957747E-01            NaN
         13   -1    0    0    0    0  0.00000000000E+00  0.00000000000E+00  0.74505805969E-08  0.10566000000E+00  0.10566000000E+00 0. -1.
     999900   -1    0    0    0    0 -0.00000000000E+00 -0.00000000000E+00 -0.74505805969E-08  0.93827000000E+00  0.93827000000E+00 0.  1.
     999902    2    1    2    0    0  0.56085618999E-02  0.33185685558E-02  0.22768005881E-01  0.10202477080E+01  0.10199728107E+01 0.  0.
     999903    2    3    3    0    0 -0.35546658585E-01 -0.99800990301E-01 -0.69758906395E-01  0.12845814474E+00  0.20282685414E-01 0.  0.
         14    1    1    2    0    0 -0.56085618999E-02 -0.33185685558E-02 -0.22768005881E-01  0.23682292027E-01  0.00000000000E+00 0.  1.
     999901    1    3    3    0    0  0.41155220485E-01  0.10311955886E+00  0.92526912276E-01  0.89178956323E+00  0.88000000000E+00 0. -1.
        -11    1    4    4    0    0 -0.35369687081E-01 -0.79086718543E-01 -0.61022424200E-01  0.10597037883E+00  0.51100000000E-03 0. -1.
         11    1    4    4    0    0 -0.17697150431E-03 -0.20714271759E-01 -0.87364821944E-02  0.22487765908E-01  0.51100000000E-03 0.  1.
</event>
<event>
 8    1  0.1109294E+005  0.1043930E+01  0.7957747E-01            NaN
         13   -1    0    0    0    0  0.00000000000E+00  0.00000000000E+00  0.74505805969E-08  0.10566000000E+00  0.10566000000E+00 0.  1.
     999900   -1    0    0    0    0 -0.00000000000E+00 -0.00000000000E+00 -0.74505805969E-08  0.93827000000E+00  0.93827000000E+00 0. -1.
     999902    2    1    2    0    0  0.11812837131E-01  0.11737859601E-01  0.14645146288E-01  0.10217534182E+01  0.10215127248E+01 0.  0.
     999903    2    3    3    0    0  0.11409911577E+00  0.19446737484E-01 -0.61476933328E-01  0.13253101602E+00  0.19704645596E-01 0.  0.
         14    1    1    2    0    0 -0.11812837131E-01 -0.11737859601E-01 -0.14645146288E-01  0.22176581768E-01  0.00000000000E+00 0. -1.
     999901    1    3    3    0    0 -0.10228627863E+00 -0.77088778823E-02  0.76122079616E-01  0.88922240221E+00  0.88000000000E+00 0.  1.
        -11    1    4    4    0    0  0.73326779127E-01  0.53689733345E-02 -0.31431652753E-01  0.79961567816E-01  0.51100000000E-03 0.  1.
         11    1    4    4    0    0  0.40772336638E-01  0.14077764149E-01 -0.30045280575E-01  0.52569448201E-01  0.51100000000E-03 0. -1.
</event>
<event>
 8    1  0.1109294E+005  0.1043930E+01  0.7957747E-01            NaN
         13   -1    0    0    0    0  0.00000000000E+00  0.00000000000E+00  0.74505805969E-08  0.10566000000E+00  0.10566000000E+00 0.  1.
     999900   -1    0    0    0    0 -0.00000000000E+00 -0.00000000000E+00 -0.74505805969E-08  0.93827000000E+00  0.93827000000E+00 0. -1.
     999902    2    1    2    0    0 -0.44825062375E-02 -0.20871810428E-01  0.77809531123E-02  0.10212084559E+01  0.10209556513E+01 0.  0.
     999903    2    3    3    0    0 -0.51338148282E-02  0.65023472701E-01 -0.10958658419E+00  0.12927036243E+00  0.21147082788E-01 0.  0.
         14    1    1    2    0    0  0.44825062375E-02  0.20871810428E-01 -0.77809531123E-02  0.22721544050E-01  0.00000000000E+00 0.  1.
     999901    1    3    3    0    0  0.65130859069E-03 -0.85895283129E-01  0.11736753730E+00  0.89193809352E+00  0.88000000000E+00 0.  1.
        -11    1    4    4    0    0  0.49580285667E-02  0.10475898130E-01 -0.10191974060E-01  0.15442277848E-01  0.51100000000E-03 0. -1.
         11    1    4    4    0    0 -0.10091843395E-01  0.54547574571E-01 -0.99394610130E-01  0.11382808458E+00  0.51100000000E-03 0.  1.
</event>
<event>
 8    1  0.1109294E+005  0.1043930E+01  0.7957747E-01            NaN
         13   -1    0    0    0    0  0.00000000000E+00  0.00000000000E+00  0.74505805969E-08  0.10566000000E+00  0.10566000000E+00 0.  1.
     999900   -1    0    0    0    0 -0.00000000000E+00 -0.00000000000E+00 -0.74505805969E-08  0.93827000000E+00  0.93827000000E+00 0. -1.
     999902    2    1    2    0    0  0.23838409818E-01  0.13459772841E-02  0.19206189493E-02  0.10199764989E+01  0.10196951937E+01 0.  0.
     999903    2    3    3    0    0  0.15146704711E-02  0.12383320513E+00  0.36159157048E-01  0.13055323194E+00  0.19992618985E-01 0.  0.
         14    1    1    2    0    0 -0.23838409818E-01 -0.13459772841E-02 -0.19206189493E-02  0.23953501093E-01  0.00000000000E+00 0. -1.
     999901    1    3    3    0    0  0.22323739346E-01 -0.12248722784E+00 -0.34238538099E-01  0.88942326696E+00  0.88000000000E+00 0.  1.
        -11    1    4    4    0    0  0.96219934545E-02  0.80454307129E-01  0.27578215658E-01  0.85593792962E-01  0.51100000000E-03 0.  1.
         11    1    4    4    0    0 -0.81073229834E-02  0.43378897998E-01  0.85809413908E-02  0.44959438982E-01  0.51100000000E-03 0. -1.
</event>
<event>
 8    1  0.1109294E+005  0.1043930E+01  0.7957747E-01            NaN
         13   -1    0    0    0    0  0.00000000000E+00  0.00000000000E+00  0.74505805969E-08  0.10566000000E+00  0.10566000000E+00 0. -1.
     999900   -1    0    0    0    0 -0.00000000000E+00 -0.00000000000E+00 -0.74505805969E-08  0.93827000000E+00  0.93827000000E+00 0.  1.
     999902    2    1    2    0    0  0.22374083035E-01 -0.38077980236E-03  0.19110944761E-02  0.10214712185E+01  0.10212242914E+01 0.  0.
     999903    2    3    3    0    0  0.13909899883E-01 -0.22367047327E-01  0.12811388540E+00  0.13215564863E+00  0.18925583490E-01 0.  0.
         14    1    1    2    0    0 -0.22374083035E-01  0.38077980236E-03 -0.19110944761E-02  0.22458781512E-01  0.00000000000E+00 0. -1.
     999901    1    3    3    0    0  0.84641831522E-02  0.21986267524E-01 -0.12620279093E+00  0.88931556986E+00  0.88000000000E+00 0.  1.
        -11    1    4    4    0    0  0.67669375906E-02 -0.98012957635E-02  0.21661637009E-01  0.24725381330E-01  0.51100000000E-03 0. -1.
         11    1    4    4    0    0  0.71429622919E-02 -0.12565751563E-01  0.10645224839E+00  0.10743026730E+00  0.51100000000E-03 0.  1.
</event>
<event>
 8    1  0.1109294E+005  0.1043930E+01  0.7957747E-01            NaN
         13   -1    0    0    0    0  0.00000000000E+00  0.00000000000E+00  0.74505805969E-08  0.10566000000E+00  0.10566000000E+00 0. -1.
     999900   -1    0    0    0    0 -0.00000000000E+00 -0.00000000000E+00 -0.74505805969E-08  0.93827000000E+00  0.93827000000E+00 0. -1.
     999902    2    1    2    0    0 -0.10113756273E-01 -0.95865356721E-02  0.18800225417E-01  0.10205283290E+01  0.10202599825E+01 0.  0.
     999903    2    3    3    0    0  0.10957227014E+00 -0.16142865895E-01  0.67166596501E-01  0.13108634870E+00  0.20139628295E-01 0.  0.
         14    1    1    2    0    0  0.10113756273E-01  0.95865356721E-02 -0.18800225417E-01  0.23401671048E-01  0.00000000000E+00 0.  1.
     999901    1    3    3    0    0 -0.11968602641E+00  0.65563302232E-02 -0.48366371085E-01  0.88944198025E+00  0.88000000000E+00 0. -1.
        -11    1    4    4    0    0  0.29237477686E-01  0.45613193182E-02  0.18581519075E-01  0.34945238696E-01  0.51100000000E-03 0. -1.
         11    1    4    4    0    0  0.80334792449E-01 -0.20704185214E-01  0.48585077427E-01  0.96141110004E-01  0.51100000000E-03 0.  1.
</event>
<event>
 8    1  0.1109294E+005  0.1043930E+01  0.7957747E-01            NaN
         13   -1    0    0    0    0  0.00000000000E+00  0.00000000000E+00  0.74505805969E-08  0.10566000000E+00  0.10566000000E+00 0. -1.
     999900   -1    0    0    0    0 -0.00000000000E+00 -0.00000000000E+00 -0.74505805969E-08  0.93827000000E+00  0.93827000000E+00 0. -1.
     999902    2    1    2    0    0 -0.16111408940E-01  0.55828159015E-02  0.18765075575E-01  0.10185750519E+01  0.10182594281E+01 0.  0.
     999903    2    3    3    0    0  0.10929951681E+00 -0.24755618024E-02 -0.59627404082E-01  0.12619720670E+00  0.20440031310E-01 0.  0.
         14    1    1    2    0    0  0.16111408940E-01 -0.55828159015E-02 -0.18765075575E-01  0.25354948092E-01  0.00000000000E+00 0.  1.
     999901    1    3    3    0    0 -0.12541092575E+00  0.80583777038E-02  0.78392479657E-01  0.89237784521E+00  0.88000000000E+00 0.  1.
        -11    1    4    4    0    0  0.60954034119E-01 -0.11513674642E-01 -0.33647294793E-01  0.70571669578E-01  0.51100000000E-03 0. -1.
         11    1    4    4    0    0  0.48345482694E-01  0.90381128397E-02 -0.25980109289E-01  0.55625537124E-01  0.51100000000E-03 0.  1.
</event>
<event>
 8    1  0.1109294E+005  0.1043930E+01  0.7957747E-01            NaN
         13   -1    0    0    0    0  0.00000000000E+00  0.00000000000E+00  0.74505805969E-08  0.10566000000E+00  0.10566000000E+00 0. -1.
     999900   -1    0    0    0    0 -0.00000000000E+00 -0.00000000000E+00 -0.74505805969E-08  0.93827000000E+00  0.93827000000E+00 0. -1.
     999902    2    1    2    0    0  0.19892461878E-01  0.12839537966E-01  0.44507786257E-02  0.10198390638E+01  0.10195544826E+01 0.  0.
     999903    2    3    3    0    0 -0.66051021214E-02  0.38115808433E-01 -0.12234690298E+00  0.12999713248E+00  0.20833808054E-01 0.  0.
         14    1    1    2    0    0 -0.19892461878E-01 -0.12839537966E-01 -0.44507786257E-02  0.24090936161E-01  0.00000000000E+00 0.  1.
     999901    1    3    3    0    0  0.26497563999E-01 -0.25276270466E-01  0.12679768160E+00  0.88984193136E+00  0.88000000000E+00 0.  1.
        -11    1    4    4    0    0 -0.11069232876E-01  0.20854871468E-01 -0.90128316134E-01  0.93170961520E-01  0.51100000000E-03 0.  1.
         11    1    4    4    0    0  0.44641307546E-02  0.17260936965E-01 -0.32218586844E-01  0.36826170959E-01  0.51100000000E-03 0. -1.
</event>
<event>
 8    1  0.1109294E+005  0.1043930E+01  0.7957747E-01            NaN
         13   -1    0    0    0    0  0.00000000000E+00  0.00000000000E+00  0.74505805969E-08  0.10566000000E+00  0.10566000000E+00 0.  1.
     999900   -1    0    0    0    0 -0.00000000000E+00 -0.00000000000E+00 -0.74505805969E-08  0.93827000000E+00  0.93827000000E+00 0. -1.
     999902    2    1    2    0    0  0.23197181537E-01  0.20668321844E-01 -0.12503875380E-01  0.10104391705E+01  0.10098839942E+01 0.  0.
     999903    2    3    3    0    0 -0.38787922925E-01  0.86631739035E-01  0.73284918136E-01  0.12164614475E+00  0.20433896668E-01 0.  0.
         14    1    1    2    0    0 -0.23197181537E-01 -0.20668321844E-01  0.12503875380E-01  0.33490829471E-01  0.00000000000E+00 0.  1.
     999901    1    3    3    0    0  0.61985104462E-01 -0.65963417191E-01 -0.85788793517E-01  0.88879302578E+00  0.88000000000E+00 0. -1.
        -11    1    4    4    0    0 -0.56800498813E-02  0.24945234846E-01  0.10687691326E-01  0.27731130072E-01  0.51100000000E-03 0.  1.
         11    1    4    4    0    0 -0.33107873044E-01  0.61686504189E-01  0.62597226810E-01  0.93915014677E-01  0.51100000000E-03 0. -1.
</event>
<event>
 8    1  0.1109294E+005  0.1043930E+01  0.7957747E-01            NaN
         13   -1    0    0    0    0  0.00000000000E+00  0.00000000000E+00  0.74505805969E-08  0.10566000000E+00  0.10566000000E+00 0.  1.
     999900   -1    0    0    0    0 -0.00000000000E+00 -0.00000000000E+00 -0.74505805969E-08  0.93827000000E+00  0.93827000000E+00 0.  1.
     999902    2    1    2    0    0 -0.50385587449E-02 -0.12385385923E-01  0.18938707461E-01  0.10207468272E+01  0.10204835255E+01 0.  0.
     999903    2    3    3    0    0  0.37925148860E-01  0.11877372333E+00  0.30290344751E-01  0.12991718484E+00  0.20382729504E-01 0.  0.
         14    1    1    2    0    0  0.50385587449E-02  0.12385385923E-01 -0.18938707461E-01  0.23183172755E-01  0.00000000000E+00 0. -1.
     999901    1    3    3    0    0 -0.42963707605E-01 -0.13115910926E+00 -0.11351637291E-01  0.89082964240E+00  0.88000000000E+00 0.  1.
        -11    1    4    4    0    0  0.21393332204E-01  0.44428777789E-01  0.19343766955E-01  0.52972005811E-01  0.51100000000E-03 0. -1.
         11    1    4    4    0    0  0.16531816656E-01  0.74344945544E-01  0.10946577796E-01  0.76945179032E-01  0.51100000000E-03 0.  1.
</event>
<event>
 8    1  0.1109294E+005  0.1043930E+01  0.7957747E-01            NaN
         13   -1    0    0    0    0  0.00000000000E+00  0.00000000000E+00  0.74505805969E-08  0.10566000000E+00  0.10566000000E+00 0. -1.
     999900   -1    0    0    0    0 -0.00000000000E+00 -0.00000000000E+00 -0.74505805969E-08  0.93827000000E+00  0.93827000000E+00 0. -1.
     999902    2    1    2    0    0  0.13039639958E-01 -0.14592709969E-01 -0.13201850619E-01  0.10203234701E+01  0.10200503494E+01 0.  0.
     999903    2    3    3    0    0 -0.64252870096E-01 -0.94010475407E-01 -0.63067183785E-01  0.13197226419E+00  0.21744149626E-01 0.  0.
         14    1    1    2    0    0 -0.13039639958E-01  0.14592709969E-01  0.13201850619E-01  0.23606529907E-01  0.00000000000E+00 0. -1.
     999901    1    3    3    0    0  0.77292510055E-01  0.79417765438E-01  0.49865333166E-01  0.88835120590E+00  0.88000000000E+00 0.  1.
        -11    1    4    4    0    0 -0.11421529142E-01 -0.26290655961E-01 -0.24938508156E-01  0.37997897690E-01  0.51100000000E-03 0. -1.
         11    1    4    4    0    0 -0.52831340954E-01 -0.67719819446E-01 -0.38128675628E-01  0.93974366499E-01  0.51100000000E-03 0.  1.
</event>
<event>
 8    1  0.1109294E+005  0.1043930E+01  0.7957747E-01            NaN
         13   -1    0    0    0    0  0.00000000000E+00  0.00000000000E+00  0.74505805969E-08  0.10566000000E+00  0.10566000000E+00 0. -1.
     999900   -1    0    0    0    0 -0.00000000000E+00 -0.00000000000E+00 -0.74505805969E-08  0.93827000000E+00  0.93827000000E+00 0. -1.
     999902    2    1    2    0    0 -0.13314842658E-01  0.18475024210E-01  0.10098702985E-01  0.10190182486E+01  0.10187136966E+01 0.  0.
     999903    2    3    3    0    0 -0.65374101649E-01 -0.43574993491E-01 -0.99585981706E-01  0.12851777069E+00  0.20661471565E-01 0.  0.
         14    1    1    2    0    0  0.13314842658E-01 -0.18475024210E-01 -0.10098702985E-01  0.24911751375E-01  0.00000000000E+00 0.  1.
     999901    1    3    3    0    0  0.52059258991E-01  0.62050017701E-01  0.10968468469E+00  0.89050047793E+00  0.88000000000E+00 0.  1.
        -11    1    4    4    0    0 -0.33928583360E-02 -0.40239861374E-02 -0.17663891903E-01  0.18438496421E-01  0.51100000000E-03 0. -1.
         11    1    4    4    0    0 -0.61981243313E-01 -0.39551007353E-01 -0.81922089803E-01  0.11007927427E+00  0.51100000000E-03 0.  1.
</event>
<event>
 8    1  0.1109294E+005  0.1043930E+01  0.7957747E-01            NaN
         13   -1    0    0    0    0  0.00000000000E+00  0.00000000000E+00  0.74505805969E-08  0.10566000000E+00  0.10566000000E+00 0. -1.
     999900   -1    0    0    0    0 -0.00000000000E+00 -0.00000000000E+00 -0.74505805969E-08  0.93827000000E+00  0.93827000000E+00 0.  1.
     999902    2    1    2    0    0  0.14196387465E-01 -0.98878362016E-02 -0.15776683913E-01  0.10205161050E+01  0.10202474750E+01 0.  0.
     999903    2    3    3    0    0 -0.11884095329E+00  0.25529459924E-02 -0.48276757421E-01  0.12983661057E+00  0.19930138613E-01 0.  0.
         14    1    1    2    0    0 -0.14196387465E-01  0.98878362016E-02  0.15776683913E-01  0.23413894958E-01  0.00000000000E+00 0. -1.
     999901    1    3    3    0    0  0.13303734075E+00 -0.12440782194E-01  0.32500073508E-01  0.89067949447E+00  0.88000000000E+00 0. -1.
        -11    1    4    4    0    0 -0.36622053253E-01  0.40147651899E-02 -0.58600073427E-02  0.37308094712E-01  0.51100000000E-03 0.  1.
         11    1    4    4    0    0 -0.82218900036E-01 -0.14618191976E-02 -0.42416750078E-01  0.92528515857E-01  0.51100000000E-03 0. -1.
</event>
<event>
 8    1  0.1109294E+005  0.1043930E+01  0.7957747E-01            NaN
         13   -1    0    0    0    0  0.00000000000E+00  0.00000000000E+00  0.74505805969E-08  0.10566000000E+00  0.10566000000E+00 0.  1.
     999900   -1    0    0    0    0 -0.00000000000E+00 -0.00000000000E+00 -0.74505805969E-08  0.93827000000E+00  0.93827000000E+00 0. -1.
     999902    2    1    2    0    0  0.99063156460E-02 -0.19370992936E-01  0.88155359310E-02  0.10204548188E+01  0.10201847642E+01 0.  0.
     999903    2    3    3    0    0  0.47981615237E-02 -0.84172064596E-01 -0.98866106146E-01  0.13151128398E+00  0.20316300258E-01 0.  0.
         14    1    1    2    0    0 -0.99063156460E-02  0.19370992936E-01 -0.88155359310E-02  0.23475181165E-01  0.00000000000E+00 0.  1.
     999901    1    3    3    0    0  0.51081541224E-02  0.64801071660E-01  0.10768164208E+00  0.88894353486E+00  0.88000000000E+00 0.  1.
        -11    1    4    4    0    0  0.29270986189E-02 -0.11490036053E-01 -0.25971571492E-01  0.28554727833E-01  0.51100000000E-03 0.  1.
         11    1    4    4    0    0  0.18710629048E-02 -0.72682028543E-01 -0.72894534654E-01  0.10295655614E+00  0.51100000000E-03 0. -1.
</event>
<event>
 8    1  0.1109294E+005  0.1043930E+01  0.7957747E-01            NaN
         13   -1    0    0    0    0  0.00000000000E+00  0.00000000000E+00  0.74505805969E-08  0.10566000000E+00  0.10566000000E+00 0.  1.
     999900   -1    0    0    0    0 -0.00000000000E+00 -0.00000000000E+00 -0.74505805969E-08  0.93827000000E+00  0.93827000000E+00 0.  1.
     999902    2    1    2    0    0  0.12467895419E-01  0.12480100999E-01 -0.53976552370E-02  0.10254818017E+01  0.10253158487E+01 0.  0.
     999903    2    3    3    0    0 -0.11643599920E+00  0.13615653443E-01  0.60823036370E-01  0.13362829161E+00  0.20355604576E-01 0.  0.
         14    1    1    2    0    0 -0.12467895419E-01 -0.12480100999E-01  0.53976552370E-02  0.18448198264E-01  0.00000000000E+00 0. -1.
     999901    1    3    3    0    0  0.12890389462E+00 -0.11355524439E-02 -0.66220691607E-01  0.89185351013E+00  0.88000000000E+00 0. -1.
        -11    1    4    4    0    0 -0.65184517817E-01 -0.18746548131E-02  0.37488256486E-01  0.75220782959E-01  0.51100000000E-03 0.  1.
         11    1    4    4    0    0 -0.51251481381E-01  0.15490308256E-01  0.23334779884E-01  0.58407508651E-01  0.51100000000E-03 0. -1.
</event>
<event>
 8    1  0.1109294E+005  0.1043930E+01  0.7957747E-01            NaN
         13   -1    0    0    0    0  0.00000000000E+00  0.00000000000E+00  0.74505805969E-08  0.10566000000E+00  0.10566000000E+00 0. -1.
     999900   -1    0    0    0    0 -0.00000000000E+00 -0.00000000000E+00 -0.74505805969E-08  0.93827000000E+00  0.93827000000E+00 0.  1.
     999902    2    1    2    0    0  0.34938039600E-02 -0.23250378955E-01 -0.20106401331E-02  0.10203327658E+01  0.10200598627E+01 0.  0.
     999903    2    3    3    0    0  0.12750357101E+00  0.20603911613E-01  0.25601461222E-02  0.13054486231E+00  0.18807576496E-01 0.  0.
         14    1    1    2    0    0 -0.34938039600E-02  0.23250378955E-01  0.20106401331E-02  0.23597234190E-01  0.00000000000E+00 0. -1.
     999901    1    3    3    0    0 -0.12400976705E+00 -0.43854290568E-01 -0.45707862553E-02  0.88978790350E+00  0.88000000000E+00 0. -1.
        -11    1    4    4    0    0  0.59159879311E-01  0.18838098441E-01 -0.79868411253E-03  0.62093995606E-01  0.51100000000E-03 0. -1.
         11    1    4    4    0    0  0.68343691699E-01  0.17658131724E-02  0.33588302347E-02  0.68450866706E-01  0.51100000000E-03 0.  1.
</event>
<event>
 8    1  0.1109294E+005  0.1043930E+01  0.7957747E-01            NaN
         13   -1    0    0    0    0  0.00000000000E+00  0.00000000000E+00  0.74505805969E-08  0.10566000000E+00  0.10566000000E+00 0.  1.
     999900   -1    0    0    0    0 -0.00000000000E+00 -0.00000000000E+00 -0.74505805969E-08  0.93827000000E+00  0.93827000000E+00 0. -1.
     999902    2    1    2    0    0 -0.15027465525E-01 -0.14117380252E-01  0.11157646371E-01  0.10204860622E+01  0.10202167343E+01 0.  0.
     999903    2    3    3    0    0 -0.34430333736E-01 -0.11944883903E+00  0.43761883912E-01  0.13339293082E+00  0.20617916557E-01 0.  0.
         14    1    1    2    0    0  0.15027465525E-01  0.14117380252E-01 -0.11157646371E-01  0.23443937763E-01  0.00000000000E+00 0. -1.
     999901    1    3    3    0    0  0.19402868211E-01  0.10533145877E+00 -0.32604237541E-01  0.88709313142E+00  0.88000000000E+00 0. -1.
        -11    1    4    4    0    0 -0.76036807591E-02 -0.52286435452E-01  0.10890270356E-01  0.53949480097E-01  0.51100000000E-03 0. -1.
         11    1    4    4    0    0 -0.26826652977E-01 -0.67162403575E-01  0.32871613556E-01  0.79443450723E-01  0.51100000000E-03 0.  1.
</event>
<event>
 8    1  0.1109294E+005  0.1043930E+01  0.7957747E-01            NaN
         13   -1    0    0    0    0  0.00000000000E+00  0.00000000000E+00  0.74505805969E-08  0.10566000000E+00  0.10566000000E+00 0. -1.
     999900   -1    0    0    0    0 -0.00000000000E+00 -0.00000000000E+00 -0.74505805969E-08  0.93827000000E+00  0.93827000000E+00 0.  1.
     999902    2    1    2    0    0 -0.71583268507E-02 -0.57095097802E-02  0.28305937469E-01  0.10141799371E+01  0.10137434974E+01 0.  0.
     999903    2    3    3    0    0  0.11032957347E+00  0.31208256587E-01  0.46831538852E-01  0.12541139239E+00  0.19704168305E-01 0.  0.
         14    1    1    2    0    0  0.71583268507E-02  0.57095097802E-02 -0.28305937469E-01  0.29750062878E-01  0.00000000000E+00 0.  1.
     999901    1    3    3    0    0 -0.11748790032E+00 -0.36917766367E-01 -0.18525601383E-01  0.88876854473E+00  0.88000000000E+00 0. -1.
        -11    1    4    4    0    0  0.85244796009E-01  0.20260585688E-01  0.27271571778E-01  0.91766913031E-01  0.51100000000E-03 0. -1.
         11    1    4    4    0    0  0.25084777463E-01  0.10947670900E-01  0.19559967074E-01  0.33644479360E-01  0.51100000000E-03 0.  1.
</event>
<event>
 8    1  0.1109294E+005  0.1043930E+01  0.7957747E-01            NaN
         13   -1    0    0    0    0  0.00000000000E+00  0.00000000000E+00  0.74505805969E-08  0.10566000000E+00  0.10566000000E+00 0. -1.
     999900   -1    0    0    0    0 -0.00000000000E+00 -0.00000000000E+00 -0.74505805969E-08  0.93827000000E+00  0.93827000000E+00 0.  1.
     999902    2    1    2    0    0 -0.16160624208E-01  0.16168881582E-01 -0.13225921486E-01  0.10175193297E+01  0.10171765151E+01 0.  0.
     999903    2    3    3    0    0  0.84479592748E-01 -0.82237671996E-01 -0.40118601954E-01  0.12592776440E+00  0.18667172732E-01 0.  0.
         14    1    1    2    0    0  0.16160624208E-01 -0.16168881582E-01  0.13225921486E-01  0.26410670298E-01  0.00000000000E+00 0.  1.
     999901    1    3    3    0    0 -0.10064021696E+00  0.98406553578E-01  0.26892680468E-01  0.89159156530E+00  0.88000000000E+00 0. -1.
        -11    1    4    4    0    0  0.54440790578E-01 -0.41467489550E-01 -0.27345606697E-01  0.73698003331E-01  0.51100000000E-03 0. -1.
         11    1    4    4    0    0  0.30038802170E-01 -0.40770182446E-01 -0.12772995257E-01  0.52229761069E-01  0.51100000000E-03 0.  1.
</event>
<event>
 8    1  0.1109294E+005  0.1043930E+01  0.7957747E-01            NaN
         13   -1    0    0    0    0  0.00000000000E+00  0.00000000000E+00  0.74505805969E-08  0.10566000000E+00  0.10566000000E+00 0.  1.
     999900   -1    0    0    0    0 -0.00000000000E+00 -0.00000000000E+00 -0.74505805969E-08  0.93827000000E+00  0.93827000000E+00 0.  1.
     999902    2    1    2    0    0  0.52623253713E-02  0.18334666624E-01  0.11836667910E-01  0.10214809738E+01  0.10212342636E+01 0.  0.
     999903    2    3    3    0    0 -0.10983470864E+00 -0.48477375453E-01 -0.44811313809E-01  0.12967372446E+00  0.19836880220E-01 0.  0.
         14    1    1    2    0    0 -0.52623253713E-02 -0.18334666624E-01 -0.11836667910E-01  0.22449026164E-01  0.00000000000E+00 0. -1.
     999901    1    3    3    0    0  0.11509703401E+00  0.66812042077E-01  0.56647981719E-01  0.89180724938E+00  0.88000000000E+00 0. -1.
        -11    1    4    4    0    0 -0.29332246082E-01 -0.22002934811E-01 -0.96203105017E-02  0.37912020465E-01  0.51100000000E-03 0.  1.
         11    1    4    4    0    0 -0.80502462560E-01 -0.26474440642E-01 -0.35191003308E-01  0.91761703996E-01  0.51100000000E-03 0. -1.
</event>
<event>
 8    1  0.1109294E+005  0.1043930E+01  0.7957747E-01            NaN
         13   -1    0    0    0    0  0.00000000000E+00  0.00000000000E+00  0.74505805969E-08  0.10566000000E+00  0.10566000000E+00 0.  1.
     999900   -1    0    0    0    0 -0.00000000000E+00 -0.00000000000E+00 -0.74505805969E-08  0.93827000000E+00  0.93827000000E+00 0. -1.
     999902    2    1    2    0    0  0.19707965678E-01  0.29146167839E-02  0.14187376699E-01  0.10194722699E+01  0.10191788502E+01 0.  0.
     999903    2    3    3    0    0 -0.26017146318E-01 -0.10212587516E+00  0.73465119043E-01  0.13006901969E+00  0.20352884028E-01 0.  0.
         14    1    1    2    0    0 -0.19707965678E-01 -0.29146167839E-02 -0.14187376699E-01  0.24457730062E-01  0.00000000000E+00 0. -1.
     999901    1    3    3    0    0  0.45725111997E-01  0.10504049194E+00 -0.59277742344E-01  0.88940325025E+00  0.88000000000E+00 0. -1.
        -11    1    4    4    0    0 -0.61002042099E-02 -0.38616001189E-01  0.16416212154E-01  0.42404730652E-01  0.51100000000E-03 0.  1.
         11    1    4    4    0    0 -0.19916942108E-01 -0.63509873968E-01  0.57048906889E-01  0.87664289038E-01  0.51100000000E-03 0. -1.
</event>
<event>
 8    1  0.1109294E+005  0.1043930E+01  0.7957747E-01            NaN
         13   -1    0    0    0    0  0.00000000000E+00  0.00000000000E+00  0.74505805969E-08  0.10566000000E+00  0.10566000000E+00 0. -1.
     999900   -1    0    0    0    0 -0.00000000000E+00 -0.00000000000E+00 -0.74505805969E-08  0.93827000000E+00  0.93827000000E+00 0.  1.
     999902    2    1    2    0    0 -0.17098230607E-01 -0.14570420567E-01  0.80312311493E-02  0.10200731913E+01  0.10197941794E+01 0.  0.
     999903    2    3    3    0    0  0.18870578938E-01  0.11936519414E+00  0.36161468862E-01  0.12876863373E+00  0.25875874503E-01 0.  0.
         14    1    1    2    0    0  0.17098230607E-01  0.14570420567E-01 -0.80312311493E-02  0.23856808654E-01  0.00000000000E+00 0. -1.
     999901    1    3    3    0    0 -0.35968809545E-01 -0.13393561471E+00 -0.28130237713E-01  0.89130455761E+00  0.88000000000E+00 0. -1.
        -11    1    4    4    0    0  0.12328421329E-01  0.10211918362E+00  0.21225548801E-01  0.10502905635E+00  0.51100000000E-03 0. -1.
         11    1    4    4    0    0  0.65421576090E-02  0.17246010523E-01  0.14935920061E-01  0.23739577381E-01  0.51100000000E-03 0.  1.
</event>
<event>
 8    1  0.1109294E+005  0.1043930E+01  0.7957747E-01            NaN
         13   -1    0    0    0    0  0.00000000000E+00  0.00000000000E+00  0.74505805969E-08  0.10566000000E+00  0.10566000000E+00 0. -1.
     999900   -1    0    0    0    0 -0.00000000000E+00 -0.00000000000E+00 -0.74505805969E-08  0.93827000000E+00  0.93827000000E+00 0.  1.
     999902    2    1    2    0    0 -0.11041462846E-01 -0.43612645732E-02 -0.20701500778E-01  0.10200660803E+01  0.10197869000E+01 0.  0.
     999903    2    3    3    0    0 -0.84465977029E-01 -0.33556492320E-01  0.90146014250E-01  0.12959952155E+00  0.20228510797E-01 0.  0.
         14    1    1    2    0    0  0.11041462846E-01  0.43612645732E-02  0.20701500778E-01  0.23863919730E-01  0.00000000000E+00 0.  1.
     999901    1    3    3    0    0  0.73424514183E-01  0.29195227747E-01 -0.11084751503E+00  0.89046655872E+00  0.88000000000E+00 0.  1.
        -11    1    4    4    0    0 -0.50058762075E-01 -0.14510475859E-01  0.39091703419E-01  0.65152559177E-01  0.51100000000E-03 0. -1.
         11    1    4    4    0    0 -0.34407214954E-01 -0.19046016461E-01  0.51054310831E-01  0.64446962375E-01  0.51100000000E-03 0.  1.
</event>
<event>
 8    1  0.1109294E+005  0.1043930E+01  0.7957747E-01            NaN
         13   -1    0    0    0    0  0.00000000000E+00  0.00000000000E+00  0.74505805969E-08  0.10566000000E+00  0.10566000000E+00 0.  1.
     999900   -1    0    0    0    0 -0.00000000000E+00 -0.00000000000E+00 -0.74505805969E-08  0.93827000000E+00  0.93827000000E+00 0.  1.
     999902    2    1    2    0    0  0.16112098358E-01  0.93672280352E-02 -0.14600744258E-01  0.10202545611E+01  0.10199798248E+01 0.  0.
     999903    2    3    3    0    0 -0.10155702676E+00  0.33014722922E-01 -0.72388026017E-01  0.13022950698E+00  0.17773479233E-01 0.  0.
         14    1    1    2    0    0 -0.16112098358E-01 -0.93672280352E-02  0.14600744258E-01  0.23675438907E-01  0.00000000000E+00 0.  1.
     999901    1    3    3    0    0  0.11766912511E+00 -0.23647494886E-01  0.57787281759E-01  0.89002505411E+00  0.88000000000E+00 0. -1.
        -11    1    4    4    0    0 -0.48720384394E-01  0.19096469104E-01 -0.45428991274E-01  0.69299389296E-01  0.51100000000E-03 0. -1.
         11    1    4    4    0    0 -0.52836642361E-01  0.13918253818E-01 -0.26959034743E-01  0.60930117681E-01  0.51100000000E-03 0.  1.
</event>
<event>
 8    1  0.1109294E+005  0.1043930E+01  0.7957747E-01            NaN
         13   -1    0    0    0    0  0.00000000000E+00  0.00000000000E+00  0.74505805969E-08  0.10566000000E+00  0.10566000000E+00 0. -1.
     999900   -1    0    0    0    0 -0.00000000000E+00 -0.00000000000E+00 -0.74505805969E-08  0.93827000000E+00  0.93827000000E+00 0. -1.
     999902    2    1    2    0    0  0.11906188019E-01  0.14609227769E-01 -0.14261738304E-01  0.10202956177E+01  0.10200218446E+01 0.  0.
     999903    2    3    3    0    0 -0.20412326203E-01 -0.82272656938E-01  0.93662500392E-01  0.12783932896E+00  0.19615731140E-01 0.  0.
         14    1    1    2    0    0 -0.11906188019E-01 -0.14609227769E-01  0.14261738304E-01  0.23634382340E-01  0.00000000000E+00 0. -1.
     999901    1    3    3    0    0  0.32318514221E-01  0.96881884707E-01 -0.10792423870E+00  0.89245628870E+00  0.88000000000E+00 0. -1.
        -11    1    4    4    0    0 -0.18629249684E-01 -0.47519914681E-01  0.65681768295E-01  0.83183814787E-01  0.51100000000E-03 0. -1.
         11    1    4    4    0    0 -0.17830765186E-02 -0.34752742257E-01  0.27980732097E-01  0.44655514171E-01  0.51100000000E-03 0.  1.
</event>
<event>
 8    1  0.1109294E+005  0.1043930E+01  0.7957747E-01            NaN
         13   -1    0    0    0    0  0.00000000000E+00  0.00000000000E+00  0.74505805969E-08  0.10566000000E+00  0.10566000000E+00 0. -1.
     999900   -1    0    0    0    0 -0.00000000000E+00 -0.00000000000E+00 -0.74505805969E-08  0.93827000000E+00  0.93827000000E+00 0.  1.
     999902    2    1    2    0    0  0.65851429384E-03  0.84285032008E-02  0.22946134579E-01  0.10194759942E+01  0.10191826649E+01 0.  0.
     999903    2    3    3    0    0  0.13559923884E-01  0.79496076268E-01  0.10368401529E+00  0.13283308317E+00  0.19767530955E-01 0.  0.
         14    1    1    2    0    0 -0.65851429384E-03 -0.84285032008E-02 -0.22946134579E-01  0.24454005794E-01  0.00000000000E+00 0.  1.
     999901    1    3    3    0    0 -0.12901409590E-01 -0.71067573067E-01 -0.80737880710E-01  0.88664291104E+00  0.88000000000E+00 0.  1.
        -11    1    4    4    0    0  0.41265945346E-03  0.55322420891E-01  0.65010742362E-01  0.85366259637E-01  0.51100000000E-03 0. -1.
         11    1    4    4    0    0  0.13147264431E-01  0.24173655377E-01  0.38673272926E-01  0.47466823531E-01  0.51100000000E-03 0.  1.
</event>
<event>
 8    1  0.1109294E+005  0.1043930E+01  0.7957747E-01            NaN
         13   -1    0    0    0    0  0.00000000000E+00  0.00000000000E+00  0.74505805969E-08  0.10566000000E+00  0.10566000000E+00 0. -1.
     999900   -1    0    0    0    0 -0.00000000000E+00 -0.00000000000E+00 -0.74505805969E-08  0.93827000000E+00  0.93827000000E+00 0.  1.
     999902    2    1    2    0    0  0.21858466287E-01 -0.72331657424E-02  0.90773669430E-03  0.10208879684E+01  0.10206278993E+01 0.  0.
     999903    2    3    3    0    0 -0.10632571859E+00 -0.13665651110E-01 -0.68664683283E-01  0.12886056760E+00  0.19957422174E-01 0.  0.
         14    1    1    2    0    0 -0.21858466287E-01  0.72331657424E-02 -0.90773669430E-03  0.23042031616E-01  0.00000000000E+00 0.  1.
     999901    1    3    3    0    0  0.12818418487E+00  0.64324853677E-02  0.69572419977E-01  0.89202740078E+00  0.88000000000E+00 0.  1.
        -11    1    4    4    0    0 -0.19966356753E-01 -0.98660853725E-02 -0.10194177231E-01  0.24498518588E-01  0.51100000000E-03 0. -1.
         11    1    4    4    0    0 -0.86359361833E-01 -0.37995657376E-02 -0.58470506052E-01  0.10436204902E+00  0.51100000000E-03 0.  1.
</event>
<event>
 8    1  0.1109294E+005  0.1043930E+01  0.7957747E-01            NaN
         13   -1    0    0    0    0  0.00000000000E+00  0.00000000000E+00  0.74505805969E-08  0.10566000000E+00  0.10566000000E+00 0.  1.
     999900   -1    0    0    0    0 -0.00000000000E+00 -0.00000000000E+00 -0.74505805969E-08  0.93827000000E+00  0.93827000000E+00 0.  1.
     999902    2    1    2    0    0 -0.11312854634E-01 -0.17894335161E-01  0.11187734848E-01  0.10199852026E+01  0.10197041043E+01 0.  0.
     999903    2    3    3    0    0  0.37031779763E-01  0.10838939462E+00 -0.51101786426E-01  0.12748043033E+00  0.22809076331E-01 0.  0.
         14    1    1    2    0    0  0.11312854634E-01  0.17894335161E-01 -0.11187734848E-01  0.23944797386E-01  0.00000000000E+00 0. -1.
     999901    1    3    3    0    0 -0.48344634397E-01 -0.12628372978E+00  0.62289521274E-01  0.89250477228E+00  0.88000000000E+00 0. -1.
        -11    1    4    4    0    0  0.22667854344E-01  0.92689584523E-01 -0.39914055084E-01  0.10343395774E+00  0.51100000000E-03 0.  1.
         11    1    4    4    0    0  0.14363925418E-01  0.15699810099E-01 -0.11187731342E-01  0.24046472593E-01  0.51100000000E-03 0. -1.
</event>
<event>
 8    1  0.1109294E+005  0.1043930E+01  0.7957747E-01            NaN
         13   -1    0    0    0    0  0.00000000000E+00  0.00000000000E+00  0.74505805969E-08  0.10566000000E+00  0.10566000000E+00 0.  1.
     999900   -1    0    0    0    0 -0.00000000000E+00 -0.00000000000E+00 -0.74505805969E-08  0.93827000000E+00  0.93827000000E+00 0.  1.
     999902    2    1    2    0    0  0.19190749215E-01  0.14577801015E-02  0.13702326730E-01  0.10203045109E+01  0.10200309462E+01 0.  0.
     999903    2    3    3    0    0  0.71283779868E-01 -0.87028619117E-01  0.67351439074E-01  0.13271127412E+00  0.20511170507E-01 0.  0.
         14    1    1    2    0    0 -0.19190749215E-01 -0.14577801015E-02 -0.13702326730E-01  0.23625489119E-01  0.00000000000E+00 0.  1.
     999901    1    3    3    0    0 -0.52093030652E-01  0.88486399219E-01 -0.53649112344E-01  0.88759323676E+00  0.88000000000E+00 0.  1.
        -11    1    4    4    0    0  0.43526740650E-01 -0.60852963090E-01  0.54061990198E-01  0.92307205427E-01  0.51100000000E-03 0. -1.
         11    1    4    4    0    0  0.27757039217E-01 -0.26175656027E-01  0.13289448876E-01  0.40404068693E-01  0.51100000000E-03 0.  1.
</event>
<event>
 8    1  0.1109294E+005  0.1043930E+01  0.7957747E-01            NaN
         13   -1    0    0    0    0  0.00000000000E+00  0.00000000000E+00  0.74505805969E-08  0.10566000000E+00  0.10566000000E+00 0. -1.
     999900   -1    0    0    0    0 -0.00000000000E+00 -0.00000000000E+00 -0.74505805969E-08  0.93827000000E+00  0.93827000000E+00 0. -1.
     999902    2    1    2    0    0  0.18307516811E-01 -0.81883057788E-02 -0.12371363226E-01  0.10203659564E+01  0.10200938294E+01 0.  0.
     999903    2    3    3    0    0 -0.14752057948E-01  0.12648469548E+00  0.67128783560E-02  0.12930256862E+00  0.21403039768E-01 0.  0.
         14    1    1    2    0    0 -0.18307516811E-01  0.81883057788E-02  0.12371363226E-01  0.23564043613E-01  0.00000000000E+00 0.  1.
     999901    1    3    3    0    0  0.33059574759E-01 -0.13467300126E+00 -0.19084241582E-01  0.89106338777E+00  0.88000000000E+00 0. -1.
        -11    1    4    4    0    0 -0.67192213534E-02  0.10169846899E+00 -0.16449229783E-02  0.10193475081E+00  0.51100000000E-03 0.  1.
         11    1    4    4    0    0 -0.80328365944E-02  0.24786226487E-01  0.83578013343E-02  0.27367817804E-01  0.51100000000E-03 0. -1.
</event>
<event>
 8    1  0.1109294E+005  0.1043930E+01  0.7957747E-01            NaN
         13   -1    0    0    0    0  0.00000000000E+00  0.00000000000E+00  0.74505805969E-08  0.10566000000E+00  0.10566000000E+00 0.  1.
     999900   -1    0    0    0    0 -0.00000000000E+00 -0.00000000000E+00 -0.74505805969E-08  0.93827000000E+00  0.93827000000E+00 0.  1.
     999902    2    1    2    0    0 -0.11958627974E-01 -0.11971214131E-01 -0.16946933803E-01  0.10199817784E+01  0.10197005987E+01 0.  0.
     999903    2    3    3    0    0  0.19836229535E-01  0.12461841017E+00 -0.16482474633E-01  0.12887692818E+00  0.20355993984E-01 0.  0.
         14    1    1    2    0    0  0.11958627974E-01  0.11971214131E-01  0.16946933803E-01  0.23948221565E-01  0.00000000000E+00 0. -1.
     999901    1    3    3    0    0 -0.31794857509E-01 -0.13658962430E+00 -0.46445917061E-03  0.89110485026E+00  0.88000000000E+00 0.  1.
        -11    1    4    4    0    0  0.17159074710E-01  0.93320258100E-01 -0.20873738373E-01  0.97154920058E-01  0.51100000000E-03 0. -1.
         11    1    4    4    0    0  0.26771548258E-02  0.31298152069E-01  0.43912637400E-02  0.31722008120E-01  0.51100000000E-03 0.  1.
</event>
<event>
 8    1  0.1109294E+005  0.1043930E+01  0.7957747E-01            NaN
         13   -1    0    0    0    0  0.00000000000E+00  0.00000000000E+00  0.74505805969E-08  0.10566000000E+00  0.10566000000E+00 0. -1.
     999900   -1    0    0    0    0 -0.00000000000E+00 -0.00000000000E+00 -0.74505805969E-08  0.93827000000E+00  0.93827000000E+00 0.  1.
     999902    2    1    2    0    0  0.18407568780E-01 -0.14639131882E-02  0.24639952118E-01  0.10131386234E+01  0.10126706086E+01 0.  0.
     999903    2    3    3    0    0  0.24180049979E-01  0.12019116559E+00 -0.17608522918E-02  0.12435840190E+00  0.20768255052E-01 0.  0.
         14    1    1    2    0    0 -0.18407568780E-01  0.14639131882E-02 -0.24639952118E-01  0.30791376561E-01  0.00000000000E+00 0.  1.
     999901    1    3    3    0    0 -0.57724811993E-02 -0.12165507878E+00  0.26400804409E-01  0.88878022154E+00  0.88000000000E+00 0. -1.
        -11    1    4    4    0    0  0.20453831631E-01  0.49810348965E-01  0.22315011599E-03  0.53849243350E-01  0.51100000000E-03 0. -1.
         11    1    4    4    0    0  0.37262183479E-02  0.70380816627E-01 -0.19840024078E-02  0.70509158546E-01  0.51100000000E-03 0.  1.
</event>
<event>
 8    1  0.1109294E+005  0.1043930E+01  0.7957747E-01            NaN
         13   -1    0    0    0    0  0.00000000000E+00  0.00000000000E+00  0.74505805969E-08  0.10566000000E+00  0.10566000000E+00 0.  1.
     999900   -1    0    0    0    0 -0.00000000000E+00 -0.00000000000E+00 -0.74505805969E-08  0.93827000000E+00  0.93827000000E+00 0. -1.
     999902    2    1    2    0    0 -0.64904286278E-02  0.11772634761E-01 -0.18586750610E-01  0.10209912143E+01  0.10207334969E+01 0.  0.
     999903    2    3    3    0    0 -0.95918085221E-01  0.88353321766E-01 -0.18406838954E-01  0.13315004617E+00  0.19584037769E-01 0.  0.
         14    1    1    2    0    0  0.64904286278E-02 -0.11772634761E-01  0.18586750610E-01  0.22938785741E-01  0.00000000000E+00 0.  1.
     999901    1    3    3    0    0  0.89427656593E-01 -0.76580687005E-01 -0.17991165619E-03  0.88784116809E+00  0.88000000000E+00 0. -1.
        -11    1    4    4    0    0 -0.31420210248E-01  0.31326261010E-01  0.28729327973E-02  0.44464357689E-01  0.51100000000E-03 0.  1.
         11    1    4    4    0    0 -0.64497874973E-01  0.57027060757E-01 -0.21279771752E-01  0.88685688481E-01  0.51100000000E-03 0. -1.
</event>
<event>
 8    1  0.1109294E+005  0.1043930E+01  0.7957747E-01            NaN
         13   -1    0    0    0    0  0.00000000000E+00  0.00000000000E+00  0.74505805969E-08  0.10566000000E+00  0.10566000000E+00 0.  1.
     999900   -1    0    0    0    0 -0.00000000000E+00 -0.00000000000E+00 -0.74505805969E-08  0.93827000000E+00  0.93827000000E+00 0.  1.
     999902    2    1    2    0    0 -0.12494861130E-01  0.63008369857E-02  0.18606983215E-01  0.10206482061E+01  0.10203826335E+01 0.  0.
     999903    2    3    3    0    0 -0.44143974403E-01 -0.11938319337E+00 -0.20035411716E-01  0.13031603411E+00  0.19488809285E-01 0.  0.
         14    1    1    2    0    0  0.12494861130E-01 -0.63008369857E-02 -0.18606983215E-01  0.23281793869E-01  0.00000000000E+00 0.  1.
     999901    1    3    3    0    0  0.31649113273E-01  0.12568403036E+00  0.38642394931E-01  0.89033217203E+00  0.88000000000E+00 0. -1.
        -11    1    4    4    0    0 -0.21509573741E-01 -0.84376514263E-01 -0.13674993467E-01  0.88143771698E-01  0.51100000000E-03 0.  1.
         11    1    4    4    0    0 -0.22634400662E-01 -0.35006679106E-01 -0.63604182487E-02  0.42172262408E-01  0.51100000000E-03 0. -1.
</event>
<event>
 8    1  0.1109294E+005  0.1043930E+01  0.7957747E-01            NaN
         13   -1    0    0    0    0  0.00000000000E+00  0.00000000000E+00  0.74505805969E-08  0.10566000000E+00  0.10566000000E+00 0. -1.
     999900   -1    0    0    0    0 -0.00000000000E+00 -0.00000000000E+00 -0.74505805969E-08  0.93827000000E+00  0.93827000000E+00 0. -1.
     999902    2    1    2    0    0  0.21136347182E-01 -0.54326622989E-02 -0.52021483858E-02  0.10214951757E+01  0.10212487810E+01 0.  0.
     999903    2    3    3    0    0 -0.32479166760E-01 -0.11096042522E+00 -0.60166711785E-01  0.13187062835E+00  0.20067814432E-01 0.  0.
         14    1    1    2    0    0 -0.21136347182E-01  0.54326622989E-02  0.52021483858E-02  0.22434824262E-01  0.00000000000E+00 0.  1.
     999901    1    3    3    0    0  0.53615513942E-01  0.10552776292E+00  0.54964563399E-01  0.88962454739E+00  0.88000000000E+00 0.  1.
        -11    1    4    4    0    0 -0.21578820639E-01 -0.61313693513E-01 -0.23199685528E-01  0.69018121113E-01  0.51100000000E-03 0.  1.
         11    1    4    4    0    0 -0.10900346120E-01 -0.49646731709E-01 -0.36967026257E-01  0.62852507238E-01  0.51100000000E-03 0. -1.
</event>
<event>
 8    1  0.1109294E+005  0.1043930E+01  0.7957747E-01            NaN
         13   -1    0    0    0    0  0.00000000000E+00  0.00000000000E+00  0.74505805969E-08  0.10566000000E+00  0.10566000000E+00 0. -1.
     999900   -1    0    0    0    0 -0.00000000000E+00 -0.00000000000E+00 -0.74505805969E-08  0.93827000000E+00  0.93827000000E+00 0.  1.
     999902    2    1    2    0    0  0.13431742908E-01 -0.16878186043E-01  0.97696291852E-02  0.10202502505E+01  0.10199754130E+01 0.  0.
     999903    2    3    3    0    0  0.66093688652E-01 -0.50706553398E-01  0.10199256917E+00  0.13321997502E+00  0.20138206034E-01 0.  0.
         14    1    1    2    0    0 -0.13431742908E-01  0.16878186043E-01 -0.97696291852E-02  0.23679749494E-01  0.00000000000E+00 0. -1.
     999901    1    3    3    0    0 -0.52661945743E-01  0.33828367354E-01 -0.92222939983E-01  0.88703027548E+00  0.88000000000E+00 0.  1.
        -11    1    4    4    0    0  0.33293564579E-01 -0.13767341490E-01  0.37851910761E-01  0.52259251844E-01  0.51100000000E-03 0. -1.
         11    1    4    4    0    0  0.32800124073E-01 -0.36939211907E-01  0.64140658407E-01  0.80960723177E-01  0.51100000000E-03 0.  1.
</event>
<event>
 8    1  0.1109294E+005  0.1043930E+01  0.7957747E-01            NaN
         13   -1    0    0    0    0  0.00000000000E+00  0.00000000000E+00  0.74505805969E-08  0.10566000000E+00  0.10566000000E+00 0.  1.
     999900   -1    0    0    0    0 -0.00000000000E+00 -0.00000000000E+00 -0.74505805969E-08  0.93827000000E+00  0.93827000000E+00 0. -1.
     999902    2    1    2    0    0 -0.14020846366E-01  0.13609184813E-01 -0.14148593680E-01  0.10198058058E+01  0.10195204288E+01 0.  0.
     999903    2    3    3    0    0  0.36028520865E-01 -0.11960892713E+00 -0.20897561441E-01  0.12834770071E+00  0.20786400343E-01 0.  0.
         14    1    1    2    0    0  0.14020846366E-01 -0.13609184813E-01  0.14148593680E-01  0.24124194230E-01  0.00000000000E+00 0.  1.
     999901    1    3    3    0    0 -0.50049367231E-01  0.13321811194E+00  0.67489677613E-02  0.89145810506E+00  0.88000000000E+00 0. -1.
        -11    1    4    4    0    0  0.58092764059E-02 -0.47183976825E-01 -0.17893333578E-02  0.47576656001E-01  0.51100000000E-03 0.  1.
         11    1    4    4    0    0  0.30219244459E-01 -0.72424950303E-01 -0.19108228084E-01  0.80771044710E-01  0.51100000000E-03 0. -1.
</event>
<event>
 8    1  0.1109294E+005  0.1043930E+01  0.7957747E-01            NaN
         13   -1    0    0    0    0  0.00000000000E+00  0.00000000000E+00  0.74505805969E-08  0.10566000000E+00  0.10566000000E+00 0.  1.
     999900   -1    0    0    0    0 -0.00000000000E+00 -0.00000000000E+00 -0.74505805969E-08  0.93827000000E+00  0.93827000000E+00 0.  1.
     999902    2    1    2    0    0 -0.15520330799E-02  0.11304522371E-01 -0.20786000461E-01  0.10202180020E+01  0.10199424066E+01 0.  0.
     999903    2    3    3    0    0 -0.90865219648E-01 -0.41466538404E-01  0.78502957840E-01  0.12857910236E+00  0.19847146552E-01 0.  0.
         14    1    1    2    0    0  0.15520330799E-02 -0.11304522371E-01  0.20786000461E-01  0.23711997973E-01  0.00000000000E+00 0.  1.
     999901    1    3    3    0    0  0.89313186568E-01  0.52771060775E-01 -0.99288958302E-01  0.89163889966E+00  0.88000000000E+00 0.  1.
        -11    1    4    4    0    0 -0.89975878990E-02 -0.24169199895E-02  0.15667425215E-01  0.18235334494E-01  0.51100000000E-03 0. -1.
         11    1    4    4    0    0 -0.81867631749E-01 -0.39049618415E-01  0.62835532625E-01  0.11034376787E+00  0.51100000000E-03 0.  1.
</event>
<event>
 8    1  0.1109294E+005  0.1043930E+01  0.7957747E-01            NaN
         13   -1    0    0    0    0  0.00000000000E+00  0.00000000000E+00  0.74505805969E-08  0.10566000000E+00  0.10566000000E+00 0.  1.
     999900   -1    0    0    0    0 -0.00000000000E+00 -0.00000000000E+00 -0.74505805969E-08  0.93827000000E+00  0.93827000000E+00 0. -1.
     999902    2    1    2    0    0 -0.10173485628E-03 -0.22316979101E-02 -0.20809481855E-01  0.10230009446E+01  0.10227868337E+01 0.  0.
     999903    2    3    3    0    0 -0.90010676244E-01 -0.48193774520E-01 -0.87414617390E-01  0.13472600161E+00  0.92313832635E-02 0.  0.
         14    1    1    2    0    0  0.10173485628E-03  0.22316979101E-02  0.20809481855E-01  0.20929055417E-01  0.00000000000E+00 0.  1.
     999901    1    3    3    0    0  0.89908941387E-01  0.45962076610E-01  0.66605135535E-01  0.88827494297E+00  0.88000000000E+00 0.  1.
        -11    1    4    4    0    0 -0.24351549484E-01 -0.97315763015E-02 -0.26080938561E-01  0.36988890451E-01  0.51100000000E-03 0. -1.
         11    1    4    4    0    0 -0.65659126760E-01 -0.38462198219E-01 -0.61333678830E-01  0.97737111163E-01  0.51100000000E-03 0.  1.
</event>
<event>
 8    1  0.1109294E+005  0.1043930E+01  0.7957747E-01            NaN
         13   -1    0    0    0    0  0.00000000000E+00  0.00000000000E+00  0.74505805969E-08  0.10566000000E+00  0.10566000000E+00 0. -1.
     999900   -1    0    0    0    0 -0.00000000000E+00 -0.00000000000E+00 -0.74505805969E-08  0.93827000000E+00  0.93827000000E+00 0.  1.
     999902    2    1    2    0    0 -0.18092322702E-01 -0.71875579239E-02 -0.14192752551E-01  0.10198379400E+01  0.10195533319E+01 0.  0.
     999903    2    3    3    0    0  0.12502921409E+00  0.95897051601E-02 -0.16812450631E-01  0.12811370367E+00  0.20154298580E-01 0.  0.
         14    1    1    2    0    0  0.18092322702E-01  0.71875579239E-02  0.14192752551E-01  0.24092059992E-01  0.00000000000E+00 0. -1.
     999901    1    3    3    0    0 -0.14312153679E+00 -0.16777263084E-01  0.26196980793E-02  0.89172423634E+00  0.88000000000E+00 0.  1.
        -11    1    4    4    0    0  0.77816997746E-01  0.15711879842E-01 -0.98802615399E-02  0.80001431208E-01  0.51100000000E-03 0. -1.
         11    1    4    4    0    0  0.47212216345E-01 -0.61221746819E-02 -0.69321890906E-02  0.48112272464E-01  0.51100000000E-03 0.  1.
</event>
<event>
 8    1  0.1109294E+005  0.1043930E+01  0.7957747E-01            NaN
         13   -1    0    0    0    0  0.00000000000E+00  0.00000000000E+00  0.74505805969E-08  0.10566000000E+00  0.10566000000E+00 0.  1.
     999900   -1    0    0    0    0 -0.00000000000E+00 -0.00000000000E+00 -0.74505805969E-08  0.93827000000E+00  0.93827000000E+00 0.  1.
     999902    2    1    2    0    0  0.33714142603E-02  0.99306426519E-02  0.21352134596E-01  0.10201413945E+01  0.10198639944E+01 0.  0.
     999903    2    3    3    0    0 -0.89874663998E-01  0.89995910600E-01 -0.20673882852E-01  0.13060698578E+00  0.21308593296E-01 0.  0.
         14    1    1    2    0    0 -0.33714142603E-02 -0.99306426519E-02 -0.21352134596E-01  0.23788605453E-01  0.00000000000E+00 0.  1.
     999901    1    3    3    0    0  0.93246078258E-01 -0.80065267948E-01  0.42026017448E-01  0.88953440877E+00  0.88000000000E+00 0. -1.
        -11    1    4    4    0    0 -0.61252904804E-01  0.56986168218E-01 -0.37408240604E-02  0.83747218466E-01  0.51100000000E-03 0. -1.
         11    1    4    4    0    0 -0.28621759194E-01  0.33009742382E-01 -0.16933058791E-01  0.46859767312E-01  0.51100000000E-03 0.  1.
</event>
<event>
 8    1  0.1109294E+005  0.1043930E+01  0.7957747E-01            NaN
         13   -1    0    0    0    0  0.00000000000E+00  0.00000000000E+00  0.74505805969E-08  0.10566000000E+00  0.10566000000E+00 0. -1.
     999900   -1    0    0    0    0 -0.00000000000E+00 -0.00000000000E+00 -0.74505805969E-08  0.93827000000E+00  0.93827000000E+00 0. -1.
     999902    2    1    2    0    0 -0.21474430429E-01  0.76531380477E-02  0.67825412318E-02  0.10201450352E+01  0.10198677210E+01 0.  0.
     999903    2    3    3    0    0 -0.89761470624E-01 -0.10812778915E-01  0.95385222053E-01  0.13287137676E+00  0.19555673816E-01 0.  0.
         14    1    1    2    0    0  0.21474430429E-01 -0.76531380477E-02 -0.67825412318E-02  0.23784964785E-01  0.00000000000E+00 0.  1.
     999901    1    3    3    0    0  0.68287040195E-01  0.18465916963E-01 -0.88602680821E-01  0.88727365846E+00  0.88000000000E+00 0. -1.
        -11    1    4    4    0    0 -0.49041957587E-01  0.13390520359E-02  0.41614545738E-01  0.64334580144E-01  0.51100000000E-03 0.  1.
         11    1    4    4    0    0 -0.40719513037E-01 -0.12151830951E-01  0.53770676315E-01  0.68536796612E-01  0.51100000000E-03 0. -1.
</event>
<event>
 8    1  0.1109294E+005  0.1043930E+01  0.7957747E-01            NaN
         13   -1    0    0    0    0  0.00000000000E+00  0.00000000000E+00  0.74505805969E-08  0.10566000000E+00  0.10566000000E+00 0. -1.
     999900   -1    0    0    0    0 -0.00000000000E+00 -0.00000000000E+00 -0.74505805969E-08  0.93827000000E+00  0.93827000000E+00 0. -1.
     999902    2    1    2    0    0 -0.61061508736E-03 -0.30990797417E-02 -0.22694294643E-01  0.10210169436E+01  0.10207598106E+01 0.  0.
     999903    2    3    3    0    0  0.88071184853E-01  0.62163131197E-01 -0.74670704663E-01  0.13263348749E+00  0.19878113292E-01 0.  0.
         14    1    1    2    0    0  0.61061508736E-03  0.30990797417E-02  0.22694294643E-01  0.22913056439E-01  0.00000000000E+00 0. -1.
     999901    1    3    3    0    0 -0.88681799940E-01 -0.65262210939E-01  0.51976410020E-01  0.88838345607E+00  0.88000000000E+00 0. -1.
        -11    1    4    4    0    0  0.51888548712E-01  0.43917930958E-01 -0.55706078610E-01  0.87889899660E-01  0.51100000000E-03 0. -1.
         11    1    4    4    0    0  0.36182636141E-01  0.18245200239E-01 -0.18964626052E-01  0.44743587833E-01  0.51100000000E-03 0.  1.
</event>
<event>
 8    1  0.1109294E+005  0.1043930E+01  0.7957747E-01            NaN
         13   -1    0    0    0    0  0.00000000000E+00  0.00000000000E+00  0.74505805969E-08  0.10566000000E+00  0.10566000000E+00 0.  1.
     999900   -1    0    0    0    0 -0.00000000000E+00 -0.00000000000E+00 -0.74505805969E-08  0.93827000000E+00  0.93827000000E+00 0. -1.
     999902    2    1    2    0    0 -0.22569547759E-01 -0.82641939955E-02 -0.12212699665E-02  0.10198639889E+01  0.10195800033E+01 0.  0.
     999903    2    3    3    0    0  0.39670372393E-01 -0.58155553750E-01 -0.10596112438E+00  0.13006997201E+00  0.27104074625E-01 0.  0.
         14    1    1    2    0    0  0.22569547759E-01  0.82641939955E-02  0.12212699665E-02  0.24066011069E-01  0.00000000000E+00 0.  1.
     999901    1    3    3    0    0 -0.62239920152E-01  0.49891359755E-01  0.10473985442E+00  0.88979401692E+00  0.88000000000E+00 0.  1.
        -11    1    4    4    0    0  0.29557483778E-01 -0.41770811006E-01 -0.95006057065E-01  0.10791134092E+00  0.51100000000E-03 0.  1.
         11    1    4    4    0    0  0.10112888615E-01 -0.16384742745E-01 -0.10955067318E-01  0.22158631093E-01  0.51100000000E-03 0. -1.
</event>
<event>
 8    1  0.1109294E+005  0.1043930E+01  0.7957747E-01            NaN
         13   -1    0    0    0    0  0.00000000000E+00  0.00000000000E+00  0.74505805969E-08  0.10566000000E+00  0.10566000000E+00 0. -1.
     999900   -1    0    0    0    0 -0.00000000000E+00 -0.00000000000E+00 -0.74505805969E-08  0.93827000000E+00  0.93827000000E+00 0. -1.
     999902    2    1    2    0    0 -0.12155244528E-01  0.19511921288E-01 -0.89942183964E-03  0.10209240442E+01  0.10206647981E+01 0.  0.
     999903    2    3    3    0    0  0.10121546206E+00 -0.64492989771E-01  0.41951668822E-01  0.12865392919E+00  0.19697093439E-01 0.  0.
         14    1    1    2    0    0  0.12155244528E-01 -0.19511921288E-01  0.89942183964E-03  0.23005955784E-01  0.00000000000E+00 0. -1.
     999901    1    3    3    0    0 -0.11337070659E+00  0.84004911059E-01 -0.42851090661E-01  0.89227011502E+00  0.88000000000E+00 0.  1.
        -11    1    4    4    0    0  0.46149058776E-01 -0.37352824831E-01  0.13017748041E-01  0.60783978430E-01  0.51100000000E-03 0. -1.
         11    1    4    4    0    0  0.55066403284E-01 -0.27140164940E-01  0.28933920781E-01  0.67869950762E-01  0.51100000000E-03 0.  1.
</event>
<event>
 8    1  0.1109294E+005  0.1043930E+01  0.7957747E-01            NaN
         13   -1    0    0    0    0  0.00000000000E+00  0.00000000000E+00  0.74505805969E-08  0.10566000000E+00  0.10566000000E+00 0.  1.
     999900   -1    0    0    0    0 -0.00000000000E+00 -0.00000000000E+00 -0.74505805969E-08  0.93827000000E+00  0.93827000000E+00 0. -1.
     999902    2    1    2    0    0 -0.24422177355E-02 -0.22680633688E-01 -0.42649074980E-02  0.10207229966E+01  0.10204591470E+01 0.  0.
     999903    2    3    3    0    0  0.25925976726E-01  0.12182796161E+00 -0.24932626823E-01  0.12824630602E+00  0.17642863378E-01 0.  0.
         14    1    1    2    0    0  0.24422177355E-02  0.22680633688E-01  0.42649074980E-02  0.23207003424E-01  0.00000000000E+00 0.  1.
     999901    1    3    3    0    0 -0.28368194462E-01 -0.14450859529E+00  0.20667719325E-01  0.89247669056E+00  0.88000000000E+00 0. -1.
        -11    1    4    4    0    0  0.93395291362E-02  0.80512194658E-01 -0.12436849742E-01  0.82002296588E-01  0.51100000000E-03 0.  1.
         11    1    4    4    0    0  0.16586447590E-01  0.41315766948E-01 -0.12495777081E-01  0.46244009428E-01  0.51100000000E-03 0. -1.
</event>
<event>
 8    1  0.1109294E+005  0.1043930E+01  0.7957747E-01            NaN
         13   -1    0    0    0    0  0.00000000000E+00  0.00000000000E+00  0.74505805969E-08  0.10566000000E+00  0.10566000000E+00 0.  1.
     999900   -1    0    0    0    0 -0.00000000000E+00 -0.00000000000E+00 -0.74505805969E-08  0.93827000000E+00  0.93827000000E+00 0. -1.
     999902    2    1    2    0    0 -0.48992750823E-02  0.11749011160E-01  0.14235824518E-01  0.10248328573E+01  0.10246549100E+01 0.  0.
     999903    2    3    3    0    0 -0.39949902435E-01  0.11782273823E+00  0.54187920913E-01  0.13687094818E+00  0.17864303342E-01 0.  0.
         14    1    1    2    0    0  0.48992750823E-02 -0.11749011160E-01 -0.14235824518E-01  0.19097142699E-01  0.00000000000E+00 0. -1.
     999901    1    3    3    0    0  0.35050627353E-01 -0.10607372707E+00 -0.39952096395E-01  0.88796190913E+00  0.88000000000E+00 0.  1.
        -11    1    4    4    0    0 -0.36790403923E-01  0.83913888573E-01  0.39178658741E-01  0.99650905355E-01  0.51100000000E-03 0. -1.
         11    1    4    4    0    0 -0.31594985124E-02  0.33908849653E-01  0.15009262172E-01  0.37220042820E-01  0.51100000000E-03 0.  1.
</event>
<event>
 8    1  0.1109294E+005  0.1043930E+01  0.7957747E-01            NaN
         13   -1    0    0    0    0  0.00000000000E+00  0.00000000000E+00  0.74505805969E-08  0.10566000000E+00  0.10566000000E+00 0.  1.
     999900   -1    0    0    0    0 -0.00000000000E+00 -0.00000000000E+00 -0.74505805969E-08  0.93827000000E+00  0.93827000000E+00 0.  1.
     999902    2    1    2    0    0 -0.48887557928E-02 -0.38808695781E-02 -0.22957370404E-01  0.10201392048E+01  0.10198617530E+01 0.  0.
     999903    2    3    3    0    0  0.13410807239E-01  0.68133725245E-01  0.10505759418E+00  0.12777783905E+00  0.21633857485E-01 0.  0.
         14    1    1    2    0    0  0.48887557928E-02  0.38808695781E-02  0.22957370404E-01  0.23790795232E-01  0.00000000000E+00 0.  1.
     999901    1    3    3    0    0 -0.18299563032E-01 -0.72014594823E-01 -0.12801496459E+00  0.89236136572E+00  0.88000000000E+00 0.  1.
        -11    1    4    4    0    0  0.17122332044E-01  0.34745250195E-01  0.49576136821E-01  0.62916302568E-01  0.51100000000E-03 0. -1.
         11    1    4    4    0    0 -0.37115248047E-02  0.33388475050E-01  0.55481457361E-01  0.64861536479E-01  0.51100000000E-03 0.  1.
</event>
<event>
 8    1  0.1109294E+005  0.1043930E+01  0.7957747E-01            NaN
         13   -1    0    0    0    0  0.00000000000E+00  0.00000000000E+00  0.74505805969E-08  0.10566000000E+00  0.10566000000E+00 0.  1.
     999900   -1    0    0    0    0 -0.00000000000E+00 -0.00000000000E+00 -0.74505805969E-08  0.93827000000E+00  0.93827000000E+00 0. -1.
     999902    2    1    2    0    0 -0.18404981992E-01  0.10383204383E-01  0.10044013993E-01  0.10205326388E+01  0.10202643923E+01 0.  0.
     999903    2    3    3    0    0 -0.30701392987E-01 -0.76671855884E-01 -0.97889123242E-01  0.12958968473E+00  0.19749858821E-01 0.  0.
         14    1    1    2    0    0  0.18404981992E-01 -0.10383204383E-01 -0.10044013993E-01  0.23397361229E-01  0.00000000000E+00 0. -1.
     999901    1    3    3    0    0  0.12296410995E-01  0.87055060267E-01  0.10793313723E+00  0.89094295404E+00  0.88000000000E+00 0.  1.
        -11    1    4    4    0    0 -0.21197000725E-01 -0.29746990937E-01 -0.35427540323E-01  0.50887798575E-01  0.51100000000E-03 0. -1.
         11    1    4    4    0    0 -0.95043922613E-02 -0.46924864947E-01 -0.62461582919E-01  0.78701886155E-01  0.51100000000E-03 0.  1.
</event>
<event>
 8    1  0.1109294E+005  0.1043930E+01  0.7957747E-01            NaN
         13   -1    0    0    0    0  0.00000000000E+00  0.00000000000E+00  0.74505805969E-08  0.10566000000E+00  0.10566000000E+00 0. -1.
     999900   -1    0    0    0    0 -0.00000000000E+00 -0.00000000000E+00 -0.74505805969E-08  0.93827000000E+00  0.93827000000E+00 0. -1.
     999902    2    1    2    0    0  0.40095131718E-02 -0.22927076498E-01  0.72543392761E-02  0.10195506548E+01  0.10192591355E+01 0.  0.
     999903    2    3    3    0    0 -0.97165947137E-01 -0.84446003243E-01  0.91489918021E-02  0.13161786355E+00  0.25830393117E-01 0.  0.
         14    1    1    2    0    0 -0.40095131718E-02  0.22927076498E-01 -0.72543392761E-02  0.24379345171E-01  0.00000000000E+00 0.  1.
     999901    1    3    3    0    0  0.10117546031E+00  0.61518926745E-01 -0.18946525260E-02  0.88793279128E+00  0.88000000000E+00 0.  1.
        -11    1    4    4    0    0 -0.85435200698E-01 -0.77372591693E-01  0.23196174173E-03  0.11526493999E+00  0.51100000000E-03 0.  1.
         11    1    4    4    0    0 -0.11730746438E-01 -0.70734115499E-02  0.89170300603E-02  0.16352923563E-01  0.51100000000E-03 0. -1.
</event>
<event>
 8    1  0.1109294E+005  0.1043930E+01  0.7957747E-01            NaN
         13   -1    0    0    0    0  0.00000000000E+00  0.00000000000E+00  0.74505805969E-08  0.10566000000E+00  0.10566000000E+00 0. -1.
     999900   -1    0    0    0    0 -0.00000000000E+00 -0.00000000000E+00 -0.74505805969E-08  0.93827000000E+00  0.93827000000E+00 0.  1.
     999902    2    1    2    0    0  0.11784529385E-01 -0.23585327500E-02  0.21550364071E-01  0.10192549924E+01  0.10189562716E+01 0.  0.
     999903    2    3    3    0    0 -0.11533967408E+00  0.30049680961E-01  0.45858448372E-01  0.12919783782E+00  0.19566815438E-01 0.  0.
         14    1    1    2    0    0 -0.11784529385E-01  0.23585327500E-02 -0.21550364071E-01  0.24675007623E-01  0.00000000000E+00 0.  1.
     999901    1    3    3    0    0  0.12712420347E+00 -0.32408213710E-01 -0.24308084301E-01  0.89005715456E+00  0.88000000000E+00 0.  1.
        -11    1    4    4    0    0 -0.40566113810E-01  0.58463447793E-02  0.72222204131E-02  0.41619838126E-01  0.51100000000E-03 0. -1.
         11    1    4    4    0    0 -0.74773560271E-01  0.24203336181E-01  0.38636227959E-01  0.87577999690E-01  0.51100000000E-03 0.  1.
</event>
<event>
 8    1  0.1109294E+005  0.1043930E+01  0.7957747E-01            NaN
         13   -1    0    0    0    0  0.00000000000E+00  0.00000000000E+00  0.74505805969E-08  0.10566000000E+00  0.10566000000E+00 0. -1.
     999900   -1    0    0    0    0 -0.00000000000E+00 -0.00000000000E+00 -0.74505805969E-08  0.93827000000E+00  0.93827000000E+00 0.  1.
     999902    2    1    2    0    0 -0.20224356929E-01  0.24183180397E-02  0.11382816682E-01  0.10205967321E+01  0.10203299702E+01 0.  0.
     999903    2    3    3    0    0  0.32910023073E-01 -0.86891637303E-01  0.90092068512E-01  0.13099306934E+00  0.20233070843E-01 0.  0.
         14    1    1    2    0    0  0.20224356929E-01 -0.24183180397E-02 -0.11382816682E-01  0.23333267901E-01  0.00000000000E+00 0.  1.
     999901    1    3    3    0    0 -0.53134380002E-01  0.89309955343E-01 -0.78709251830E-01  0.88960366275E+00  0.88000000000E+00 0. -1.
        -11    1    4    4    0    0  0.34108673325E-01 -0.80778427802E-01  0.88411112892E-01  0.12452044811E+00  0.51100000000E-03 0.  1.
         11    1    4    4    0    0 -0.11986502524E-02 -0.61132095007E-02  0.16809556202E-02  0.64726212328E-02  0.51100000000E-03 0. -1.
</event>
<event>
 8    1  0.1109294E+005  0.1043930E+01  0.7957747E-01            NaN
         13   -1    0    0    0    0  0.00000000000E+00  0.00000000000E+00  0.74505805969E-08  0.10566000000E+00  0.10566000000E+00 0. -1.
     999900   -1    0    0    0    0 -0.00000000000E+00 -0.00000000000E+00 -0.74505805969E-08  0.93827000000E+00  0.93827000000E+00 0. -1.
     999902    2    1    2    0    0 -0.18373649417E-01  0.16022079031E-01  0.41351246677E-03  0.10195482650E+01  0.10192566878E+01 0.  0.
     999903    2    3    3    0    0 -0.83343369426E-01 -0.55751070001E-01 -0.78851504227E-01  0.13069766320E+00  0.28460857562E-01 0.  0.
         14    1    1    2    0    0  0.18373649417E-01 -0.16022079031E-01 -0.41351246677E-03  0.24381735007E-01  0.00000000000E+00 0.  1.
     999901    1    3    3    0    0  0.64969720009E-01  0.71773149031E-01  0.79265016694E-01  0.88885060179E+00  0.88000000000E+00 0. -1.
        -11    1    4    4    0    0 -0.13686335506E-01 -0.20496446327E-01 -0.99988640430E-02  0.26601851341E-01  0.51100000000E-03 0.  1.
         11    1    4    4    0    0 -0.69657033920E-01 -0.35254623673E-01 -0.68852640184E-01  0.10409581186E+00  0.51100000000E-03 0. -1.
</event>
<event>
 8    1  0.1109294E+005  0.1043930E+01  0.7957747E-01            NaN
         13   -1    0    0    0    0  0.00000000000E+00  0.00000000000E+00  0.74505805969E-08  0.10566000000E+00  0.10566000000E+00 0.  1.
     999900   -1    0    0    0    0 -0.00000000000E+00 -0.00000000000E+00 -0.74505805969E-08  0.93827000000E+00  0.93827000000E+00 0. -1.
     999902    2    1    2    0    0  0.27011830642E-02 -0.40974643452E-02  0.23828663794E-01  0.10196011936E+01  0.10193108962E+01 0.  0.
     999903    2    3    3    0    0 -0.35576393825E-01 -0.23872664052E-01  0.12430757815E+00  0.13283614935E+00  0.18907265872E-01 0.  0.
         14    1    1    2    0    0 -0.27011830642E-02  0.40974643452E-02 -0.23828663794E-01  0.24328806428E-01  0.00000000000E+00 0. -1.
     999901    1    3    3    0    0  0.38277576889E-01  0.19775199706E-01 -0.10047891436E+00  0.88676504422E+00  0.88000000000E+00 0. -1.
        -11    1    4    4    0    0 -0.27337979714E-02 -0.86832437492E-02  0.41107008916E-01  0.42106052729E-01  0.51100000000E-03 0.  1.
         11    1    4    4    0    0 -0.32842595853E-01 -0.15189420302E-01  0.83200569235E-01  0.90730096625E-01  0.51100000000E-03 0. -1.
</event>
<event>
 8    1  0.1109294E+005  0.1043930E+01  0.7957747E-01            NaN
         13   -1    0    0    0    0  0.00000000000E+00  0.00000000000E+00  0.74505805969E-08  0.10566000000E+00  0.10566000000E+00 0. -1.
     999900   -1    0    0    0    0 -0.00000000000E+00 -0.00000000000E+00 -0.74505805969E-08  0.93827000000E+00  0.93827000000E+00 0. -1.
     999902    2    1    2    0    0 -0.22115322191E-01 -0.66173083244E-02  0.42653200342E-02  0.10204551368E+01  0.10201850896E+01 0.  0.
     999903    2    3    3    0    0  0.71847201051E-01  0.98792793333E-01  0.35463406254E-01  0.12865159016E+00  0.19275428741E-01 0.  0.
         14    1    1    2    0    0  0.22115322191E-01  0.66173083244E-02 -0.42653200342E-02  0.23474863154E-01  0.00000000000E+00 0.  1.
     999901    1    3    3    0    0 -0.93962523243E-01 -0.10541010166E+00 -0.31198086220E-01  0.89180354669E+00  0.88000000000E+00 0. -1.
        -11    1    4    4    0    0  0.19205727416E-01  0.31470111906E-01  0.21745971430E-02  0.36935320531E-01  0.51100000000E-03 0. -1.
         11    1    4    4    0    0  0.52641473636E-01  0.67322681426E-01  0.33288809111E-01  0.91716269626E-01  0.51100000000E-03 0.  1.
</event>
<event>
 8    1  0.1109294E+005  0.1043930E+01  0.7957747E-01            NaN
         13   -1    0    0    0    0  0.00000000000E+00  0.00000000000E+00  0.74505805969E-08  0.10566000000E+00  0.10566000000E+00 0.  1.
     999900   -1    0    0    0    0 -0.00000000000E+00 -0.00000000000E+00 -0.74505805969E-08  0.93827000000E+00  0.93827000000E+00 0.  1.
     999902    2    1    2    0    0 -0.21044421609E-01 -0.93941690282E-02 -0.25901681488E-02  0.10207389012E+01  0.10204754173E+01 0.  0.
     999903    2    3    3    0    0 -0.11920203270E+00  0.24347824868E-01  0.50375226073E-01  0.13305721740E+00  0.19094986913E-01 0.  0.
         14    1    1    2    0    0  0.21044421609E-01  0.93941690282E-02  0.25901681488E-02  0.23191098801E-01  0.00000000000E+00 0. -1.
     999901    1    3    3    0    0  0.98157611089E-01 -0.33741993896E-01 -0.52965394221E-01  0.88768168380E+00  0.88000000000E+00 0.  1.
        -11    1    4    4    0    0 -0.70091711193E-01  0.72358810332E-02  0.22050038911E-01  0.73835433833E-01  0.51100000000E-03 0. -1.
         11    1    4    4    0    0 -0.49110321505E-01  0.17111943835E-01  0.28325187161E-01  0.59221783567E-01  0.51100000000E-03 0.  1.
</event>
<event>
 8    1  0.1109294E+005  0.1043930E+01  0.7957747E-01            NaN
         13   -1    0    0    0    0  0.00000000000E+00  0.00000000000E+00  0.74505805969E-08  0.10566000000E+00  0.10566000000E+00 0.  1.
     999900   -1    0    0    0    0 -0.00000000000E+00 -0.00000000000E+00 -0.74505805969E-08  0.93827000000E+00  0.93827000000E+00 0. -1.
     999902    2    1    2    0    0 -0.11294762440E-02  0.31907204433E-02  0.23827428078E-01  0.10198633687E+01  0.10195793682E+01 0.  0.
     999903    2    3    3    0    0 -0.12727556536E+00  0.11993474979E-01  0.19456892646E-01  0.13081363675E+00  0.19766737459E-01 0.  0.
         14    1    1    2    0    0  0.11294762440E-02 -0.31907204433E-02 -0.23827428078E-01  0.24066631304E-01  0.00000000000E+00 0. -1.
     999901    1    3    3    0    0  0.12614608911E+00 -0.88027545357E-02  0.43705354319E-02  0.88904973194E+00  0.88000000000E+00 0. -1.
        -11    1    4    4    0    0 -0.67008766246E-01  0.16149080823E-01  0.93003044345E-02  0.69553751507E-01  0.51100000000E-03 0.  1.
         11    1    4    4    0    0 -0.60266799113E-01 -0.41556058436E-02  0.10156588211E-01  0.61259885246E-01  0.51100000000E-03 0. -1.
</event>
<event>
 8    1  0.1109294E+005  0.1043930E+01  0.7957747E-01            NaN
         13   -1    0    0    0    0  0.00000000000E+00  0.00000000000E+00  0.74505805969E-08  0.10566000000E+00  0.10566000000E+00 0. -1.
     999900   -1    0    0    0    0 -0.00000000000E+00 -0.00000000000E+00 -0.74505805969E-08  0.93827000000E+00  0.93827000000E+00 0. -1.
     999902    2    1    2    0    0  0.16962047965E-01 -0.10991313900E-01  0.14205531575E-01  0.10192254016E+01  0.10189259552E+01 0.  0.
     999903    2    3    3    0    0  0.56508228839E-01 -0.67527478073E-01  0.97105348933E-01  0.13264059578E+00  0.20271621434E-01 0.  0.
         14    1    1    2    0    0 -0.16962047965E-01  0.10991313900E-01 -0.14205531575E-01  0.24704598352E-01  0.00000000000E+00 0. -1.
     999901    1    3    3    0    0 -0.39546180874E-01  0.56536164173E-01 -0.82899817358E-01  0.88658480587E+00  0.88000000000E+00 0. -1.
        -11    1    4    4    0    0  0.54174203084E-01 -0.53658366828E-01  0.80710224375E-01  0.11103362576E+00  0.51100000000E-03 0.  1.
         11    1    4    4    0    0  0.23340257546E-02 -0.13869111245E-01  0.16395124558E-01  0.21606970015E-01  0.51100000000E-03 0. -1.
</event>
<event>
 8    1  0.1109294E+005  0.1043930E+01  0.7957747E-01            NaN
         13   -1    0    0    0    0  0.00000000000E+00  0.00000000000E+00  0.74505805969E-08  0.10566000000E+00  0.10566000000E+00 0.  1.
     999900   -1    0    0    0    0 -0.00000000000E+00 -0.00000000000E+00 -0.74505805969E-08  0.93827000000E+00  0.93827000000E+00 0.  1.
     999902    2    1    2    0    0  0.88116276663E-02 -0.42207310745E-03  0.21153518248E-01  0.10210107011E+01  0.10207534264E+01 0.  0.
     999903    2    3    3    0    0 -0.63255825187E-01 -0.10220929538E+00 -0.44669276931E-01  0.12978289815E+00  0.20005420993E-01 0.  0.
         14    1    1    2    0    0 -0.88116276663E-02  0.42207310745E-03 -0.21153518248E-01  0.22919298900E-01  0.00000000000E+00 0. -1.
     999901    1    3    3    0    0  0.72067452854E-01  0.10178722227E+00  0.65822795179E-01  0.89122780295E+00  0.88000000000E+00 0. -1.
        -11    1    4    4    0    0 -0.37412787427E-01 -0.56696504538E-01 -0.14815022348E-01  0.69526658902E-01  0.51100000000E-03 0. -1.
         11    1    4    4    0    0 -0.25843037760E-01 -0.45512790843E-01 -0.29854254584E-01  0.60256239252E-01  0.51100000000E-03 0.  1.
</event>
<event>
 8    1  0.1109294E+005  0.1043930E+01  0.7957747E-01            NaN
         13   -1    0    0    0    0  0.00000000000E+00  0.00000000000E+00  0.74505805969E-08  0.10566000000E+00  0.10566000000E+00 0. -1.
     999900   -1    0    0    0    0 -0.00000000000E+00 -0.00000000000E+00 -0.74505805969E-08  0.93827000000E+00  0.93827000000E+00 0.  1.
     999902    2    1    2    0    0  0.66810825508E-02  0.21067590030E-01  0.79870178885E-02  0.10204295177E+01  0.10201588739E+01 0.  0.
     999903    2    3    3    0    0 -0.38865871571E-02  0.76465865812E-01 -0.10506324138E+00  0.13140701757E+00  0.19167299876E-01 0.  0.
         14    1    1    2    0    0 -0.66810825508E-02 -0.21067590030E-01 -0.79870178885E-02  0.23500482303E-01  0.00000000000E+00 0.  1.
     999901    1    3    3    0    0  0.10567669708E-01 -0.55398275782E-01  0.11305025927E+00  0.88902250012E+00  0.88000000000E+00 0. -1.
        -11    1    4    4    0    0  0.41702378410E-02  0.35675997703E-01 -0.36442304195E-01  0.51170991311E-01  0.51100000000E-03 0. -1.
         11    1    4    4    0    0 -0.80568249982E-02  0.40789868109E-01 -0.68620937185E-01  0.80236026264E-01  0.51100000000E-03 0.  1.
</event>
<event>
 8    1  0.1109294E+005  0.1043930E+01  0.7957747E-01            NaN
         13   -1    0    0    0    0  0.00000000000E+00  0.00000000000E+00  0.74505805969E-08  0.10566000000E+00  0.10566000000E+00 0.  1.
     999900   -1    0    0    0    0 -0.00000000000E+00 -0.00000000000E+00 -0.74505805969E-08  0.93827000000E+00  0.93827000000E+00 0.  1.
     999902    2    1    2    0    0  0.75347342840E-02 -0.20469146637E-01 -0.92286639131E-02  0.10202461147E+01  0.10199711801E+01 0.  0.
     999903    2    3    3    0    0  0.60163773145E-01 -0.12780142159E-01 -0.11432750096E+00  0.13239775938E+00  0.25988027638E-01 0.  0.
         14    1    1    2    0    0 -0.75347342840E-02  0.20469146637E-01  0.92286639131E-02  0.23683885289E-01  0.00000000000E+00 0.  1.
     999901    1    3    3    0    0 -0.52629038861E-01 -0.76890044780E-02  0.10509883704E+00  0.88784835533E+00  0.88000000000E+00 0. -1.
        -11    1    4    4    0    0  0.27715858856E-01  0.43171777655E-02 -0.33917214674E-01  0.44016422256E-01  0.51100000000E-03 0.  1.
         11    1    4    4    0    0  0.32447914289E-01 -0.17097319924E-01 -0.80410286282E-01  0.88381337121E-01  0.51100000000E-03 0. -1.
</event>
<event>
 8    1  0.1109294E+005  0.1043930E+01  0.7957747E-01            NaN
         13   -1    0    0    0    0  0.00000000000E+00  0.00000000000E+00  0.74505805969E-08  0.10566000000E+00  0.10566000000E+00 0.  1.
     999900   -1    0    0    0    0 -0.00000000000E+00 -0.00000000000E+00 -0.74505805969E-08  0.93827000000E+00  0.93827000000E+00 0. -1.
     999902    2    1    2    0    0 -0.98398525590E-02 -0.21721080248E-01  0.33472362701E-02  0.10198502987E+01  0.10195659859E+01 0.  0.
     999903    2    3    3    0    0  0.68066476257E-01  0.10080422298E+00 -0.31359635586E-01  0.12727738123E+00  0.20532132534E-01 0.  0.
         14    1    1    2    0    0  0.98398525590E-02  0.21721080248E-01 -0.33472362701E-02  0.24079701330E-01  0.00000000000E+00 0. -1.
     999901    1    3    3    0    0 -0.77906328816E-01 -0.12252530323E+00  0.34706871856E-01  0.89257291744E+00  0.88000000000E+00 0.  1.
        -11    1    4    4    0    0  0.31259698957E-01  0.51233710904E-01 -0.52767282603E-02  0.60250866335E-01  0.51100000000E-03 0.  1.
         11    1    4    4    0    0  0.36806777300E-01  0.49570512078E-01 -0.26082907325E-01  0.67026514891E-01  0.51100000000E-03 0. -1.
</event>
<event>
 8    1  0.1109294E+005  0.1043930E+01  0.7957747E-01            NaN
         13   -1    0    0    0    0  0.00000000000E+00  0.00000000000E+00  0.74505805969E-08  0.10566000000E+00  0.10566000000E+00 0. -1.
     999900   -1    0    0    0    0 -0.00000000000E+00 -0.00000000000E+00 -0.74505805969E-08  0.93827000000E+00  0.93827000000E+00 0. -1.
     999902    2    1    2    0    0  0.34817009593E-02 -0.79972396507E-02 -0.20518549379E-01  0.10216345083E+01  0.10213911981E+01 0.  0.
     999903    2    3    3    0    0  0.84562984999E-01  0.74350066063E-01 -0.67608121651E-01  0.13283043468E+00  0.19855364746E-01 0.  0.
         14    1    1    2    0    0 -0.34817009593E-02  0.79972396507E-02  0.20518549379E-01  0.22295491747E-01  0.00000000000E+00 0. -1.
     999901    1    3    3    0    0 -0.81081284040E-01 -0.82347305713E-01  0.47089572272E-01  0.88880407357E+00  0.88000000000E+00 0. -1.
        -11    1    4    4    0    0  0.32756282574E-01  0.22940516518E-01 -0.33931421275E-01  0.52448487270E-01  0.51100000000E-03 0. -1.
         11    1    4    4    0    0  0.51806702425E-01  0.51409549544E-01 -0.33676700376E-01  0.80381947412E-01  0.51100000000E-03 0.  1.
</event>
<event>
 8    1  0.1109294E+005  0.1043930E+01  0.7957747E-01            NaN
         13   -1    0    0    0    0  0.00000000000E+00  0.00000000000E+00  0.74505805969E-08  0.10566000000E+00  0.10566000000E+00 0. -1.
     999900   -1    0    0    0    0 -0.00000000000E+00 -0.00000000000E+00 -0.74505805969E-08  0.93827000000E+00  0.93827000000E+00 0. -1.
     999902    2    1    2    0    0  0.36857753508E-02  0.14547191663E-01  0.18873628236E-01  0.10198173567E+01  0.10195322562E+01 0.  0.
     999903    2    3    3    0    0  0.12684208417E+00 -0.11041418341E-01  0.21994202605E-01  0.13086741920E+00  0.20777613543E-01 0.  0.
         14    1    1    2    0    0 -0.36857753508E-02 -0.14547191663E-01 -0.18873628236E-01  0.24112643323E-01  0.00000000000E+00 0.  1.
     999901    1    3    3    0    0 -0.12315630881E+00  0.25588610003E-01 -0.31205743689E-02  0.88894993748E+00  0.88000000000E+00 0.  1.
        -11    1    4    4    0    0  0.14144002208E-01 -0.45363688252E-02  0.86455014929E-02  0.17194105317E-01  0.51100000000E-03 0. -1.
         11    1    4    4    0    0  0.11269808196E+00 -0.65050495154E-02  0.13348701112E-01  0.11367331388E+00  0.51100000000E-03 0.  1.
</event>
<event>
 7    1  0.1109294E+005  0.1043930E+01  0.7957747E-01            NaN
         13   -1    0    0    0    0  0.00000000000E+00  0.00000000000E+00  0.74505805969E-08  0.10566000000E+00  0.10566000000E+00 0. -1.
     999900   -1    0    0    0    0 -0.00000000000E+00 -0.00000000000E+00 -0.74505805969E-08  0.93827000000E+00  0.93827000000E+00 0.  1.
     999903    2    1    2    0    0  0.51554474116E-01  0.36677093815E-01 -0.45344207243E-01  0.80591815174E-01  0.20877512552E-01 0.  0.
         14    1    1    2    0    0  0.71765545147E-01 -0.15443071678E-01  0.23155872863E-02  0.73444835608E-01  0.00000000000E+00 0. -1.
     999901    1    1    2    0    0 -0.12332001926E+00 -0.21234022137E-01  0.43028619957E-01  0.88989334922E+00  0.88000000000E+00 0.  1.
        -11    1    3    3    0    0  0.38841148965E-01  0.22194391741E-01 -0.41316178439E-01  0.60897566450E-01  0.51100000000E-03 0.  1.
         11    1    3    3    0    0  0.12713325151E-01  0.14482702074E-01 -0.40280288040E-02  0.19694248724E-01  0.51100000000E-03 0. -1.
</event>
<event>
 8    1  0.1109294E+005  0.1043930E+01  0.7957747E-01            NaN
         13   -1    0    0    0    0  0.00000000000E+00  0.00000000000E+00  0.74505805969E-08  0.10566000000E+00  0.10566000000E+00 0. -1.
     999900   -1    0    0    0    0 -0.00000000000E+00 -0.00000000000E+00 -0.74505805969E-08  0.93827000000E+00  0.93827000000E+00 0. -1.
     999902    2    1    2    0    0  0.19098601133E-01  0.10364702655E-01  0.80607872758E-02  0.10207532893E+01  0.10204901360E+01 0.  0.
     999903    2    3    3    0    0  0.10303712360E+00  0.28024075074E-01 -0.75725676513E-01  0.13262171095E+00  0.21263642875E-01 0.  0.
         14    1    1    2    0    0 -0.19098601133E-01 -0.10364702655E-01 -0.80607872758E-02  0.23176710678E-01  0.00000000000E+00 0.  1.
     999901    1    3    3    0    0 -0.83938522467E-01 -0.17659372419E-01  0.83786463788E-01  0.88813157837E+00  0.88000000000E+00 0.  1.
        -11    1    4    4    0    0  0.18628900813E-01 -0.52448501746E-04 -0.21448472757E-01  0.28413672782E-01  0.51100000000E-03 0.  1.
         11    1    4    4    0    0  0.84408222787E-01  0.28076523575E-01 -0.54277203755E-01  0.10420803817E+00  0.51100000000E-03 0. -1.
</event>
<event>
 8    1  0.1109294E+005  0.1043930E+01  0.7957747E-01            NaN
         13   -1    0    0    0    0  0.00000000000E+00  0.00000000000E+00  0.74505805969E-08  0.10566000000E+00  0.10566000000E+00 0.  1.
     999900   -1    0    0    0    0 -0.00000000000E+00 -0.00000000000E+00 -0.74505805969E-08  0.93827000000E+00  0.93827000000E+00 0.  1.
     999902    2    1    2    0    0  0.18830019836E-01  0.14478055029E-01 -0.62277294906E-02  0.10193745864E+01  0.10190787894E+01 0.  0.
     999903    2    3    3    0    0 -0.66789335384E-02 -0.10204977437E+00 -0.75606459341E-01  0.12862049578E+00  0.19186730777E-01 0.  0.
         14    1    1    2    0    0 -0.18830019836E-01 -0.14478055029E-01  0.62277294906E-02  0.24555413640E-01  0.00000000000E+00 0. -1.
     999901    1    3    3    0    0  0.25508953374E-01  0.11652782940E+00  0.69378729851E-01  0.89075409058E+00  0.88000000000E+00 0. -1.
        -11    1    4    4    0    0  0.22823087694E-02 -0.50311169070E-01 -0.46669584271E-01  0.68663919809E-01  0.51100000000E-03 0.  1.
         11    1    4    4    0    0 -0.89612423078E-02 -0.51738605303E-01 -0.28936875070E-01  0.59956575971E-01  0.51100000000E-03 0. -1.
</event>
<event>
 8    1  0.1109294E+005  0.1043930E+01  0.7957747E-01            NaN
         13   -1    0    0    0    0  0.00000000000E+00  0.00000000000E+00  0.74505805969E-08  0.10566000000E+00  0.10566000000E+00 0.  1.
     999900   -1    0    0    0    0 -0.00000000000E+00 -0.00000000000E+00 -0.74505805969E-08  0.93827000000E+00  0.93827000000E+00 0. -1.
     999902    2    1    2    0    0  0.12223356842E-01 -0.11873814024E-01  0.16731536974E-01  0.10200481608E+01  0.10197685562E+01 0.  0.
     999903    2    3    3    0    0  0.10961693700E+00 -0.25531210679E-01  0.68244468626E-01  0.13307261661E+00  0.19578002879E-01 0.  0.
         14    1    1    2    0    0 -0.12223356842E-01  0.11873814024E-01 -0.16731536974E-01  0.23881839156E-01  0.00000000000E+00 0. -1.
     999901    1    3    3    0    0 -0.97393580161E-01  0.13657396655E-01 -0.51512931653E-01  0.88697554423E+00  0.88000000000E+00 0.  1.
        -11    1    4    4    0    0  0.78053930891E-01 -0.92243503494E-02  0.49702112737E-01  0.92994977813E-01  0.51100000000E-03 0. -1.
         11    1    4    4    0    0  0.31563006112E-01 -0.16306860330E-01  0.18542355889E-01  0.40077638797E-01  0.51100000000E-03 0.  1.
</event>
<event>
 8    1  0.1109294E+005  0.1043930E+01  0.7957747E-01            NaN
         13   -1    0    0    0    0  0.00000000000E+00  0.00000000000E+00  0.74505805969E-08  0.10566000000E+00  0.10566000000E+00 0.  1.
     999900   -1    0    0    0    0 -0.00000000000E+00 -0.00000000000E+00 -0.74505805969E-08  0.93827000000E+00  0.93827000000E+00 0. -1.
     999902    2    1    2    0    0  0.62593071734E-02 -0.24403322717E-01  0.88619450029E-02  0.10172235372E+01  0.10168728974E+01 0.  0.
     999903    2    3    3    0    0  0.22291391061E-01  0.89919881759E-01 -0.81509443549E-01  0.12509472887E+00  0.20552628820E-01 0.  0.
         14    1    1    2    0    0 -0.62593071734E-02  0.24403322717E-01 -0.88619450029E-02  0.26706462797E-01  0.00000000000E+00 0. -1.
     999901    1    3    3    0    0 -0.16032083887E-01 -0.11432320448E+00  0.90371388552E-01  0.89212880834E+00  0.88000000000E+00 0.  1.
        -11    1    4    4    0    0  0.23662564225E-01  0.76016838532E-01 -0.61112124314E-01  0.10036647620E+00  0.51100000000E-03 0. -1.
         11    1    4    4    0    0 -0.13711731644E-02  0.13903043227E-01 -0.20397319235E-01  0.24728252664E-01  0.51100000000E-03 0.  1.
</event>
<event>
 8    1  0.1109294E+005  0.1043930E+01  0.7957747E-01            NaN
         13   -1    0    0    0    0  0.00000000000E+00  0.00000000000E+00  0.74505805969E-08  0.10566000000E+00  0.10566000000E+00 0. -1.
     999900   -1    0    0    0    0 -0.00000000000E+00 -0.00000000000E+00 -0.74505805969E-08  0.93827000000E+00  0.93827000000E+00 0.  1.
     999902    2    1    2    0    0 -0.18568623350E-01 -0.14258355815E-01  0.45087282718E-03  0.10205142410E+01  0.10202455676E+01 0.  0.
     999903    2    3    3    0    0 -0.82417175402E-01  0.57646620716E-01  0.82074807555E-01  0.13152074834E+00  0.21111833846E-01 0.  0.
         14    1    1    2    0    0  0.18568623350E-01  0.14258355815E-01 -0.45087282718E-03  0.23415759009E-01  0.00000000000E+00 0. -1.
     999901    1    3    3    0    0  0.63848552052E-01 -0.71904976531E-01 -0.81623934728E-01  0.88899349265E+00  0.88000000000E+00 0.  1.
        -11    1    4    4    0    0 -0.37959945410E-01  0.15645267023E-01  0.26415829261E-01  0.48824061612E-01  0.51100000000E-03 0.  1.
         11    1    4    4    0    0 -0.44457229993E-01  0.42001353693E-01  0.55658978293E-01  0.82696686731E-01  0.51100000000E-03 0. -1.
</event>
<event>
 8    1  0.1109294E+005  0.1043930E+01  0.7957747E-01            NaN
         13   -1    0    0    0    0  0.00000000000E+00  0.00000000000E+00  0.74505805969E-08  0.10566000000E+00  0.10566000000E+00 0.  1.
     999900   -1    0    0    0    0 -0.00000000000E+00 -0.00000000000E+00 -0.74505805969E-08  0.93827000000E+00  0.93827000000E+00 0. -1.
     999902    2    1    2    0    0 -0.94656903201E-02  0.19071738796E-01 -0.80172912731E-02  0.10211790116E+01  0.10209255439E+01 0.  0.
     999903    2    3    3    0    0 -0.10435667136E+00  0.66358437075E-01  0.45344727833E-01  0.13321063649E+00  0.19878941192E-01 0.  0.
         14    1    1    2    0    0  0.94656903201E-02 -0.19071738796E-01  0.80172912731E-02  0.22750988403E-01  0.00000000000E+00 0.  1.
     999901    1    3    3    0    0  0.94890981037E-01 -0.47286698279E-01 -0.53362019106E-01  0.88796837511E+00  0.88000000000E+00 0. -1.
        -11    1    4    4    0    0 -0.96540042404E-02  0.44696843837E-03  0.55609864502E-02  0.11161777186E-01  0.51100000000E-03 0. -1.
         11    1    4    4    0    0 -0.94702667117E-01  0.65911468636E-01  0.39783741383E-01  0.12204885930E+00  0.51100000000E-03 0.  1.
</event>
<event>
 8    1  0.1109294E+005  0.1043930E+01  0.7957747E-01            NaN
         13   -1    0    0    0    0  0.00000000000E+00  0.00000000000E+00  0.74505805969E-08  0.10566000000E+00  0.10566000000E+00 0.  1.
     999900   -1    0    0    0    0 -0.00000000000E+00 -0.00000000000E+00 -0.74505805969E-08  0.93827000000E+00  0.93827000000E+00 0. -1.
     999902    2    1    2    0    0  0.12899580705E-01  0.15153356022E-01 -0.13809552857E-01  0.10197075490E+01  0.10194198146E+01 0.  0.
     999903    2    3    3    0    0 -0.36341447004E-01 -0.11470585646E+00 -0.39531481772E-01  0.12844456230E+00  0.21380674875E-01 0.  0.
         14    1    1    2    0    0 -0.12899580705E-01 -0.15153356022E-01  0.13809552857E-01  0.24222450975E-01  0.00000000000E+00 0.  1.
     999901    1    3    3    0    0  0.49241027710E-01  0.12985921248E+00  0.25721928915E-01  0.89126298672E+00  0.88000000000E+00 0.  1.
        -11    1    4    4    0    0 -0.33056702991E-01 -0.10447059026E+00 -0.28915314058E-01  0.11332787102E+00  0.51100000000E-03 0.  1.
         11    1    4    4    0    0 -0.32847440134E-02 -0.10235266192E-01 -0.10616167714E-01  0.15116691277E-01  0.51100000000E-03 0. -1.
</event>
<event>
 8    1  0.1109294E+005  0.1043930E+01  0.7957747E-01            NaN
         13   -1    0    0    0    0  0.00000000000E+00  0.00000000000E+00  0.74505805969E-08  0.10566000000E+00  0.10566000000E+00 0. -1.
     999900   -1    0    0    0    0 -0.00000000000E+00 -0.00000000000E+00 -0.74505805969E-08  0.93827000000E+00  0.93827000000E+00 0.  1.
     999902    2    1    2    0    0 -0.24136885047E-02  0.16726904966E-01 -0.15513026118E-01  0.10209894416E+01  0.10207316839E+01 0.  0.
     999903    2    3    3    0    0  0.24934208910E-01 -0.56938555974E-01 -0.11468976746E+00  0.13193908661E+00  0.19760209635E-01 0.  0.
         14    1    1    2    0    0  0.24136885047E-02 -0.16726904966E-01  0.15513026118E-01  0.22940558434E-01  0.00000000000E+00 0. -1.
     999901    1    3    3    0    0 -0.27347897414E-01  0.73665460940E-01  0.99176741340E-01  0.88905035496E+00  0.88000000000E+00 0. -1.
        -11    1    4    4    0    0  0.26136729449E-02 -0.29022825055E-01 -0.58200575384E-01  0.65090120267E-01  0.51100000000E-03 0. -1.
         11    1    4    4    0    0  0.22320535965E-01 -0.27915730919E-01 -0.56489192075E-01  0.66848966340E-01  0.51100000000E-03 0.  1.
</event>
<event>
 8    1  0.1109294E+005  0.1043930E+01  0.7957747E-01            NaN
         13   -1    0    0    0    0  0.00000000000E+00  0.00000000000E+00  0.74505805969E-08  0.10566000000E+00  0.10566000000E+00 0. -1.
     999900   -1    0    0    0    0 -0.00000000000E+00 -0.00000000000E+00 -0.74505805969E-08  0.93827000000E+00  0.93827000000E+00 0.  1.
     999902    2    1    2    0    0 -0.12587545416E-01  0.13370989068E-01  0.16040529200E-01  0.10195470505E+01  0.10192554439E+01 0.  0.
     999903    2    3    3    0    0  0.10258901959E+00 -0.12755203724E-01 -0.71873791806E-01  0.12731549598E+00  0.18873033861E-01 0.  0.
         14    1    1    2    0    0  0.12587545416E-01 -0.13370989068E-01 -0.16040529200E-01  0.24382949479E-01  0.00000000000E+00 0.  1.
     999901    1    3    3    0    0 -0.11517656500E+00  0.26126192792E-01  0.87914321006E-01  0.89223155454E+00  0.88000000000E+00 0. -1.
        -11    1    4    4    0    0  0.30329111908E-01 -0.10189116502E-01 -0.15099642809E-01  0.35382671722E-01  0.51100000000E-03 0.  1.
         11    1    4    4    0    0  0.72259907679E-01 -0.25660872217E-02 -0.56774148997E-01  0.91932824261E-01  0.51100000000E-03 0. -1.
</event>
<event>
 8    1  0.1109294E+005  0.1043930E+01  0.7957747E-01            NaN
         13   -1    0    0    0    0  0.00000000000E+00  0.00000000000E+00  0.74505805969E-08  0.10566000000E+00  0.10566000000E+00 0. -1.
     999900   -1    0    0    0    0 -0.00000000000E+00 -0.00000000000E+00 -0.74505805969E-08  0.93827000000E+00  0.93827000000E+00 0.  1.
     999902    2    1    2    0    0 -0.24208948510E-02  0.24214374108E-01  0.36512088211E-02  0.10193225220E+01  0.10190254540E+01 0.  0.
     999903    2    3    3    0    0 -0.12060920706E+00 -0.13473182020E-01  0.41255026932E-01  0.12982666699E+00  0.20612587243E-01 0.  0.
         14    1    1    2    0    0  0.24208948510E-02 -0.24214374108E-01 -0.36512088211E-02  0.24607477953E-01  0.00000000000E+00 0.  1.
     999901    1    3    3    0    0  0.11818831221E+00  0.37687556128E-01 -0.37603818111E-01  0.88949585506E+00  0.88000000000E+00 0.  1.
        -11    1    4    4    0    0 -0.92797935102E-01 -0.13789386815E-01  0.39974241183E-01  0.10197943433E+00  0.51100000000E-03 0.  1.
         11    1    4    4    0    0 -0.27811271958E-01  0.31620479465E-03  0.12807857490E-02  0.27847232655E-01  0.51100000000E-03 0. -1.
</event>
<event>
 8    1  0.1109294E+005  0.1043930E+01  0.7957747E-01            NaN
         13   -1    0    0    0    0  0.00000000000E+00  0.00000000000E+00  0.74505805969E-08  0.10566000000E+00  0.10566000000E+00 0.  1.
     999900   -1    0    0    0    0 -0.00000000000E+00 -0.00000000000E+00 -0.74505805969E-08  0.93827000000E+00  0.93827000000E+00 0.  1.
     999902    2    1    2    0    0  0.21821432851E-01 -0.29404621083E-02  0.66868361104E-02  0.10209183719E+01  0.10206589965E+01 0.  0.
     999903    2    3    3    0    0  0.44114874871E-01 -0.30042404382E-02 -0.12213754156E+00  0.13125960482E+00  0.18877424444E-01 0.  0.
         14    1    1    2    0    0 -0.21821432851E-01  0.29404621083E-02 -0.66868361104E-02  0.23011628066E-01  0.00000000000E+00 0. -1.
     999901    1    3    3    0    0 -0.22293442020E-01  0.63778329859E-04  0.12882437767E+00  0.88965876712E+00  0.88000000000E+00 0. -1.
        -11    1    4    4    0    0  0.19069080286E-01 -0.74733889162E-02 -0.35774194711E-01  0.41225422897E-01  0.51100000000E-03 0. -1.
         11    1    4    4    0    0  0.25045794585E-01  0.44691484780E-02 -0.86363346847E-01  0.90034181921E-01  0.51100000000E-03 0.  1.
</event>
<event>
 8    1  0.1109294E+005  0.1043930E+01  0.7957747E-01            NaN
         13   -1    0    0    0    0  0.00000000000E+00  0.00000000000E+00  0.74505805969E-08  0.10566000000E+00  0.10566000000E+00 0. -1.
     999900   -1    0    0    0    0 -0.00000000000E+00 -0.00000000000E+00 -0.74505805969E-08  0.93827000000E+00  0.93827000000E+00 0.  1.
     999902    2    1    2    0    0 -0.25010414108E-02 -0.23484163858E-01 -0.98547805788E-03  0.10202924805E+01  0.10200186339E+01 0.  0.
     999903    2    3    3    0    0  0.15016031013E-01 -0.81185781549E-01  0.10141007621E+00  0.13230533306E+00  0.20101872713E-01 0.  0.
         14    1    1    2    0    0  0.25010414108E-02  0.23484163858E-01  0.98547805788E-03  0.23637519482E-01  0.00000000000E+00 0. -1.
     999901    1    3    3    0    0 -0.17517072424E-01  0.57701617690E-01 -0.10239555427E+00  0.88798714745E+00  0.88000000000E+00 0.  1.
        -11    1    4    4    0    0  0.72096633936E-02 -0.28807128188E-01  0.51954434919E-01  0.59844417530E-01  0.51100000000E-03 0.  1.
         11    1    4    4    0    0  0.78063676197E-02 -0.52378653360E-01  0.49455641293E-01  0.72460915533E-01  0.51100000000E-03 0. -1.
</event>
<event>
 8    1  0.1109294E+005  0.1043930E+01  0.7957747E-01            NaN
         13   -1    0    0    0    0  0.00000000000E+00  0.00000000000E+00  0.74505805969E-08  0.10566000000E+00  0.10566000000E+00 0.  1.
     999900   -1    0    0    0    0 -0.00000000000E+00 -0.00000000000E+00 -0.74505805969E-08  0.93827000000E+00  0.93827000000E+00 0.  1.
     999902    2    1    2    0    0  0.23270326725E-01  0.58407861949E-02  0.18594762792E-02  0.10198659076E+01  0.10195819678E+01 0.  0.
     999903    2    3    3    0    0 -0.22688182610E-01 -0.19989156774E-01 -0.12379550898E+00  0.12937809421E+00  0.22339274858E-01 0.  0.
         14    1    1    2    0    0 -0.23270326725E-01 -0.58407861949E-02 -0.18594762792E-02  0.24064092364E-01  0.00000000000E+00 0.  1.
     999901    1    3    3    0    0  0.45958509334E-01  0.25829942969E-01  0.12565498526E+00  0.89048781342E+00  0.88000000000E+00 0. -1.
        -11    1    4    4    0    0 -0.45380495534E-02  0.45718445480E-02 -0.14111508408E-01  0.15520678042E-01  0.51100000000E-03 0.  1.
         11    1    4    4    0    0 -0.18150133056E-01 -0.24561001322E-01 -0.10968400057E+00  0.11385741617E+00  0.51100000000E-03 0. -1.
</event>
<event>
 8    1  0.1109294E+005  0.1043930E+01  0.7957747E-01            NaN
         13   -1    0    0    0    0  0.00000000000E+00  0.00000000000E+00  0.74505805969E-08  0.10566000000E+00  0.10566000000E+00 0. -1.
     999900   -1    0    0    0    0 -0.00000000000E+00 -0.00000000000E+00 -0.74505805969E-08  0.93827000000E+00  0.93827000000E+00 0. -1.
     999902    2    1    2    0    0 -0.52642079585E-02 -0.74852155184E-02 -0.21393262104E-01  0.10206617383E+01  0.10203964779E+01 0.  0.
     999903    2    3    3    0    0  0.68117078375E-02  0.27495215074E-01  0.12341221707E+00  0.12805987578E+00  0.19140800578E-01 0.  0.
         14    1    1    2    0    0  0.52642079585E-02  0.74852155184E-02  0.21393262104E-01  0.23268261650E-01  0.00000000000E+00 0. -1.
     999901    1    3    3    0    0 -0.12075915796E-01 -0.34980430592E-01 -0.14480547917E+00  0.89260186257E+00  0.88000000000E+00 0. -1.
        -11    1    4    4    0    0 -0.66533070795E-02  0.10908911511E-01  0.43667969406E-01  0.45501906757E-01  0.51100000000E-03 0.  1.
         11    1    4    4    0    0  0.13465014917E-01  0.16586303563E-01  0.79744247663E-01  0.82557969022E-01  0.51100000000E-03 0. -1.
</event>
<event>
 8    1  0.1109294E+005  0.1043930E+01  0.7957747E-01            NaN
         13   -1    0    0    0    0  0.00000000000E+00  0.00000000000E+00  0.74505805969E-08  0.10566000000E+00  0.10566000000E+00 0.  1.
     999900   -1    0    0    0    0 -0.00000000000E+00 -0.00000000000E+00 -0.74505805969E-08  0.93827000000E+00  0.93827000000E+00 0.  1.
     999902    2    1    2    0    0 -0.17091040414E-01 -0.14123283672E-01  0.91943649184E-02  0.10199277678E+01  0.10196453032E+01 0.  0.
     999903    2    3    3    0    0 -0.78773671743E-01 -0.10883805672E-02 -0.10111041862E+00  0.13080359145E+00  0.26072722328E-01 0.  0.
         14    1    1    2    0    0  0.17091040414E-01  0.14123283672E-01 -0.91943649184E-02  0.24002232195E-01  0.00000000000E+00 0.  1.
     999901    1    3    3    0    0  0.61682631330E-01 -0.13034903105E-01  0.11030478354E+00  0.88912417636E+00  0.88000000000E+00 0. -1.
        -11    1    4    4    0    0 -0.68587368120E-01 -0.23125534859E-02 -0.69951794139E-01  0.97995354959E-01  0.51100000000E-03 0.  1.
         11    1    4    4    0    0 -0.10186303624E-01  0.12241729187E-02 -0.31158624485E-01  0.32808236491E-01  0.51100000000E-03 0. -1.
</event>
<event>
 8    1  0.1109294E+005  0.1043930E+01  0.7957747E-01            NaN
         13   -1    0    0    0    0  0.00000000000E+00  0.00000000000E+00  0.74505805969E-08  0.10566000000E+00  0.10566000000E+00 0.  1.
     999900   -1    0    0    0    0 -0.00000000000E+00 -0.00000000000E+00 -0.74505805969E-08  0.93827000000E+00  0.93827000000E+00 0.  1.
     999902    2    1    2    0    0 -0.85988114537E-02 -0.13465077618E-01 -0.16771135227E-01  0.10207671234E+01  0.10205042878E+01 0.  0.
     999903    2    3    3    0    0 -0.91140927930E-01  0.62308925786E-01 -0.69856783951E-01  0.13207539585E+00  0.19361532708E-01 0.  0.
         14    1    1    2    0    0  0.85988114537E-02  0.13465077618E-01  0.16771135227E-01  0.23162876559E-01  0.00000000000E+00 0.  1.
     999901    1    3    3    0    0  0.82542116477E-01 -0.75774003405E-01  0.53085648724E-01  0.88869172759E+00  0.88000000000E+00 0. -1.
        -11    1    4    4    0    0 -0.48392328945E-01  0.25182939338E-01 -0.25884290572E-01  0.60384232659E-01  0.51100000000E-03 0.  1.
         11    1    4    4    0    0 -0.42748598986E-01  0.37125986448E-01 -0.43972493379E-01  0.71691163193E-01  0.51100000000E-03 0. -1.
</event>
<event>
 8    1  0.1109294E+005  0.1043930E+01  0.7957747E-01            NaN
         13   -1    0    0    0    0  0.00000000000E+00  0.00000000000E+00  0.74505805969E-08  0.10566000000E+00  0.10566000000E+00 0.  1.
     999900   -1    0    0    0    0 -0.00000000000E+00 -0.00000000000E+00 -0.74505805969E-08  0.93827000000E+00  0.93827000000E+00 0. -1.
     999902    2    1    2    0    0  0.15335599019E-01 -0.25121921358E-02 -0.16896179151E-01  0.10209741167E+01  0.10207160107E+01 0.  0.
     999903    2    3    3    0    0  0.79262459062E-01 -0.54042610726E-01 -0.91583280646E-01  0.13400163091E+00  0.19125862142E-01 0.  0.
         14    1    1    2    0    0 -0.15335599019E-01  0.25121921358E-02  0.16896179151E-01  0.22955883265E-01  0.00000000000E+00 0.  1.
     999901    1    3    3    0    0 -0.63926860044E-01  0.51530418590E-01  0.74687101495E-01  0.88697248582E+00  0.88000000000E+00 0.  1.
        -11    1    4    4    0    0  0.34015703788E-01 -0.18543864285E-01 -0.48854744469E-01  0.62353750368E-01  0.51100000000E-03 0. -1.
         11    1    4    4    0    0  0.45246755274E-01 -0.35498746441E-01 -0.42728536177E-01  0.71647880545E-01  0.51100000000E-03 0.  1.
</event>
<event>
 8    1  0.1109294E+005  0.1043930E+01  0.7957747E-01            NaN
         13   -1    0    0    0    0  0.00000000000E+00  0.00000000000E+00  0.74505805969E-08  0.10566000000E+00  0.10566000000E+00 0.  1.
     999900   -1    0    0    0    0 -0.00000000000E+00 -0.00000000000E+00 -0.74505805969E-08  0.93827000000E+00  0.93827000000E+00 0.  1.
     999902    2    1    2    0    0  0.18525762434E-01 -0.14525784893E-01  0.81988607874E-02  0.10190016302E+01  0.10186966667E+01 0.  0.
     999903    2    3    3    0    0 -0.74226380561E-01 -0.10269838481E+00 -0.82330809332E-02  0.12959318857E+00  0.25886233582E-01 0.  0.
         14    1    1    2    0    0 -0.18525762434E-01  0.14525784893E-01 -0.81988607874E-02  0.24928369757E-01  0.00000000000E+00 0. -1.
     999901    1    3    3    0    0  0.92752142995E-01  0.88172599917E-01  0.16431941721E-01  0.88940844167E+00  0.88000000000E+00 0. -1.
        -11    1    4    4    0    0 -0.39352299649E-01 -0.61739399274E-01 -0.16798757201E-01  0.75118681264E-01  0.51100000000E-03 0.  1.
         11    1    4    4    0    0 -0.34874080912E-01 -0.40958985536E-01  0.85656762677E-02  0.54474507309E-01  0.51100000000E-03 0. -1.
</event>
<event>
 8    1  0.1109294E+005  0.1043930E+01  0.7957747E-01            NaN
         13   -1    0    0    0    0  0.00000000000E+00  0.00000000000E+00  0.74505805969E-08  0.10566000000E+00  0.10566000000E+00 0.  1.
     999900   -1    0    0    0    0 -0.00000000000E+00 -0.00000000000E+00 -0.74505805969E-08  0.93827000000E+00  0.93827000000E+00 0.  1.
     999902    2    1    2    0    0 -0.21929292915E-01 -0.12643231722E-02  0.10381013236E-01  0.10196347775E+01  0.10193452907E+01 0.  0.
     999903    2    3    3    0    0  0.12096343633E+00 -0.30570181245E-01 -0.15138524069E-01  0.12726242686E+00  0.19996536448E-01 0.  0.
         14    1    1    2    0    0  0.21929292915E-01  0.12643231722E-02 -0.10381013236E-01  0.24295222506E-01  0.00000000000E+00 0. -1.
     999901    1    3    3    0    0 -0.14289272924E+00  0.29305858073E-01  0.25519537305E-01  0.89237235063E+00  0.88000000000E+00 0.  1.
        -11    1    4    4    0    0  0.25093223718E-01 -0.84454607706E-02 -0.11313487668E-01  0.28796732599E-01  0.51100000000E-03 0.  1.
         11    1    4    4    0    0  0.95870212611E-01 -0.22124720474E-01 -0.38250364016E-02  0.98465694263E-01  0.51100000000E-03 0. -1.
</event>
<event>
 8    1  0.1109294E+005  0.1043930E+01  0.7957747E-01            NaN
         13   -1    0    0    0    0  0.00000000000E+00  0.00000000000E+00  0.74505805969E-08  0.10566000000E+00  0.10566000000E+00 0. -1.
     999900   -1    0    0    0    0 -0.00000000000E+00 -0.00000000000E+00 -0.74505805969E-08  0.93827000000E+00  0.93827000000E+00 0.  1.
     999902    2    1    2    0    0  0.19649039596E-01  0.14476587267E-01 -0.33501647099E-03  0.10195216291E+01  0.10192294067E+01 0.  0.
     999903    2    3    3    0    0  0.58933147628E-01  0.25619795922E-01 -0.11281813837E+00  0.13142261152E+00  0.20358797661E-01 0.  0.
         14    1    1    2    0    0 -0.19649039596E-01 -0.14476587267E-01  0.33501647099E-03  0.24408370941E-01  0.00000000000E+00 0. -1.
     999901    1    3    3    0    0 -0.39284108032E-01 -0.11143208654E-01  0.11248312189E+00  0.88809901754E+00  0.88000000000E+00 0. -1.
        -11    1    4    4    0    0  0.13882132798E-01  0.16191187635E-01 -0.33515633154E-01  0.39729421778E-01  0.51100000000E-03 0. -1.
         11    1    4    4    0    0  0.45051014830E-01  0.94286082864E-02 -0.79302505211E-01  0.91693189742E-01  0.51100000000E-03 0.  1.
</event>
<event>
 8    1  0.1109294E+005  0.1043930E+01  0.7957747E-01            NaN
         13   -1    0    0    0    0  0.00000000000E+00  0.00000000000E+00  0.74505805969E-08  0.10566000000E+00  0.10566000000E+00 0.  1.
     999900   -1    0    0    0    0 -0.00000000000E+00 -0.00000000000E+00 -0.74505805969E-08  0.93827000000E+00  0.93827000000E+00 0.  1.
     999902    2    1    2    0    0  0.43681226319E-03  0.11480106865E-01  0.27847720903E-01  0.10138056043E+01  0.10133579447E+01 0.  0.
     999903    2    3    3    0    0 -0.76328995532E-01  0.83194492806E-01  0.54312602362E-01  0.12716230939E+00  0.21747527747E-01 0.  0.
         14    1    1    2    0    0 -0.43681226319E-03 -0.11480106865E-01 -0.27847720903E-01  0.30124395730E-01  0.00000000000E+00 0. -1.
     999901    1    3    3    0    0  0.76765807796E-01 -0.71714385941E-01 -0.26464881459E-01  0.88664329488E+00  0.88000000000E+00 0. -1.
        -11    1    4    4    0    0 -0.19389876749E-01  0.31306732117E-01  0.26026111366E-01  0.45096545212E-01  0.51100000000E-03 0.  1.
         11    1    4    4    0    0 -0.56939118783E-01  0.51887760689E-01  0.28286490996E-01  0.82065764183E-01  0.51100000000E-03 0. -1.
</event>
<event>
 8    1  0.1109294E+005  0.1043930E+01  0.7957747E-01            NaN
         13   -1    0    0    0    0  0.00000000000E+00  0.00000000000E+00  0.74505805969E-08  0.10566000000E+00  0.10566000000E+00 0. -1.
     999900   -1    0    0    0    0 -0.00000000000E+00 -0.00000000000E+00 -0.74505805969E-08  0.93827000000E+00  0.93827000000E+00 0.  1.
     999902    2    1    2    0    0  0.14077356071E-01  0.17697077018E-01  0.17311157461E-01  0.10154513297E+01  0.10150519043E+01 0.  0.
     999903    2    3    3    0    0  0.12340690297E+00 -0.24354146656E-01 -0.52981658139E-02  0.12740153564E+00  0.19511344497E-01 0.  0.
         14    1    1    2    0    0 -0.14077356071E-01 -0.17697077018E-01 -0.17311157461E-01  0.28478670291E-01  0.00000000000E+00 0.  1.
     999901    1    3    3    0    0 -0.10932954690E+00  0.42051223674E-01  0.22609323275E-01  0.88804979406E+00  0.88000000000E+00 0. -1.
        -11    1    4    4    0    0  0.11652201200E+00 -0.22470632146E-01 -0.29589215651E-03  0.11867037230E+00  0.51100000000E-03 0.  1.
         11    1    4    4    0    0  0.68848909724E-02 -0.18835145099E-02 -0.50022736574E-02  0.87311633448E-02  0.51100000000E-03 0. -1.
</event>
<event>
 8    1  0.1109294E+005  0.1043930E+01  0.7957747E-01            NaN
         13   -1    0    0    0    0  0.00000000000E+00  0.00000000000E+00  0.74505805969E-08  0.10566000000E+00  0.10566000000E+00 0.  1.
     999900   -1    0    0    0    0 -0.00000000000E+00 -0.00000000000E+00 -0.74505805969E-08  0.93827000000E+00  0.93827000000E+00 0.  1.
     999902    2    1    2    0    0 -0.11113026383E-01 -0.21232840838E-01 -0.18072547665E-02  0.10198967094E+01  0.10196135047E+01 0.  0.
     999903    2    3    3    0    0  0.46638297848E-01  0.83165293537E-01  0.82746972769E-01  0.12782966975E+00  0.20044103614E-01 0.  0.
         14    1    1    2    0    0  0.11113026383E-01  0.21232840838E-01  0.18072547665E-02  0.24033290562E-01  0.00000000000E+00 0. -1.
     999901    1    3    3    0    0 -0.57751324230E-01 -0.10439813438E+00 -0.84554227536E-01  0.89206703969E+00  0.88000000000E+00 0.  1.
        -11    1    4    4    0    0  0.90041010192E-02  0.34216674358E-01  0.35061150302E-01  0.49813652956E-01  0.51100000000E-03 0.  1.
         11    1    4    4    0    0  0.37634196828E-01  0.48948619179E-01  0.47685822467E-01  0.78016016790E-01  0.51100000000E-03 0. -1.
</event>
<event>
 8    1  0.1109294E+005  0.1043930E+01  0.7957747E-01            NaN
         13   -1    0    0    0    0  0.00000000000E+00  0.00000000000E+00  0.74505805969E-08  0.10566000000E+00  0.10566000000E+00 0.  1.
     999900   -1    0    0    0    0 -0.00000000000E+00 -0.00000000000E+00 -0.74505805969E-08  0.93827000000E+00  0.93827000000E+00 0. -1.
     999902    2    1    2    0    0 -0.29286225630E-01  0.95934365168E-02  0.11847789340E-01  0.10109135322E+01  0.10103742289E+01 0.  0.
     999903    2    3    3    0    0  0.37349600342E-01  0.31066780086E-01 -0.10791893006E+00  0.12004569412E+00  0.20108101391E-01 0.  0.
         14    1    1    2    0    0  0.29286225630E-01 -0.95934365168E-02 -0.11847789340E-01  0.33016467832E-01  0.00000000000E+00 0.  1.
     999901    1    3    3    0    0 -0.66635825972E-01 -0.21473343569E-01  0.11976671940E+00  0.89086783804E+00  0.88000000000E+00 0.  1.
        -11    1    4    4    0    0  0.28866155020E-01  0.15788327247E-01 -0.85514443754E-01  0.91627001449E-01  0.51100000000E-03 0.  1.
         11    1    4    4    0    0  0.84834453216E-02  0.15278452839E-01 -0.22404486306E-01  0.28418692675E-01  0.51100000000E-03 0. -1.
</event>
<event>
 8    1  0.1109294E+005  0.1043930E+01  0.7957747E-01            NaN
         13   -1    0    0    0    0  0.00000000000E+00  0.00000000000E+00  0.74505805969E-08  0.10566000000E+00  0.10566000000E+00 0. -1.
     999900   -1    0    0    0    0 -0.00000000000E+00 -0.00000000000E+00 -0.74505805969E-08  0.93827000000E+00  0.93827000000E+00 0.  1.
     999902    2    1    2    0    0  0.13756048109E-01 -0.13521613600E-01  0.15301075466E-01  0.10193091591E+01  0.10190117645E+01 0.  0.
     999903    2    3    3    0    0 -0.65158656220E-01  0.92451721240E-01  0.56973054242E-01  0.12846998619E+00  0.21578628355E-01 0.  0.
         14    1    1    2    0    0 -0.13756048109E-01  0.13521613600E-01 -0.15301075466E-01  0.24620840854E-01  0.00000000000E+00 0.  1.
     999901    1    3    3    0    0  0.78914704329E-01 -0.10597333484E+00 -0.41671978776E-01  0.89083917296E+00  0.88000000000E+00 0.  1.
        -11    1    4    4    0    0 -0.51780604234E-02  0.19203781259E-01  0.14957692676E-01  0.24891589254E-01  0.51100000000E-03 0. -1.
         11    1    4    4    0    0 -0.59980595797E-01  0.73247939980E-01  0.42015361565E-01  0.10357839694E+00  0.51100000000E-03 0.  1.
</event>
<event>
 8    1  0.1109294E+005  0.1043930E+01  0.7957747E-01            NaN
         13   -1    0    0    0    0  0.00000000000E+00  0.00000000000E+00  0.74505805969E-08  0.10566000000E+00  0.10566000000E+00 0. -1.
     999900   -1    0    0    0    0 -0.00000000000E+00 -0.00000000000E+00 -0.74505805969E-08  0.93827000000E+00  0.93827000000E+00 0. -1.
     999902    2    1    2    0    0 -0.16863935102E-01  0.50792888042E-02 -0.13514518305E-01  0.10217301422E+01  0.10214889377E+01 0.  0.
     999903    2    3    3    0    0 -0.79388075892E-01 -0.44689987683E-01 -0.96426009632E-01  0.13422771151E+00  0.20480273696E-01 0.  0.
         14    1    1    2    0    0  0.16863935102E-01 -0.50792888042E-02  0.13514518305E-01  0.22199857813E-01  0.00000000000E+00 0. -1.
     999901    1    3    3    0    0  0.62524140790E-01  0.49769276487E-01  0.82911491327E-01  0.88750243068E+00  0.88000000000E+00 0.  1.
        -11    1    4    4    0    0 -0.42282156772E-01 -0.35321667254E-01 -0.57621777380E-01  0.79724094904E-01  0.51100000000E-03 0. -1.
         11    1    4    4    0    0 -0.37105919120E-01 -0.93683204294E-02 -0.38804232253E-01  0.54503616606E-01  0.51100000000E-03 0.  1.
</event>
<event>
 8    1  0.1109294E+005  0.1043930E+01  0.7957747E-01            NaN
         13   -1    0    0    0    0  0.00000000000E+00  0.00000000000E+00  0.74505805969E-08  0.10566000000E+00  0.10566000000E+00 0. -1.
     999900   -1    0    0    0    0 -0.00000000000E+00 -0.00000000000E+00 -0.74505805969E-08  0.93827000000E+00  0.93827000000E+00 0. -1.
     999902    2    1    2    0    0  0.11312413078E-01 -0.18518226789E-01 -0.96103022208E-02  0.10201970414E+01  0.10199209528E+01 0.  0.
     999903    2    3    3    0    0  0.16772736412E-01 -0.75013199000E-01 -0.10668025250E+00  0.13304199735E+00  0.20277871541E-01 0.  0.
         14    1    1    2    0    0 -0.11312413078E-01  0.18518226789E-01  0.96103022208E-02  0.23732958556E-01  0.00000000000E+00 0. -1.
     999901    1    3    3    0    0 -0.54603233346E-02  0.56494972210E-01  0.97069950279E-01  0.88715504409E+00  0.88000000000E+00 0.  1.
        -11    1    4    4    0    0  0.21270036365E-01 -0.54936200511E-01 -0.78639868431E-01  0.98259302875E-01  0.51100000000E-03 0. -1.
         11    1    4    4    0    0 -0.44972999523E-02 -0.20076998488E-01 -0.28040384068E-01  0.34782694474E-01  0.51100000000E-03 0.  1.
</event>
<event>
 8    1  0.1109294E+005  0.1043930E+01  0.7957747E-01            NaN
         13   -1    0    0    0    0  0.00000000000E+00  0.00000000000E+00  0.74505805969E-08  0.10566000000E+00  0.10566000000E+00 0. -1.
     999900   -1    0    0    0    0 -0.00000000000E+00 -0.00000000000E+00 -0.74505805969E-08  0.93827000000E+00  0.93827000000E+00 0.  1.
     999902    2    1    2    0    0 -0.36899292254E-02  0.17827136806E-01  0.14917248360E-01  0.10203939280E+01  0.10201224543E+01 0.  0.
     999903    2    3    3    0    0 -0.11970067933E+00 -0.35571329983E-01 -0.32038903122E-01  0.12993630943E+00  0.16229018602E-01 0.  0.
         14    1    1    2    0    0  0.36899292254E-02 -0.17827136806E-01 -0.14917248360E-01  0.23536071954E-01  0.00000000000E+00 0.  1.
     999901    1    3    3    0    0  0.11601075011E+00  0.53398466789E-01  0.46956151482E-01  0.89045761862E+00  0.88000000000E+00 0. -1.
        -11    1    4    4    0    0 -0.40746214431E-01 -0.16468055754E-01 -0.45916977295E-02  0.44190447608E-01  0.51100000000E-03 0. -1.
         11    1    4    4    0    0 -0.78954464901E-01 -0.19103274229E-01 -0.27447205393E-01  0.85745861818E-01  0.51100000000E-03 0.  1.
</event>
<event>
 8    1  0.1109294E+005  0.1043930E+01  0.7957747E-01            NaN
         13   -1    0    0    0    0  0.00000000000E+00  0.00000000000E+00  0.74505805969E-08  0.10566000000E+00  0.10566000000E+00 0.  1.
     999900   -1    0    0    0    0 -0.00000000000E+00 -0.00000000000E+00 -0.74505805969E-08  0.93827000000E+00  0.93827000000E+00 0.  1.
     999902    2    1    2    0    0 -0.29239821771E-03  0.31954956498E-02 -0.22858039527E-01  0.10208478281E+01  0.10205868417E+01 0.  0.
     999903    2    3    3    0    0  0.71418288135E-01  0.24677967129E-01 -0.10819001050E+00  0.13355674598E+00  0.20560935858E-01 0.  0.
         14    1    1    2    0    0  0.29239821771E-03 -0.31954956498E-02  0.22858039527E-01  0.23082171913E-01  0.00000000000E+00 0.  1.
     999901    1    3    3    0    0 -0.71710686353E-01 -0.21482471480E-01  0.85331970971E-01  0.88729108211E+00  0.88000000000E+00 0. -1.
        -11    1    4    4    0    0  0.60856860405E-01  0.18799783389E-01 -0.75966394897E-01  0.99136994046E-01  0.51100000000E-03 0.  1.
         11    1    4    4    0    0  0.10561427730E-01  0.58781837402E-02 -0.32223615601E-01  0.34419751934E-01  0.51100000000E-03 0. -1.
</event>
<event>
 8    1  0.1109294E+005  0.1043930E+01  0.7957747E-01            NaN
         13   -1    0    0    0    0  0.00000000000E+00  0.00000000000E+00  0.74505805969E-08  0.10566000000E+00  0.10566000000E+00 0.  1.
     999900   -1    0    0    0    0 -0.00000000000E+00 -0.00000000000E+00 -0.74505805969E-08  0.93827000000E+00  0.93827000000E+00 0. -1.
     999902    2    1    2    0    0 -0.96127429963E-02  0.19486399345E-01 -0.63385669691E-02  0.10212959103E+01  0.10210450697E+01 0.  0.
     999903    2    3    3    0    0  0.27324262768E-01 -0.85635676477E-01 -0.91800180053E-01  0.13016254171E+00  0.20854970286E-01 0.  0.
         14    1    1    2    0    0  0.96127429963E-02 -0.19486399345E-01  0.63385669691E-02  0.22634089745E-01  0.00000000000E+00 0.  1.
     999901    1    3    3    0    0 -0.36937005764E-01  0.10512207582E+00  0.85461613084E-01  0.89113336854E+00  0.88000000000E+00 0. -1.
        -11    1    4    4    0    0  0.19365965508E-01 -0.64578649648E-01 -0.80389231777E-01  0.10491964695E+00  0.51100000000E-03 0.  1.
         11    1    4    4    0    0  0.79582972595E-02 -0.21057026830E-01 -0.11410948276E-01  0.25242894758E-01  0.51100000000E-03 0. -1.
</event>
<event>
 7    1  0.1164690E+005  0.1043930E+01  0.7957747E-01            NaN
         13   -1    0    0    0    0  0.00000000000E+00  0.00000000000E+00  0.74505805969E-08  0.10566000000E+00  0.10566000000E+00 0.  1.
     999900   -1    0    0    0    0 -0.00000000000E+00 -0.00000000000E+00 -0.74505805969E-08  0.93827000000E+00  0.93827000000E+00 0.  1.
     999903    2    1    2    0    0 -0.86211633286E-01 -0.58710698094E-01 -0.15974476296E-01  0.10742531217E+00  0.20140060021E-01 0.  0.
         14    1    1    2    0    0  0.28333568499E-02 -0.39210544459E-01 -0.24349274349E-01  0.46242641243E-01  0.00000000000E+00 0.  1.
     999901    1    1    2    0    0  0.83378276436E-01  0.97921242553E-01  0.40323750645E-01  0.89026204659E+00  0.88000000000E+00 0. -1.
        -11    1    3    3    0    0 -0.55567807989E-01 -0.26146931478E-01 -0.69554300509E-02  0.61806815471E-01  0.51100000000E-03 0.  1.
         11    1    3    3    0    0 -0.30643825297E-01 -0.32563766617E-01 -0.90190462454E-02  0.45618496701E-01  0.51100000000E-03 0. -1.
</event>
<event>
 8    1  0.1109294E+005  0.1043930E+01  0.7957747E-01            NaN
         13   -1    0    0    0    0  0.00000000000E+00  0.00000000000E+00  0.74505805969E-08  0.10566000000E+00  0.10566000000E+00 0. -1.
     999900   -1    0    0    0    0 -0.00000000000E+00 -0.00000000000E+00 -0.74505805969E-08  0.93827000000E+00  0.93827000000E+00 0. -1.
     999902    2    1    2    0    0  0.70004783871E-02  0.20753148986E-02 -0.21882231506E-01  0.10208617169E+01  0.10206010481E+01 0.  0.
     999903    2    3    3    0    0 -0.11223357005E+00 -0.26431387707E-01  0.54780877864E-01  0.12906206297E+00  0.19002079290E-01 0.  0.
         14    1    1    2    0    0 -0.70004783871E-02 -0.20753148986E-02  0.21882231506E-01  0.23068283102E-01  0.00000000000E+00 0. -1.
     999901    1    3    3    0    0  0.11923404844E+00  0.28506702606E-01 -0.76663109370E-01  0.89179965392E+00  0.88000000000E+00 0. -1.
        -11    1    4    4    0    0 -0.47099216884E-01 -0.32938265609E-02  0.28242694534E-01  0.55019055245E-01  0.51100000000E-03 0. -1.
         11    1    4    4    0    0 -0.65134353167E-01 -0.23137561147E-01  0.26538183330E-01  0.74043007730E-01  0.51100000000E-03 0.  1.
</event>
<event>
 8    1  0.1109294E+005  0.1043930E+01  0.7957747E-01            NaN
         13   -1    0    0    0    0  0.00000000000E+00  0.00000000000E+00  0.74505805969E-08  0.10566000000E+00  0.10566000000E+00 0.  1.
     999900   -1    0    0    0    0 -0.00000000000E+00 -0.00000000000E+00 -0.74505805969E-08  0.93827000000E+00  0.93827000000E+00 0.  1.
     999902    2    1    2    0    0  0.64573083154E-02  0.18178544367E-01  0.63653742251E-02  0.10236156136E+01  0.10234140170E+01 0.  0.
     999903    2    3    3    0    0  0.12128629847E+00  0.43014015380E-01  0.36416993352E-01  0.13529945512E+00  0.20473725468E-01 0.  0.
         14    1    1    2    0    0 -0.64573083154E-02 -0.18178544367E-01 -0.63653742251E-02  0.20314386405E-01  0.00000000000E+00 0. -1.
     999901    1    3    3    0    0 -0.11482899015E+00 -0.24835471013E-01 -0.30051619127E-01  0.88831615848E+00  0.88000000000E+00 0.  1.
        -11    1    4    4    0    0  0.39889259074E-01  0.98136242146E-02  0.20678589016E-01  0.45992666529E-01  0.51100000000E-03 0. -1.
         11    1    4    4    0    0  0.81397039396E-01  0.33200391166E-01  0.15738404336E-01  0.89306788589E-01  0.51100000000E-03 0.  1.
</event>
<event>
 8    1  0.1109294E+005  0.1043930E+01  0.7957747E-01            NaN
         13   -1    0    0    0    0  0.00000000000E+00  0.00000000000E+00  0.74505805969E-08  0.10566000000E+00  0.10566000000E+00 0. -1.
     999900   -1    0    0    0    0 -0.00000000000E+00 -0.00000000000E+00 -0.74505805969E-08  0.93827000000E+00  0.93827000000E+00 0. -1.
     999902    2    1    2    0    0 -0.16189131528E-01  0.14997347611E-01  0.78770439484E-02  0.10204980509E+01  0.10202290016E+01 0.  0.
     999903    2    3    3    0    0  0.93049950101E-02  0.10923999184E+00 -0.70273743196E-01  0.13165657351E+00  0.19367385406E-01 0.  0.
         14    1    1    2    0    0  0.16189131528E-01 -0.14997347611E-01 -0.78770439484E-02  0.23431949052E-01  0.00000000000E+00 0.  1.
     999901    1    3    3    0    0 -0.25494126538E-01 -0.94242644226E-01  0.78150787145E-01  0.88884147744E+00  0.88000000000E+00 0.  1.
        -11    1    4    4    0    0 -0.65228809530E-03  0.70797514747E-01 -0.37235835931E-01  0.79996763514E-01  0.51100000000E-03 0. -1.
         11    1    4    4    0    0  0.99572831054E-02  0.38442477090E-01 -0.33037907265E-01  0.51659809999E-01  0.51100000000E-03 0.  1.
</event>
<event>
 8    1  0.1109294E+005  0.1043930E+01  0.7957747E-01            NaN
         13   -1    0    0    0    0  0.00000000000E+00  0.00000000000E+00  0.74505805969E-08  0.10566000000E+00  0.10566000000E+00 0.  1.
     999900   -1    0    0    0    0 -0.00000000000E+00 -0.00000000000E+00 -0.74505805969E-08  0.93827000000E+00  0.93827000000E+00 0. -1.
     999902    2    1    2    0    0  0.89975823999E-03 -0.11200604301E-01 -0.21317811260E-01  0.10198320296E+01  0.10195472801E+01 0.  0.
     999903    2    3    3    0    0  0.11890493210E-01  0.12572491874E+00  0.13775002806E-01  0.12848422949E+00  0.19243375596E-01 0.  0.
         14    1    1    2    0    0 -0.89975823999E-03  0.11200604301E-01  0.21317811260E-01  0.24097970423E-01  0.00000000000E+00 0.  1.
     999901    1    3    3    0    0 -0.10990734970E-01 -0.13692552304E+00 -0.35092814066E-01  0.89134780008E+00  0.88000000000E+00 0.  1.
        -11    1    4    4    0    0  0.12028111777E-01  0.45447181074E-01 -0.98380840471E-04  0.47014811925E-01  0.51100000000E-03 0.  1.
         11    1    4    4    0    0 -0.13761856710E-03  0.80277737669E-01  0.13873383646E-01  0.81469417568E-01  0.51100000000E-03 0. -1.
</event>
<event>
 8    1  0.1109294E+005  0.1043930E+01  0.7957747E-01            NaN
         13   -1    0    0    0    0  0.00000000000E+00  0.00000000000E+00  0.74505805969E-08  0.10566000000E+00  0.10566000000E+00 0. -1.
     999900   -1    0    0    0    0 -0.00000000000E+00 -0.00000000000E+00 -0.74505805969E-08  0.93827000000E+00  0.93827000000E+00 0.  1.
     999902    2    1    2    0    0 -0.12358697461E-01 -0.15365369758E-01  0.10167247817E-01  0.10217443082E+01  0.10215034148E+01 0.  0.
     999903    2    3    3    0    0 -0.94842199039E-01  0.60492893401E-01 -0.64742787149E-01  0.13148057346E+00  0.21001900851E-01 0.  0.
         14    1    1    2    0    0  0.12358697461E-01  0.15365369758E-01 -0.10167247817E-01  0.22185691761E-01  0.00000000000E+00 0. -1.
     999901    1    3    3    0    0  0.82483501578E-01 -0.75858263159E-01  0.74910034966E-01  0.89026373478E+00  0.88000000000E+00 0. -1.
        -11    1    4    4    0    0 -0.96656363519E-02  0.34098742653E-02 -0.89726268945E-04  0.10262599105E-01  0.51100000000E-03 0.  1.
         11    1    4    4    0    0 -0.85176562687E-01  0.57083019136E-01 -0.64653060880E-01  0.12121797436E+00  0.51100000000E-03 0. -1.
</event>
<event>
 8    1  0.1109294E+005  0.1043930E+01  0.7957747E-01            NaN
         13   -1    0    0    0    0  0.00000000000E+00  0.00000000000E+00  0.74505805969E-08  0.10566000000E+00  0.10566000000E+00 0. -1.
     999900   -1    0    0    0    0 -0.00000000000E+00 -0.00000000000E+00 -0.74505805969E-08  0.93827000000E+00  0.93827000000E+00 0. -1.
     999902    2    1    2    0    0 -0.22314282451E-01  0.24049185387E-02  0.88921189292E-02  0.10197891505E+01  0.10195033746E+01 0.  0.
     999903    2    3    3    0    0  0.12370547953E+00 -0.31514895121E-02  0.25615096721E-01  0.12758272679E+00  0.17556806169E-01 0.  0.
         14    1    1    2    0    0  0.22314282451E-01 -0.24049185387E-02 -0.88921189292E-02  0.24140849478E-01  0.00000000000E+00 0. -1.
     999901    1    3    3    0    0 -0.14601976198E+00  0.55564080508E-02 -0.16722977792E-01  0.89220642373E+00  0.88000000000E+00 0.  1.
        -11    1    4    4    0    0  0.93270778149E-01 -0.68982737800E-02  0.25394588999E-01  0.96913211221E-01  0.51100000000E-03 0.  1.
         11    1    4    4    0    0  0.30434701384E-01  0.37467842679E-02  0.22050772162E-03  0.30669515570E-01  0.51100000000E-03 0. -1.
</event>
<event>
 8    1  0.1109294E+005  0.1043930E+01  0.7957747E-01            NaN
         13   -1    0    0    0    0  0.00000000000E+00  0.00000000000E+00  0.74505805969E-08  0.10566000000E+00  0.10566000000E+00 0.  1.
     999900   -1    0    0    0    0 -0.00000000000E+00 -0.00000000000E+00 -0.74505805969E-08  0.93827000000E+00  0.93827000000E+00 0. -1.
     999902    2    1    2    0    0  0.16870109477E-01  0.16161887223E-01  0.26105000184E-02  0.10204220885E+01  0.10201512715E+01 0.  0.
     999903    2    3    3    0    0  0.10611316242E+00 -0.71097690036E-01 -0.22679615019E-01  0.13125498034E+00  0.19965474234E-01 0.  0.
         14    1    1    2    0    0 -0.16870109477E-01 -0.16161887223E-01 -0.26105000184E-02  0.23507911492E-01  0.00000000000E+00 0. -1.
     999901    1    3    3    0    0 -0.89243052939E-01  0.87259577259E-01  0.25290115037E-01  0.88916710816E+00  0.88000000000E+00 0.  1.
        -11    1    4    4    0    0  0.85442956365E-02 -0.11448325168E-01 -0.66936586120E-02  0.15784021151E-01  0.51100000000E-03 0. -1.
         11    1    4    4    0    0  0.97568866780E-01 -0.59649364868E-01 -0.15985956407E-01  0.11547095919E+00  0.51100000000E-03 0.  1.
</event>
<event>
 8    1  0.1109294E+005  0.1043930E+01  0.7957747E-01            NaN
         13   -1    0    0    0    0  0.00000000000E+00  0.00000000000E+00  0.74505805969E-08  0.10566000000E+00  0.10566000000E+00 0. -1.
     999900   -1    0    0    0    0 -0.00000000000E+00 -0.00000000000E+00 -0.74505805969E-08  0.93827000000E+00  0.93827000000E+00 0. -1.
     999902    2    1    2    0    0 -0.48319929395E-02  0.12692882613E-01  0.19411285225E-01  0.10202391702E+01  0.10199640724E+01 0.  0.
     999903    2    3    3    0    0  0.13979216194E-01 -0.72893278498E-01  0.10687384727E+00  0.13157244279E+00  0.19504869525E-01 0.  0.
         14    1    1    2    0    0  0.48319929395E-02 -0.12692882613E-01 -0.19411285225E-01  0.23690829848E-01  0.00000000000E+00 0.  1.
     999901    1    3    3    0    0 -0.18811209134E-01  0.85586161111E-01 -0.87462562047E-01  0.88866672736E+00  0.88000000000E+00 0. -1.
        -11    1    4    4    0    0 -0.43205096561E-02 -0.19484121253E-01  0.22864901807E-01  0.30353955926E-01  0.51100000000E-03 0.  1.
         11    1    4    4    0    0  0.18299725850E-01 -0.53409157246E-01  0.84008945464E-01  0.10121848686E+00  0.51100000000E-03 0. -1.
</event>
<event>
 8    1  0.1109294E+005  0.1043930E+01  0.7957747E-01            NaN
         13   -1    0    0    0    0  0.00000000000E+00  0.00000000000E+00  0.74505805969E-08  0.10566000000E+00  0.10566000000E+00 0. -1.
     999900   -1    0    0    0    0 -0.00000000000E+00 -0.00000000000E+00 -0.74505805969E-08  0.93827000000E+00  0.93827000000E+00 0. -1.
     999902    2    1    2    0    0  0.22906544838E-01  0.51445314289E-02  0.10312570303E-02  0.10204302236E+01  0.10201595962E+01 0.  0.
     999903    2    3    3    0    0 -0.48849986792E-01 -0.82614424005E-01 -0.83744858222E-01  0.12911791929E+00  0.21136970915E-01 0.  0.
         14    1    1    2    0    0 -0.22906544838E-01 -0.51445314289E-02 -0.10312570303E-02  0.23499776405E-01  0.00000000000E+00 0.  1.
     999901    1    3    3    0    0  0.71756531630E-01  0.87758955434E-01  0.84776115252E-01  0.89131230431E+00  0.88000000000E+00 0.  1.
        -11    1    4    4    0    0 -0.32563680749E-01 -0.39824879821E-01 -0.53625075186E-01  0.74312341952E-01  0.51100000000E-03 0. -1.
         11    1    4    4    0    0 -0.16286306043E-01 -0.42789544185E-01 -0.30119783035E-01  0.54805577336E-01  0.51100000000E-03 0.  1.
</event>
<event>
 8    1  0.1109294E+005  0.1043930E+01  0.7957747E-01            NaN
         13   -1    0    0    0    0  0.00000000000E+00  0.00000000000E+00  0.74505805969E-08  0.10566000000E+00  0.10566000000E+00 0.  1.
     999900   -1    0    0    0    0 -0.00000000000E+00 -0.00000000000E+00 -0.74505805969E-08  0.93827000000E+00  0.93827000000E+00 0. -1.
     999902    2    1    2    0    0  0.15272378039E-01  0.76953311231E-02  0.16659025072E-01  0.10200556043E+01  0.10197761760E+01 0.  0.
     999903    2    3    3    0    0  0.84453209982E-01  0.99996140077E-01 -0.45667837807E-03  0.13236287926E+00  0.19701536609E-01 0.  0.
         14    1    1    2    0    0 -0.15272378039E-01 -0.76953311231E-02 -0.16659025072E-01  0.23874395666E-01  0.00000000000E+00 0.  1.
     999901    1    3    3    0    0 -0.69180831942E-01 -0.92300808954E-01  0.17115703450E-01  0.88769272507E+00  0.88000000000E+00 0. -1.
        -11    1    4    4    0    0  0.56205794519E-01  0.53420807822E-01 -0.49598120554E-02  0.77702862897E-01  0.51100000000E-03 0. -1.
         11    1    4    4    0    0  0.28247415463E-01  0.46575332255E-01  0.45031336773E-02  0.54660016364E-01  0.51100000000E-03 0.  1.
</event>
<event>
 8    1  0.1109294E+005  0.1043930E+01  0.7957747E-01            NaN
         13   -1    0    0    0    0  0.00000000000E+00  0.00000000000E+00  0.74505805969E-08  0.10566000000E+00  0.10566000000E+00 0.  1.
     999900   -1    0    0    0    0 -0.00000000000E+00 -0.00000000000E+00 -0.74505805969E-08  0.93827000000E+00  0.93827000000E+00 0. -1.
     999902    2    1    2    0    0  0.10567329299E-01 -0.18097292665E-01  0.11487496677E-01  0.10200314011E+01  0.10197513992E+01 0.  0.
     999903    2    3    3    0    0 -0.37231068053E-01 -0.22540042140E-01  0.12268107182E+00  0.13173615964E+00  0.20237698657E-01 0.  0.
         14    1    1    2    0    0 -0.10567329299E-01  0.18097292665E-01 -0.11487496677E-01  0.23898598917E-01  0.00000000000E+00 0. -1.
     999901    1    3    3    0    0  0.47798397353E-01  0.44427494752E-02 -0.11119357514E+00  0.88829524144E+00  0.88000000000E+00 0. -1.
        -11    1    4    4    0    0 -0.31590002094E-01 -0.83932533935E-02  0.80321622777E-01  0.86719081760E-01  0.51100000000E-03 0. -1.
         11    1    4    4    0    0 -0.56410659587E-02 -0.14146788746E-01  0.42359449041E-01  0.45017077882E-01  0.51100000000E-03 0.  1.
</event>
<event>
 8    1  0.1109294E+005  0.1043930E+01  0.7957747E-01            NaN
         13   -1    0    0    0    0  0.00000000000E+00  0.00000000000E+00  0.74505805969E-08  0.10566000000E+00  0.10566000000E+00 0.  1.
     999900   -1    0    0    0    0 -0.00000000000E+00 -0.00000000000E+00 -0.74505805969E-08  0.93827000000E+00  0.93827000000E+00 0.  1.
     999902    2    1    2    0    0 -0.86784177255E-02  0.57502353794E-02 -0.21232449848E-01  0.10202826520E+01  0.10200085749E+01 0.  0.
     999903    2    3    3    0    0  0.85706503740E-01  0.80163961889E-01  0.50696633560E-01  0.12920481637E+00  0.18758207564E-01 0.  0.
         14    1    1    2    0    0  0.86784177255E-02 -0.57502353794E-02  0.21232449848E-01  0.23647348005E-01  0.00000000000E+00 0.  1.
     999901    1    3    3    0    0 -0.94384921466E-01 -0.74413726510E-01 -0.71929083408E-01  0.89107783562E+00  0.88000000000E+00 0.  1.
        -11    1    4    4    0    0  0.29715256554E-01  0.34557265861E-01  0.28057268967E-01  0.53522635947E-01  0.51100000000E-03 0. -1.
         11    1    4    4    0    0  0.55991247187E-01  0.45606696028E-01  0.22639364593E-01  0.75682180427E-01  0.51100000000E-03 0.  1.
</event>
<event>
 8    1  0.1109294E+005  0.1043930E+01  0.7957747E-01            NaN
         13   -1    0    0    0    0  0.00000000000E+00  0.00000000000E+00  0.74505805969E-08  0.10566000000E+00  0.10566000000E+00 0. -1.
     999900   -1    0    0    0    0 -0.00000000000E+00 -0.00000000000E+00 -0.74505805969E-08  0.93827000000E+00  0.93827000000E+00 0. -1.
     999902    2    1    2    0    0  0.20992300975E-01  0.76663667860E-02 -0.95558691809E-02  0.10196243522E+01  0.10193346139E+01 0.  0.
     999903    2    3    3    0    0 -0.11012476175E+00 -0.12612461245E-01  0.59222447170E-01  0.12702512980E+00  0.18481017904E-01 0.  0.
         14    1    1    2    0    0 -0.20992300975E-01 -0.76663667860E-02  0.95558691809E-02  0.24305647815E-01  0.00000000000E+00 0. -1.
     999901    1    3    3    0    0  0.13111706272E+00  0.20278828031E-01 -0.68778316351E-01  0.89259922239E+00  0.88000000000E+00 0. -1.
        -11    1    4    4    0    0 -0.73601359498E-01 -0.12177731440E-01  0.30675341139E-01  0.80664087039E-01  0.51100000000E-03 0.  1.
         11    1    4    4    0    0 -0.36523402251E-01 -0.43472980543E-03  0.28547106031E-01  0.46361042760E-01  0.51100000000E-03 0. -1.
</event>
<event>
 8    1  0.1109294E+005  0.1043930E+01  0.7957747E-01            NaN
         13   -1    0    0    0    0  0.00000000000E+00  0.00000000000E+00  0.74505805969E-08  0.10566000000E+00  0.10566000000E+00 0. -1.
     999900   -1    0    0    0    0 -0.00000000000E+00 -0.00000000000E+00 -0.74505805969E-08  0.93827000000E+00  0.93827000000E+00 0. -1.
     999902    2    1    2    0    0  0.10851064156E-01 -0.15700951853E-01 -0.18334338952E-01  0.10174646742E+01  0.10171204205E+01 0.  0.
     999903    2    3    3    0    0 -0.11996186902E+00 -0.11374213483E-01  0.32177100692E-01  0.12635180278E+00  0.20228433110E-01 0.  0.
         14    1    1    2    0    0 -0.10851064156E-01  0.15700951853E-01  0.18334338952E-01  0.26465325753E-01  0.00000000000E+00 0.  1.
     999901    1    3    3    0    0  0.13081293318E+00 -0.43267383693E-02 -0.50511439644E-01  0.89111287146E+00  0.88000000000E+00 0.  1.
        -11    1    4    4    0    0 -0.39087153000E-01  0.48816968679E-02  0.63012393075E-02  0.39894902328E-01  0.51100000000E-03 0.  1.
         11    1    4    4    0    0 -0.80874716022E-01 -0.16255910351E-01  0.25875861384E-01  0.86456900456E-01  0.51100000000E-03 0. -1.
</event>
<event>
 8    1  0.1109294E+005  0.1043930E+01  0.7957747E-01            NaN
         13   -1    0    0    0    0  0.00000000000E+00  0.00000000000E+00  0.74505805969E-08  0.10566000000E+00  0.10566000000E+00 0.  1.
     999900   -1    0    0    0    0 -0.00000000000E+00 -0.00000000000E+00 -0.74505805969E-08  0.93827000000E+00  0.93827000000E+00 0.  1.
     999902    2    1    2    0    0 -0.47819009279E-02 -0.11272032477E-02  0.23261278145E-01  0.10201555552E+01  0.10198784891E+01 0.  0.
     999903    2    3    3    0    0 -0.10778689784E+00  0.66293831185E-01 -0.24029824373E-01  0.13032856437E+00  0.19880010870E-01 0.  0.
         14    1    1    2    0    0  0.47819009279E-02  0.11272032477E-02 -0.23261278145E-01  0.23774444780E-01  0.00000000000E+00 0. -1.
     999901    1    3    3    0    0  0.10300499691E+00 -0.67421034432E-01  0.47291102518E-01  0.88982699085E+00  0.88000000000E+00 0.  1.
        -11    1    4    4    0    0 -0.66448437290E-01  0.51761607640E-01 -0.17375475073E-01  0.86004808579E-01  0.51100000000E-03 0.  1.
         11    1    4    4    0    0 -0.41338460547E-01  0.14532223545E-01 -0.66543492998E-02  0.44323755788E-01  0.51100000000E-03 0. -1.
</event>
<event>
 8    1  0.1109294E+005  0.1043930E+01  0.7957747E-01            NaN
         13   -1    0    0    0    0  0.00000000000E+00  0.00000000000E+00  0.74505805969E-08  0.10566000000E+00  0.10566000000E+00 0. -1.
     999900   -1    0    0    0    0 -0.00000000000E+00 -0.00000000000E+00 -0.74505805969E-08  0.93827000000E+00  0.93827000000E+00 0.  1.
     999902    2    1    2    0    0 -0.87123184546E-02 -0.22019107315E-01 -0.21788462537E-02  0.10201499043E+01  0.10198727050E+01 0.  0.
     999903    2    3    3    0    0  0.10505109780E+00  0.57989011474E-01 -0.40964313226E-01  0.12838327206E+00  0.20142765092E-01 0.  0.
         14    1    1    2    0    0  0.87123184546E-02  0.22019107315E-01  0.21788462537E-02  0.23780095686E-01  0.00000000000E+00 0.  1.
     999901    1    3    3    0    0 -0.11376341626E+00 -0.80008118789E-01  0.38785466972E-01  0.89176663225E+00  0.88000000000E+00 0. -1.
        -11    1    4    4    0    0  0.80700466479E-01  0.37550364405E-01 -0.36794294896E-01  0.96315504540E-01  0.51100000000E-03 0. -1.
         11    1    4    4    0    0  0.24350631326E-01  0.20438647069E-01 -0.41700183292E-02  0.32067767522E-01  0.51100000000E-03 0.  1.
</event>
<event>
 8    1  0.1109294E+005  0.1043930E+01  0.7957747E-01            NaN
         13   -1    0    0    0    0  0.00000000000E+00  0.00000000000E+00  0.74505805969E-08  0.10566000000E+00  0.10566000000E+00 0.  1.
     999900   -1    0    0    0    0 -0.00000000000E+00 -0.00000000000E+00 -0.74505805969E-08  0.93827000000E+00  0.93827000000E+00 0. -1.
     999902    2    1    2    0    0  0.20462305130E-01 -0.13615791812E-01 -0.17802728817E-02  0.10192872508E+01  0.10189893201E+01 0.  0.
     999903    2    3    3    0    0  0.46978538385E-01  0.29282064464E-01 -0.11646652761E+00  0.13041365249E+00  0.19463975316E-01 0.  0.
         14    1    1    2    0    0 -0.20462305130E-01  0.13615791812E-01  0.17802728817E-02  0.24642749226E-01  0.00000000000E+00 0.  1.
     999901    1    3    3    0    0 -0.26516233255E-01 -0.42897856276E-01  0.11468625473E+00  0.88887359828E+00  0.88000000000E+00 0.  1.
        -11    1    4    4    0    0  0.17351533975E-01  0.19488806029E-01 -0.39313429325E-01  0.47187881262E-01  0.51100000000E-03 0. -1.
         11    1    4    4    0    0  0.29627004409E-01  0.97932584350E-02 -0.77153098283E-01  0.83225771230E-01  0.51100000000E-03 0.  1.
</event>
<event>
 8    1  0.1109294E+005  0.1043930E+01  0.7957747E-01            NaN
         13   -1    0    0    0    0  0.00000000000E+00  0.00000000000E+00  0.74505805969E-08  0.10566000000E+00  0.10566000000E+00 0. -1.
     999900   -1    0    0    0    0 -0.00000000000E+00 -0.00000000000E+00 -0.74505805969E-08  0.93827000000E+00  0.93827000000E+00 0. -1.
     999902    2    1    2    0    0 -0.81490810290E-02  0.51399447404E-02 -0.21745492713E-01  0.10201456983E+01  0.10198683997E+01 0.  0.
     999903    2    3    3    0    0 -0.66826919851E-01 -0.42987466603E-02  0.10791909802E+00  0.12866093470E+00  0.20561808262E-01 0.  0.
         14    1    1    2    0    0  0.81490810290E-02 -0.51399447404E-02  0.21745492713E-01  0.23784301690E-01  0.00000000000E+00 0. -1.
     999901    1    3    3    0    0  0.58677838822E-01  0.94386914007E-02 -0.12966459074E+00  0.89148476361E+00  0.88000000000E+00 0. -1.
        -11    1    4    4    0    0 -0.23266940892E-01 -0.68116955876E-02  0.54742969123E-01  0.59873228781E-01  0.51100000000E-03 0. -1.
         11    1    4    4    0    0 -0.43559978959E-01  0.25129489273E-02  0.53176128901E-01  0.68787705916E-01  0.51100000000E-03 0.  1.
</event>
<event>
 8    1  0.1109294E+005  0.1043930E+01  0.7957747E-01            NaN
         13   -1    0    0    0    0  0.00000000000E+00  0.00000000000E+00  0.74505805969E-08  0.10566000000E+00  0.10566000000E+00 0.  1.
     999900   -1    0    0    0    0 -0.00000000000E+00 -0.00000000000E+00 -0.74505805969E-08  0.93827000000E+00  0.93827000000E+00 0.  1.
     999902    2    1    2    0    0 -0.14510809187E-01 -0.15341051093E-01 -0.90662456594E-02  0.10209493942E+01  0.10206907256E+01 0.  0.
     999903    2    3    3    0    0 -0.47703283416E-01  0.54878022341E-01  0.10595935221E+00  0.13007154244E+00  0.20100279752E-01 0.  0.
         14    1    1    2    0    0  0.14510809187E-01  0.15341051093E-01  0.90662456594E-02  0.22980605785E-01  0.00000000000E+00 0.  1.
     999901    1    3    3    0    0  0.33192474229E-01 -0.70219073434E-01 -0.11502559787E+00  0.89087785178E+00  0.88000000000E+00 0.  1.
        -11    1    4    4    0    0 -0.23087790266E-01  0.38084046347E-01  0.74021990942E-01  0.86388407264E-01  0.51100000000E-03 0.  1.
         11    1    4    4    0    0 -0.24615493150E-01  0.16793975994E-01  0.31937361271E-01  0.43683135175E-01  0.51100000000E-03 0. -1.
</event>
<event>
 8    1  0.1109294E+005  0.1043930E+01  0.7957747E-01            NaN
         13   -1    0    0    0    0  0.00000000000E+00  0.00000000000E+00  0.74505805969E-08  0.10566000000E+00  0.10566000000E+00 0.  1.
     999900   -1    0    0    0    0 -0.00000000000E+00 -0.00000000000E+00 -0.74505805969E-08  0.93827000000E+00  0.93827000000E+00 0. -1.
     999902    2    1    2    0    0  0.22086941771E-01 -0.86363513854E-03  0.23452486105E-02  0.10217021109E+01  0.10214602902E+01 0.  0.
     999903    2    3    3    0    0 -0.97697195908E-01 -0.69561931656E-01 -0.45639856581E-01  0.12964254681E+00  0.18455053773E-01 0.  0.
         14    1    1    2    0    0 -0.22086941771E-01  0.86363513854E-03 -0.23452486105E-02  0.22227889092E-01  0.00000000000E+00 0.  1.
     999901    1    3    3    0    0  0.11978413768E+00  0.68698296518E-01  0.47985105192E-01  0.89205956410E+00  0.88000000000E+00 0.  1.
        -11    1    4    4    0    0 -0.43600000619E-01 -0.41851442644E-01 -0.25656757467E-01  0.65658461984E-01  0.51100000000E-03 0.  1.
         11    1    4    4    0    0 -0.54097195289E-01 -0.27710489012E-01 -0.19983099115E-01  0.63984084823E-01  0.51100000000E-03 0. -1.
</event>
<event>
 8    1  0.1109294E+005  0.1043930E+01  0.7957747E-01            NaN
         13   -1    0    0    0    0  0.00000000000E+00  0.00000000000E+00  0.74505805969E-08  0.10566000000E+00  0.10566000000E+00 0. -1.
     999900   -1    0    0    0    0 -0.00000000000E+00 -0.00000000000E+00 -0.74505805969E-08  0.93827000000E+00  0.93827000000E+00 0. -1.
     999902    2    1    2    0    0 -0.33538191494E-02 -0.22909786227E-01 -0.37146385871E-02  0.10204799478E+01  0.10202104778E+01 0.  0.
     999903    2    3    3    0    0 -0.54556237421E-02  0.10301328188E+00  0.73838021729E-01  0.12813727160E+00  0.18044579414E-01 0.  0.
         14    1    1    2    0    0  0.33538191494E-02  0.22909786227E-01  0.37146385871E-02  0.23450052189E-01  0.00000000000E+00 0. -1.
     999901    1    3    3    0    0  0.21018045927E-02 -0.12592306811E+00 -0.77552660316E-01  0.89234267621E+00  0.88000000000E+00 0. -1.
        -11    1    4    4    0    0 -0.10015665628E-01  0.68489748348E-01  0.42096947440E-01  0.81015882958E-01  0.51100000000E-03 0. -1.
         11    1    4    4    0    0  0.45600418863E-02  0.34523533533E-01  0.31741074288E-01  0.47121388642E-01  0.51100000000E-03 0.  1.
</event>
<event>
 8    1  0.1109294E+005  0.1043930E+01  0.7957747E-01            NaN
         13   -1    0    0    0    0  0.00000000000E+00  0.00000000000E+00  0.74505805969E-08  0.10566000000E+00  0.10566000000E+00 0.  1.
     999900   -1    0    0    0    0 -0.00000000000E+00 -0.00000000000E+00 -0.74505805969E-08  0.93827000000E+00  0.93827000000E+00 0.  1.
     999902    2    1    2    0    0  0.86903590818E-02  0.17096677118E-01  0.14942514260E-01  0.10196175044E+01  0.10193276009E+01 0.  0.
     999903    2    3    3    0    0 -0.56179364308E-01  0.24356551777E-01  0.11479714678E+00  0.13156810577E+00  0.19555535243E-01 0.  0.
         14    1    1    2    0    0 -0.86903590818E-02 -0.17096677118E-01 -0.14942514260E-01  0.24312495591E-01  0.00000000000E+00 0.  1.
     999901    1    3    3    0    0  0.64869723390E-01 -0.72598746592E-02 -0.99854632516E-01  0.88804939864E+00  0.88000000000E+00 0.  1.
        -11    1    4    4    0    0 -0.49489328917E-02 -0.24584602345E-02  0.17768134254E-01  0.18614609300E-01  0.51100000000E-03 0.  1.
         11    1    4    4    0    0 -0.51230431416E-01  0.26815012012E-01  0.97029012522E-01  0.11295349647E+00  0.51100000000E-03 0. -1.
</event>
<event>
 8    1  0.1109294E+005  0.1043930E+01  0.7957747E-01            NaN
         13   -1    0    0    0    0  0.00000000000E+00  0.00000000000E+00  0.74505805969E-08  0.10566000000E+00  0.10566000000E+00 0.  1.
     999900   -1    0    0    0    0 -0.00000000000E+00 -0.00000000000E+00 -0.74505805969E-08  0.93827000000E+00  0.93827000000E+00 0.  1.
     999902    2    1    2    0    0  0.40898059481E-02 -0.15318414883E-01 -0.16148074952E-01  0.10212994748E+01  0.10210487141E+01 0.  0.
     999903    2    3    3    0    0  0.11802637471E+00 -0.27027541459E-01 -0.51310772991E-01  0.13318064225E+00  0.21061218435E-01 0.  0.
         14    1    1    2    0    0 -0.40898059481E-02  0.15318414883E-01  0.16148074952E-01  0.22630525223E-01  0.00000000000E+00 0.  1.
     999901    1    3    3    0    0 -0.11393656876E+00  0.11709126576E-01  0.35162698039E-01  0.88811883252E+00  0.88000000000E+00 0. -1.
        -11    1    4    4    0    0  0.36335370095E-01  0.13087330534E-02 -0.13157272564E-01  0.38669714823E-01  0.51100000000E-03 0. -1.
         11    1    4    4    0    0  0.81691004615E-01 -0.28336274512E-01 -0.38153500427E-01  0.94510927432E-01  0.51100000000E-03 0.  1.
</event>
<event>
 8    1  0.1109294E+005  0.1043930E+01  0.7957747E-01            NaN
         13   -1    0    0    0    0  0.00000000000E+00  0.00000000000E+00  0.74505805969E-08  0.10566000000E+00  0.10566000000E+00 0.  1.
     999900   -1    0    0    0    0 -0.00000000000E+00 -0.00000000000E+00 -0.74505805969E-08  0.93827000000E+00  0.93827000000E+00 0.  1.
     999902    2    1    2    0    0  0.43673359421E-03  0.21310146759E-01 -0.10726692552E-01  0.10200684195E+01  0.10197892946E+01 0.  0.
     999903    2    3    3    0    0  0.12798719252E+00 -0.15645361983E-02 -0.16516483202E-01  0.13055962675E+00  0.19744687856E-01 0.  0.
         14    1    1    2    0    0 -0.43673359421E-03 -0.21310146759E-01  0.10726692552E-01  0.23861580506E-01  0.00000000000E+00 0.  1.
     999901    1    3    3    0    0 -0.12755045892E+00  0.22874682957E-01  0.57897906496E-02  0.88950879274E+00  0.88000000000E+00 0. -1.
        -11    1    4    4    0    0  0.55593428008E-01 -0.43623201733E-02 -0.16334855327E-01  0.58109790006E-01  0.51100000000E-03 0. -1.
         11    1    4    4    0    0  0.72393764507E-01  0.27977839750E-02 -0.18162787479E-03  0.72449836745E-01  0.51100000000E-03 0.  1.
</event>
<event>
 8    1  0.1109294E+005  0.1043930E+01  0.7957747E-01            NaN
         13   -1    0    0    0    0  0.00000000000E+00  0.00000000000E+00  0.74505805969E-08  0.10566000000E+00  0.10566000000E+00 0. -1.
     999900   -1    0    0    0    0 -0.00000000000E+00 -0.00000000000E+00 -0.74505805969E-08  0.93827000000E+00  0.93827000000E+00 0.  1.
     999902    2    1    2    0    0  0.16823457917E-01  0.15009013692E-01 -0.67968591392E-02  0.10203822502E+01  0.10201105038E+01 0.  0.
     999903    2    3    3    0    0  0.10201201611E+00 -0.80194821920E-01 -0.91725919623E-02  0.13115421143E+00  0.16722136214E-01 0.  0.
         14    1    1    2    0    0 -0.16823457917E-01 -0.15009013692E-01  0.67968591392E-02  0.23547749838E-01  0.00000000000E+00 0. -1.
     999901    1    3    3    0    0 -0.85188558188E-01  0.95203835612E-01  0.23757328231E-02  0.88922803873E+00  0.88000000000E+00 0. -1.
        -11    1    4    4    0    0  0.50954810184E-01 -0.42547945975E-01  0.34413715029E-02  0.66474239720E-01  0.51100000000E-03 0.  1.
         11    1    4    4    0    0  0.51057205922E-01 -0.37646875945E-01 -0.12613963465E-01  0.64679971709E-01  0.51100000000E-03 0. -1.
</event>
<event>
 8    1  0.1109294E+005  0.1043930E+01  0.7957747E-01            NaN
         13   -1    0    0    0    0  0.00000000000E+00  0.00000000000E+00  0.74505805969E-08  0.10566000000E+00  0.10566000000E+00 0. -1.
     999900   -1    0    0    0    0 -0.00000000000E+00 -0.00000000000E+00 -0.74505805969E-08  0.93827000000E+00  0.93827000000E+00 0.  1.
     999902    2    1    2    0    0  0.99495882513E-02 -0.14248357311E-01  0.16140377189E-01  0.10202124586E+01  0.10199367328E+01 0.  0.
     999903    2    3    3    0    0  0.12730988927E+00 -0.30202518663E-01 -0.69793100540E-02  0.13197685056E+00  0.15785381676E-01 0.  0.
         14    1    1    2    0    0 -0.99495882513E-02  0.14248357311E-01 -0.16140377189E-01  0.23717541362E-01  0.00000000000E+00 0.  1.
     999901    1    3    3    0    0 -0.11736030102E+00  0.15954161352E-01  0.23119687243E-01  0.88823560808E+00  0.88000000000E+00 0.  1.
        -11    1    4    4    0    0  0.10788760988E+00 -0.21057275099E-01 -0.96040128194E-02  0.11034329786E+00  0.51100000000E-03 0.  1.
         11    1    4    4    0    0  0.19422279394E-01 -0.91452435643E-02  0.26247027654E-02  0.21633552698E-01  0.51100000000E-03 0. -1.
</event>
<event>
 8    1  0.1109294E+005  0.1043930E+01  0.7957747E-01            NaN
         13   -1    0    0    0    0  0.00000000000E+00  0.00000000000E+00  0.74505805969E-08  0.10566000000E+00  0.10566000000E+00 0. -1.
     999900   -1    0    0    0    0 -0.00000000000E+00 -0.00000000000E+00 -0.74505805969E-08  0.93827000000E+00  0.93827000000E+00 0.  1.
     999902    2    1    2    0    0  0.13579201843E-01  0.12693040471E-01  0.14618975263E-01  0.10202821156E+01  0.10200080259E+01 0.  0.
     999903    2    3    3    0    0 -0.29958613764E-01 -0.28992272941E-02 -0.12317956409E+00  0.12835885788E+00  0.19921529268E-01 0.  0.
         14    1    1    2    0    0 -0.13579201843E-01 -0.12693040471E-01 -0.14618975263E-01  0.23647884405E-01  0.00000000000E+00 0.  1.
     999901    1    3    3    0    0  0.43537815606E-01  0.15592267766E-01  0.13779853936E+00  0.89192325771E+00  0.88000000000E+00 0. -1.
        -11    1    4    4    0    0 -0.25077328548E-02  0.58837876028E-02 -0.35117067695E-01  0.35698420765E-01  0.51100000000E-03 0. -1.
         11    1    4    4    0    0 -0.27450880909E-01 -0.87830148970E-02 -0.88062496400E-01  0.92660437116E-01  0.51100000000E-03 0.  1.
</event>
<event>
 8    1  0.1109294E+005  0.1043930E+01  0.7957747E-01            NaN
         13   -1    0    0    0    0  0.00000000000E+00  0.00000000000E+00  0.74505805969E-08  0.10566000000E+00  0.10566000000E+00 0. -1.
     999900   -1    0    0    0    0 -0.00000000000E+00 -0.00000000000E+00 -0.74505805969E-08  0.93827000000E+00  0.93827000000E+00 0. -1.
     999902    2    1    2    0    0 -0.16394502273E-01  0.13077422968E-01 -0.11373451517E-01  0.10200730493E+01  0.10197940340E+01 0.  0.
     999903    2    3    3    0    0 -0.51945947468E-01 -0.10063309939E+00 -0.61894188464E-01  0.13060897865E+00  0.20060224010E-01 0.  0.
         14    1    1    2    0    0  0.16394502273E-01 -0.13077422968E-01  0.11373451517E-01  0.23856950679E-01  0.00000000000E+00 0.  1.
     999901    1    3    3    0    0  0.35551445194E-01  0.11371052236E+00  0.50520736947E-01  0.88946407067E+00  0.88000000000E+00 0.  1.
        -11    1    4    4    0    0 -0.27627328576E-01 -0.50482525209E-01 -0.42690745965E-01  0.71655533965E-01  0.51100000000E-03 0.  1.
         11    1    4    4    0    0 -0.24318618892E-01 -0.50150574182E-01 -0.19203442499E-01  0.58953444687E-01  0.51100000000E-03 0. -1.
</event>
<event>
 8    1  0.1109294E+005  0.1043930E+01  0.7957747E-01            NaN
         13   -1    0    0    0    0  0.00000000000E+00  0.00000000000E+00  0.74505805969E-08  0.10566000000E+00  0.10566000000E+00 0. -1.
     999900   -1    0    0    0    0 -0.00000000000E+00 -0.00000000000E+00 -0.74505805969E-08  0.93827000000E+00  0.93827000000E+00 0.  1.
     999902    2    1    2    0    0  0.37048935648E-01 -0.34909654697E-02  0.80008771834E-02  0.10058665726E+01  0.10051461273E+01 0.  0.
     999903    2    3    3    0    0  0.10490527441E+00 -0.55366051601E-01 -0.15922475550E-01  0.12140750959E+00  0.20389749578E-01 0.  0.
         14    1    1    2    0    0 -0.37048935648E-01  0.34909654697E-02 -0.80008771834E-02  0.38063427437E-01  0.00000000000E+00 0. -1.
     999901    1    3    3    0    0 -0.67856338762E-01  0.51875086131E-01  0.23923352733E-01  0.88445906297E+00  0.88000000000E+00 0. -1.
        -11    1    4    4    0    0  0.10870518269E-01 -0.12914631765E-01 -0.52355225356E-02  0.17681281013E-01  0.51100000000E-03 0. -1.
         11    1    4    4    0    0  0.94034756141E-01 -0.42451419836E-01 -0.10686953014E-01  0.10372622858E+00  0.51100000000E-03 0.  1.
</event>
<event>
 8    1  0.1109294E+005  0.1043930E+01  0.7957747E-01            NaN
         13   -1    0    0    0    0  0.00000000000E+00  0.00000000000E+00  0.74505805969E-08  0.10566000000E+00  0.10566000000E+00 0.  1.
     999900   -1    0    0    0    0 -0.00000000000E+00 -0.00000000000E+00 -0.74505805969E-08  0.93827000000E+00  0.93827000000E+00 0. -1.
     999902    2    1    2    0    0 -0.36092496931E-02  0.16015854754E-01  0.18003459399E-01  0.10195648848E+01  0.10192737098E+01 0.  0.
     999903    2    3    3    0    0  0.94375656523E-01  0.84815886515E-01 -0.26594851786E-01  0.13033853818E+00  0.13429417125E-01 0.  0.
         14    1    1    2    0    0  0.36092496931E-02 -0.16015854754E-01 -0.18003459399E-01  0.24365115169E-01  0.00000000000E+00 0. -1.
     999901    1    3    3    0    0 -0.97984906216E-01 -0.68800031761E-01  0.44598311185E-01  0.88922634665E+00  0.88000000000E+00 0.  1.
        -11    1    4    4    0    0  0.59650277551E-01  0.44974510476E-01 -0.17108417301E-01  0.76640858998E-01  0.51100000000E-03 0.  1.
         11    1    4    4    0    0  0.34725378972E-01  0.39841376038E-01 -0.94864344849E-02  0.53697679183E-01  0.51100000000E-03 0. -1.
</event>
<event>
 7    1  0.1109294E+005  0.1043930E+01  0.7957747E-01            NaN
         13   -1    0    0    0    0  0.00000000000E+00  0.00000000000E+00  0.74505805969E-08  0.10566000000E+00  0.10566000000E+00 0.  1.
     999900   -1    0    0    0    0 -0.00000000000E+00 -0.00000000000E+00 -0.74505805969E-08  0.93827000000E+00  0.93827000000E+00 0.  1.
     999902    2    1    2    0    0 -0.93658335813E-02  0.20583761553E-01 -0.58991162026E-02  0.10205588714E+01  0.10202912331E+01 0.  0.
         14    1    1    2    0    0  0.93658335813E-02 -0.20583761553E-01  0.58991162026E-02  0.23371128563E-01  0.00000000000E+00 0.  1.
     999901    1    3    3    0    0 -0.21574879632E-01 -0.10995171663E+00  0.17885263024E-01  0.88728503766E+00  0.88000000000E+00 0. -1.
        -11    1    3    3    0    0  0.45218733412E-02  0.40107368703E-01 -0.82201078149E-02  0.41193199151E-01  0.51100000000E-03 0. -1.
         11    1    3    3    0    0  0.76871727097E-02  0.90428109477E-01 -0.15564271411E-01  0.92080634627E-01  0.51100000000E-03 0.  1.
</event>
<event>
 8    1  0.1109294E+005  0.1043930E+01  0.7957747E-01            NaN
         13   -1    0    0    0    0  0.00000000000E+00  0.00000000000E+00  0.74505805969E-08  0.10566000000E+00  0.10566000000E+00 0.  1.
     999900   -1    0    0    0    0 -0.00000000000E+00 -0.00000000000E+00 -0.74505805969E-08  0.93827000000E+00  0.93827000000E+00 0.  1.
     999902    2    1    2    0    0 -0.27501980570E-02  0.23294489866E-02  0.23427784666E-01  0.10202266033E+01  0.10199512101E+01 0.  0.
     999903    2    3    3    0    0 -0.32977246932E-01  0.24799338246E-02 -0.12180967971E+00  0.12780987428E+00  0.20102661662E-01 0.  0.
         14    1    1    2    0    0  0.27501980570E-02 -0.23294489866E-02 -0.23427784666E-01  0.23703396725E-01  0.00000000000E+00 0. -1.
     999901    1    3    3    0    0  0.30227048875E-01 -0.15048483802E-03  0.14523746438E+00  0.89241672899E+00  0.88000000000E+00 0. -1.
        -11    1    4    4    0    0 -0.30205593120E-01  0.70855384891E-02 -0.82708564305E-01  0.88337706795E-01  0.51100000000E-03 0. -1.
         11    1    4    4    0    0 -0.27716538111E-02 -0.46056046645E-02 -0.39101115405E-01  0.39472167486E-01  0.51100000000E-03 0.  1.
</event>
<event>
 8    1  0.1109294E+005  0.1043930E+01  0.7957747E-01            NaN
         13   -1    0    0    0    0  0.00000000000E+00  0.00000000000E+00  0.74505805969E-08  0.10566000000E+00  0.10566000000E+00 0.  1.
     999900   -1    0    0    0    0 -0.00000000000E+00 -0.00000000000E+00 -0.74505805969E-08  0.93827000000E+00  0.93827000000E+00 0. -1.
     999902    2    1    2    0    0 -0.20659276222E-01  0.17684382605E-01  0.25679730950E-02  0.10166144812E+01  0.10162474432E+01 0.  0.
     999903    2    3    3    0    0 -0.60630629880E-01  0.92851558967E-01  0.65442582627E-01  0.13027310788E+00  0.19770324566E-01 0.  0.
         14    1    1    2    0    0  0.20659276222E-01 -0.17684382605E-01 -0.25679730950E-02  0.27315518812E-01  0.00000000000E+00 0.  1.
     999901    1    3    3    0    0  0.39971353657E-01 -0.75167176362E-01 -0.62874609532E-01  0.88634137331E+00  0.88000000000E+00 0. -1.
        -11    1    4    4    0    0 -0.77456807257E-02  0.31116063996E-02  0.64659213362E-02  0.10571041766E-01  0.51100000000E-03 0.  1.
         11    1    4    4    0    0 -0.52884949154E-01  0.89739952567E-01  0.58976661291E-01  0.11970206611E+00  0.51100000000E-03 0. -1.
</event>
<event>
 8    1  0.1109294E+005  0.1043930E+01  0.7957747E-01            NaN
         13   -1    0    0    0    0  0.00000000000E+00  0.00000000000E+00  0.74505805969E-08  0.10566000000E+00  0.10566000000E+00 0.  1.
     999900   -1    0    0    0    0 -0.00000000000E+00 -0.00000000000E+00 -0.74505805969E-08  0.93827000000E+00  0.93827000000E+00 0.  1.
     999902    2    1    2    0    0 -0.27555172717E-01  0.62024395267E-02  0.90239912861E-02  0.10142788581E+01  0.10138453589E+01 0.  0.
     999903    2    3    3    0    0 -0.11077226454E+00  0.49435482574E-01 -0.35226602604E-01  0.12819065961E+00  0.21853378445E-01 0.  0.
         14    1    1    2    0    0  0.27555172717E-01 -0.62024395267E-02 -0.90239912861E-02  0.29651141938E-01  0.00000000000E+00 0. -1.
     999901    1    3    3    0    0  0.83217091828E-01 -0.43233043047E-01  0.44250593890E-01  0.88608819846E+00  0.88000000000E+00 0. -1.
        -11    1    4    4    0    0 -0.10762001288E-01  0.44097275643E-02 -0.10678528517E-01  0.15797419447E-01  0.51100000000E-03 0.  1.
         11    1    4    4    0    0 -0.10001026326E+00  0.45025755010E-01 -0.24548074087E-01  0.11239324016E+00  0.51100000000E-03 0. -1.
</event>
<event>
 8    1  0.1109294E+005  0.1043930E+01  0.7957747E-01            NaN
         13   -1    0    0    0    0  0.00000000000E+00  0.00000000000E+00  0.74505805969E-08  0.10566000000E+00  0.10566000000E+00 0. -1.
     999900   -1    0    0    0    0 -0.00000000000E+00 -0.00000000000E+00 -0.74505805969E-08  0.93827000000E+00  0.93827000000E+00 0. -1.
     999902    2    1    2    0    0  0.85312688906E-02 -0.22679778308E-01 -0.55288955926E-02  0.10190759545E+01  0.10187728291E+01 0.  0.
     999903    2    3    3    0    0 -0.63166129546E-01  0.96265645019E-01  0.48703754633E-01  0.12653480078E+00  0.19543944331E-01 0.  0.
         14    1    1    2    0    0 -0.85312688906E-02  0.22679778308E-01  0.55288955926E-02  0.24854045535E-01  0.00000000000E+00 0. -1.
     999901    1    3    3    0    0  0.71697398437E-01 -0.11894542333E+00 -0.54232650225E-01  0.89254115369E+00  0.88000000000E+00 0. -1.
        -11    1    4    4    0    0 -0.20347902888E-01  0.40252291017E-01  0.10375499294E-01  0.46283865338E-01  0.51100000000E-03 0.  1.
         11    1    4    4    0    0 -0.42818226659E-01  0.56013354001E-01  0.38328255339E-01  0.80250935440E-01  0.51100000000E-03 0. -1.
</event>
<event>
 8    1  0.1109294E+005  0.1043930E+01  0.7957747E-01            NaN
         13   -1    0    0    0    0  0.00000000000E+00  0.00000000000E+00  0.74505805969E-08  0.10566000000E+00  0.10566000000E+00 0. -1.
     999900   -1    0    0    0    0 -0.00000000000E+00 -0.00000000000E+00 -0.74505805969E-08  0.93827000000E+00  0.93827000000E+00 0.  1.
     999902    2    1    2    0    0  0.22647136376E-02  0.12771323607E-01 -0.19165901507E-01  0.10207876705E+01  0.10205253063E+01 0.  0.
     999903    2    3    3    0    0 -0.95677373460E-01  0.37387042799E-01 -0.81737810529E-01  0.13280465835E+00  0.20101165320E-01 0.  0.
         14    1    1    2    0    0 -0.22647136376E-02 -0.12771323607E-01  0.19165901507E-01  0.23142329509E-01  0.00000000000E+00 0. -1.
     999901    1    3    3    0    0  0.97942087098E-01 -0.24615719192E-01  0.62571909022E-01  0.88798301214E+00  0.88000000000E+00 0. -1.
        -11    1    4    4    0    0 -0.54287338620E-01  0.31593645532E-01 -0.46853103965E-01  0.78362925191E-01  0.51100000000E-03 0. -1.
         11    1    4    4    0    0 -0.41390034840E-01  0.57933972679E-02 -0.34884706564E-01  0.54441733156E-01  0.51100000000E-03 0.  1.
</event>
<event>
 8    1  0.1109294E+005  0.1043930E+01  0.7957747E-01            NaN
         13   -1    0    0    0    0  0.00000000000E+00  0.00000000000E+00  0.74505805969E-08  0.10566000000E+00  0.10566000000E+00 0.  1.
     999900   -1    0    0    0    0 -0.00000000000E+00 -0.00000000000E+00 -0.74505805969E-08  0.93827000000E+00  0.93827000000E+00 0. -1.
     999902    2    1    2    0    0  0.22455298629E-01  0.46608392625E-02  0.61847913584E-02  0.10201767791E+01  0.10199002133E+01 0.  0.
     999903    2    3    3    0    0 -0.40495209712E-01 -0.92425287671E-01 -0.77266453509E-01  0.12868780395E+00  0.20202728437E-01 0.  0.
         14    1    1    2    0    0 -0.22455298629E-01 -0.46608392625E-02 -0.61847913584E-02  0.23753220903E-01  0.00000000000E+00 0.  1.
     999901    1    3    3    0    0  0.62950508340E-01  0.97086126933E-01  0.83451244867E-01  0.89148897515E+00  0.88000000000E+00 0.  1.
        -11    1    4    4    0    0 -0.34935984600E-01 -0.86338448159E-01 -0.63820544053E-01  0.11290781025E+00  0.51100000000E-03 0. -1.
         11    1    4    4    0    0 -0.55592251116E-02 -0.60868395116E-02 -0.13445909456E-01  0.15779993701E-01  0.51100000000E-03 0.  1.
</event>
<event>
 7    1  0.1109294E+005  0.1043930E+01  0.7957747E-01            NaN
         13   -1    0    0    0    0  0.00000000000E+00  0.00000000000E+00  0.74505805969E-08  0.10566000000E+00  0.10566000000E+00 0. -1.
     999900   -1    0    0    0    0 -0.00000000000E+00 -0.00000000000E+00 -0.74505805969E-08  0.93827000000E+00  0.93827000000E+00 0. -1.
     999903    2    1    2    0    0 -0.21087451708E-01 -0.69288111548E-01 -0.43880264706E-01  0.87045587570E-01  0.20147795497E-01 0.  0.
         14    1    1    2    0    0 -0.62406969823E-01  0.33250773767E-01  0.11206219347E-01  0.71594854499E-01  0.00000000000E+00 0.  1.
     999901    1    1    2    0    0  0.83494421532E-01  0.36037337780E-01  0.32674045359E-01  0.88528955793E+00  0.88000000000E+00 0. -1.
        -11    1    3    3    0    0 -0.97709189850E-02 -0.24483976836E-01 -0.27283117890E-01  0.37941608061E-01  0.51100000000E-03 0.  1.
         11    1    3    3    0    0 -0.11316532723E-01 -0.44804134712E-01 -0.16597146817E-01  0.49103979509E-01  0.51100000000E-03 0. -1.
</event>
<event>
 8    1  0.1109294E+005  0.1043930E+01  0.7957747E-01            NaN
         13   -1    0    0    0    0  0.00000000000E+00  0.00000000000E+00  0.74505805969E-08  0.10566000000E+00  0.10566000000E+00 0.  1.
     999900   -1    0    0    0    0 -0.00000000000E+00 -0.00000000000E+00 -0.74505805969E-08  0.93827000000E+00  0.93827000000E+00 0. -1.
     999902    2    1    2    0    0 -0.67096700981E-02 -0.51504795813E-03  0.22277192751E-01  0.10206585956E+01  0.10203932626E+01 0.  0.
     999903    2    3    3    0    0 -0.10618923837E+00 -0.68085087901E-01  0.34870625580E-01  0.13239034254E+00  0.19987714450E-01 0.  0.
         14    1    1    2    0    0  0.67096700981E-02  0.51504795813E-03 -0.22277192751E-01  0.23271404428E-01  0.00000000000E+00 0. -1.
     999901    1    3    3    0    0  0.99479568269E-01  0.67570039943E-01 -0.12593432830E-01  0.88826825304E+00  0.88000000000E+00 0. -1.
        -11    1    4    4    0    0 -0.59545457666E-01 -0.26392426749E-01  0.16684115283E-01  0.67237210993E-01  0.51100000000E-03 0.  1.
         11    1    4    4    0    0 -0.46643780701E-01 -0.41692661152E-01  0.18186510297E-01  0.65153131543E-01  0.51100000000E-03 0. -1.
</event>
<event>
 8    1  0.1109294E+005  0.1043930E+01  0.7957747E-01            NaN
         13   -1    0    0    0    0  0.00000000000E+00  0.00000000000E+00  0.74505805969E-08  0.10566000000E+00  0.10566000000E+00 0.  1.
     999900   -1    0    0    0    0 -0.00000000000E+00 -0.00000000000E+00 -0.74505805969E-08  0.93827000000E+00  0.93827000000E+00 0.  1.
     999902    2    1    2    0    0 -0.21765524076E-01 -0.35121801970E-02  0.39637387089E-02  0.10215294493E+01  0.10212838151E+01 0.  0.
     999903    2    3    3    0    0  0.77632250691E-01 -0.25046332725E-01 -0.98576472005E-01  0.12975698269E+00  0.21574721169E-01 0.  0.
         14    1    1    2    0    0  0.21765524076E-01  0.35121801970E-02 -0.39637387089E-02  0.22400550720E-01  0.00000000000E+00 0. -1.
     999901    1    3    3    0    0 -0.99397774767E-01  0.21534152528E-01  0.10254021071E+00  0.89177246659E+00  0.88000000000E+00 0. -1.
        -11    1    4    4    0    0  0.46171502609E-01 -0.44117482282E-02 -0.60380071633E-01  0.76139906402E-01  0.51100000000E-03 0.  1.
         11    1    4    4    0    0  0.31460748082E-01 -0.20634584496E-01 -0.38196400372E-01  0.53617076288E-01  0.51100000000E-03 0. -1.
</event>
<event>
 8    1  0.1109294E+005  0.1043930E+01  0.7957747E-01            NaN
         13   -1    0    0    0    0  0.00000000000E+00  0.00000000000E+00  0.74505805969E-08  0.10566000000E+00  0.10566000000E+00 0. -1.
     999900   -1    0    0    0    0 -0.00000000000E+00 -0.00000000000E+00 -0.74505805969E-08  0.93827000000E+00  0.93827000000E+00 0. -1.
     999902    2    1    2    0    0 -0.60628245739E-02  0.15246921002E-01 -0.16599757925E-01  0.10205895115E+01  0.10203225826E+01 0.  0.
     999903    2    3    3    0    0  0.61134630695E-02 -0.10377080504E+00 -0.76060864033E-01  0.13050574898E+00  0.20993834132E-01 0.  0.
         14    1    1    2    0    0  0.60628245739E-02 -0.15246921002E-01  0.16599757925E-01  0.23340488534E-01  0.00000000000E+00 0. -1.
     999901    1    3    3    0    0 -0.12176287643E-01  0.11901772604E+00  0.59461106108E-01  0.89008376248E+00  0.88000000000E+00 0. -1.
        -11    1    4    4    0    0  0.67671760584E-02 -0.93196893100E-01 -0.75050846016E-01  0.11985135028E+00  0.51100000000E-03 0. -1.
         11    1    4    4    0    0 -0.65371298888E-03 -0.10573911939E-01 -0.10100180168E-02  0.10654398704E-01  0.51100000000E-03 0.  1.
</event>
<event>
 8    1  0.1109294E+005  0.1043930E+01  0.7957747E-01            NaN
         13   -1    0    0    0    0  0.00000000000E+00  0.00000000000E+00  0.74505805969E-08  0.10566000000E+00  0.10566000000E+00 0.  1.
     999900   -1    0    0    0    0 -0.00000000000E+00 -0.00000000000E+00 -0.74505805969E-08  0.93827000000E+00  0.93827000000E+00 0.  1.
     999902    2    1    2    0    0 -0.88881474501E-02 -0.14538589861E-01  0.16288162169E-01  0.10203572618E+01  0.10200849316E+01 0.  0.
     999903    2    3    3    0    0  0.45715550584E-01  0.11027963932E+00  0.45792681732E-01  0.12938494411E+00  0.19798576954E-01 0.  0.
         14    1    1    2    0    0  0.88881474501E-02  0.14538589861E-01 -0.16288162169E-01  0.23572738218E-01  0.00000000000E+00 0.  1.
     999901    1    3    3    0    0 -0.54603698034E-01 -0.12481822918E+00 -0.29504519563E-01  0.89097231767E+00  0.88000000000E+00 0. -1.
        -11    1    4    4    0    0  0.13573930977E-01  0.18091496700E-01  0.31304837298E-02  0.22838890175E-01  0.51100000000E-03 0. -1.
         11    1    4    4    0    0  0.32141619607E-01  0.92188142621E-01  0.42662198003E-01  0.10654605394E+00  0.51100000000E-03 0.  1.
</event>
<event>
 8    1  0.1109294E+005  0.1043930E+01  0.7957747E-01            NaN
         13   -1    0    0    0    0  0.00000000000E+00  0.00000000000E+00  0.74505805969E-08  0.10566000000E+00  0.10566000000E+00 0. -1.
     999900   -1    0    0    0    0 -0.00000000000E+00 -0.00000000000E+00 -0.74505805969E-08  0.93827000000E+00  0.93827000000E+00 0.  1.
     999902    2    1    2    0    0 -0.19718246472E-01 -0.12453792545E-01 -0.60812441431E-02  0.10198283875E+01  0.10195435510E+01 0.  0.
     999903    2    3    3    0    0 -0.97952036696E-01  0.97951185444E-02 -0.86058114146E-01  0.13246609416E+00  0.21230196712E-01 0.  0.
         14    1    1    2    0    0  0.19718246472E-01  0.12453792545E-01  0.60812441431E-02  0.24101612456E-01  0.00000000000E+00 0. -1.
     999901    1    3    3    0    0  0.78233790224E-01 -0.22248911089E-01  0.79976870003E-01  0.88736229338E+00  0.88000000000E+00 0. -1.
        -11    1    4    4    0    0 -0.53387715562E-01  0.15205191674E-01 -0.42504012487E-01  0.69916365933E-01  0.51100000000E-03 0.  1.
         11    1    4    4    0    0 -0.44564321134E-01 -0.54100731299E-02 -0.43554101659E-01  0.62549728230E-01  0.51100000000E-03 0. -1.
</event>
<event>
 8    1  0.1109294E+005  0.1043930E+01  0.7957747E-01            NaN
         13   -1    0    0    0    0  0.00000000000E+00  0.00000000000E+00  0.74505805969E-08  0.10566000000E+00  0.10566000000E+00 0.  1.
     999900   -1    0    0    0    0 -0.00000000000E+00 -0.00000000000E+00 -0.74505805969E-08  0.93827000000E+00  0.93827000000E+00 0.  1.
     999902    2    1    2    0    0 -0.23153791503E-01 -0.11495726542E-02 -0.83870439725E-02  0.10192771688E+01  0.10189789913E+01 0.  0.
     999903    2    3    3    0    0 -0.11516772748E+00 -0.44465460495E-01  0.41145929113E-01  0.13203630752E+00  0.22356573790E-01 0.  0.
         14    1    1    2    0    0  0.23153791503E-01  0.11495726542E-02  0.83870439725E-02  0.24652831173E-01  0.00000000000E+00 0.  1.
     999901    1    3    3    0    0  0.92013935972E-01  0.43315887840E-01 -0.49532973086E-01  0.88724086131E+00  0.88000000000E+00 0.  1.
        -11    1    4    4    0    0 -0.70463230221E-01 -0.15439759089E-01  0.22453968158E-01  0.75550610725E-01  0.51100000000E-03 0. -1.
         11    1    4    4    0    0 -0.44704497255E-01 -0.29025701406E-01  0.18691960955E-01  0.56485696794E-01  0.51100000000E-03 0.  1.
</event>
<event>
 8    1  0.1109294E+005  0.1043930E+01  0.7957747E-01            NaN
         13   -1    0    0    0    0  0.00000000000E+00  0.00000000000E+00  0.74505805969E-08  0.10566000000E+00  0.10566000000E+00 0. -1.
     999900   -1    0    0    0    0 -0.00000000000E+00 -0.00000000000E+00 -0.74505805969E-08  0.93827000000E+00  0.93827000000E+00 0.  1.
     999902    2    1    2    0    0  0.31775735817E-02 -0.13279356688E-01 -0.20263489008E-01  0.10194954492E+01  0.10192025920E+01 0.  0.
     999903    2    3    3    0    0 -0.42227791827E-01 -0.11862443855E+00 -0.32689184340E-01  0.13196312221E+00  0.22152630252E-01 0.  0.
         14    1    1    2    0    0 -0.31775735817E-02  0.13279356688E-01  0.20263489008E-01  0.24434550839E-01  0.00000000000E+00 0.  1.
     999901    1    3    3    0    0  0.45405365409E-01  0.10534508186E+00  0.12425695332E-01  0.88753232695E+00  0.88000000000E+00 0.  1.
        -11    1    4    4    0    0 -0.16062383847E-01 -0.21295603225E-01 -0.11071138004E-01  0.28884842206E-01  0.51100000000E-03 0. -1.
         11    1    4    4    0    0 -0.26165407980E-01 -0.97328835323E-01 -0.21618046336E-01  0.10307828000E+00  0.51100000000E-03 0.  1.
</event>
<event>
 7    1  0.1109294E+005  0.1043930E+01  0.7957747E-01            NaN
         13   -1    0    0    0    0  0.00000000000E+00  0.00000000000E+00  0.74505805969E-08  0.10566000000E+00  0.10566000000E+00 0.  1.
     999900   -1    0    0    0    0 -0.00000000000E+00 -0.00000000000E+00 -0.74505805969E-08  0.93827000000E+00  0.93827000000E+00 0.  1.
     999903    2    1    2    0    0 -0.40965377313E-01 -0.30108579772E-01 -0.10234201742E+00  0.11620760719E+00  0.21109967447E-01 0.  0.
         14    1    1    2    0    0  0.21671352424E-01 -0.20748170110E-02  0.38979023969E-01  0.44646575357E-01  0.00000000000E+00 0.  1.
     999901    1    1    2    0    0  0.19294024889E-01  0.32183396783E-01  0.63362993452E-01  0.88307581745E+00  0.88000000000E+00 0. -1.
        -11    1    3    3    0    0 -0.52461020289E-02 -0.15242791677E-01 -0.35093998427E-01  0.38622715223E-01  0.51100000000E-03 0.  1.
         11    1    3    3    0    0 -0.35719275284E-01 -0.14865788095E-01 -0.67248018995E-01  0.77584891971E-01  0.51100000000E-03 0. -1.
</event>
<event>
 8    1  0.1109294E+005  0.1043930E+01  0.7957747E-01            NaN
         13   -1    0    0    0    0  0.00000000000E+00  0.00000000000E+00  0.74505805969E-08  0.10566000000E+00  0.10566000000E+00 0.  1.
     999900   -1    0    0    0    0 -0.00000000000E+00 -0.00000000000E+00 -0.74505805969E-08  0.93827000000E+00  0.93827000000E+00 0. -1.
     999902    2    1    2    0    0  0.12137055431E-01  0.15209618441E-01  0.13433344756E-01  0.10202848026E+01  0.10200107760E+01 0.  0.
     999903    2    3    3    0    0  0.77061269278E-01 -0.12748204424E-01  0.10548033868E+00  0.13266470230E+00  0.19309724210E-01 0.  0.
         14    1    1    2    0    0 -0.12137055431E-01 -0.15209618441E-01 -0.13433344756E-01  0.23645197377E-01  0.00000000000E+00 0. -1.
     999901    1    3    3    0    0 -0.64924213847E-01  0.27957822865E-01 -0.92046993928E-01  0.88762010032E+00  0.88000000000E+00 0. -1.
        -11    1    4    4    0    0  0.23408759722E-01 -0.12594388253E-01  0.30447541688E-01  0.40421560621E-01  0.51100000000E-03 0.  1.
         11    1    4    4    0    0  0.53652509556E-01 -0.15381617157E-03  0.75032796996E-01  0.92243141681E-01  0.51100000000E-03 0. -1.
</event>
<event>
 8    1  0.1109294E+005  0.1043930E+01  0.7957747E-01            NaN
         13   -1    0    0    0    0  0.00000000000E+00  0.00000000000E+00  0.74505805969E-08  0.10566000000E+00  0.10566000000E+00 0.  1.
     999900   -1    0    0    0    0 -0.00000000000E+00 -0.00000000000E+00 -0.74505805969E-08  0.93827000000E+00  0.93827000000E+00 0. -1.
     999902    2    1    2    0    0 -0.10657808178E-01 -0.54640299697E-02  0.20543882454E-01  0.10201498485E+01  0.10198726478E+01 0.  0.
     999903    2    3    3    0    0 -0.38942559827E-01  0.12248786315E+00  0.95946987324E-02  0.13037931699E+00  0.19669989058E-01 0.  0.
         14    1    1    2    0    0  0.10657808178E-01  0.54640299697E-02 -0.20543882454E-01  0.23780151492E-01  0.00000000000E+00 0. -1.
     999901    1    3    3    0    0  0.28284751650E-01 -0.12795189312E+00  0.10949183722E-01  0.88977053152E+00  0.88000000000E+00 0.  1.
        -11    1    4    4    0    0 -0.14722912445E-01  0.70609244622E-01 -0.10750493578E-02  0.72137690766E-01  0.51100000000E-03 0. -1.
         11    1    4    4    0    0 -0.24219647382E-01  0.51878618533E-01  0.10669748090E-01  0.58241626227E-01  0.51100000000E-03 0.  1.
</event>
<event>
 8    1  0.1109294E+005  0.1043930E+01  0.7957747E-01            NaN
         13   -1    0    0    0    0  0.00000000000E+00  0.00000000000E+00  0.74505805969E-08  0.10566000000E+00  0.10566000000E+00 0.  1.
     999900   -1    0    0    0    0 -0.00000000000E+00 -0.00000000000E+00 -0.74505805969E-08  0.93827000000E+00  0.93827000000E+00 0. -1.
     999902    2    1    2    0    0  0.46741856782E-02 -0.22399368322E-01 -0.86819724949E-02  0.10194564151E+01  0.10191626101E+01 0.  0.
     999903    2    3    3    0    0  0.11421220323E+00 -0.18476979885E-01 -0.58679849236E-01  0.13124824685E+00  0.19923640284E-01 0.  0.
         14    1    1    2    0    0 -0.46741856782E-02  0.22399368322E-01  0.86819724949E-02  0.24473584931E-01  0.00000000000E+00 0.  1.
     999901    1    3    3    0    0 -0.10953801755E+00 -0.39223884371E-02  0.49997876741E-01  0.88820816822E+00  0.88000000000E+00 0. -1.
        -11    1    4    4    0    0  0.59713685734E-01 -0.14824249940E-01 -0.40575848622E-01  0.73703074988E-01  0.51100000000E-03 0. -1.
         11    1    4    4    0    0  0.54498517493E-01 -0.36527299450E-02 -0.18104000614E-01  0.57545171858E-01  0.51100000000E-03 0.  1.
</event>
<event>
 8    1  0.1109294E+005  0.1043930E+01  0.7957747E-01            NaN
         13   -1    0    0    0    0  0.00000000000E+00  0.00000000000E+00  0.74505805969E-08  0.10566000000E+00  0.10566000000E+00 0. -1.
     999900   -1    0    0    0    0 -0.00000000000E+00 -0.00000000000E+00 -0.74505805969E-08  0.93827000000E+00  0.93827000000E+00 0.  1.
     999902    2    1    2    0    0  0.26480012237E-02  0.21981860540E-01  0.10477927914E-01  0.10194350806E+01  0.10191407569E+01 0.  0.
     999903    2    3    3    0    0  0.46855228851E-01  0.14397136678E-01  0.12028434037E+00  0.13147716761E+00  0.20377267940E-01 0.  0.
         14    1    1    2    0    0 -0.26480012237E-02 -0.21981860540E-01 -0.10477927914E-01  0.24494919405E-01  0.00000000000E+00 0. -1.
     999901    1    3    3    0    0 -0.44207227628E-01  0.75847238630E-02 -0.10980641246E+00  0.88795791298E+00  0.88000000000E+00 0.  1.
        -11    1    4    4    0    0  0.88538221299E-02  0.10643670805E-02  0.73223591127E-02  0.11549939721E-01  0.51100000000E-03 0.  1.
         11    1    4    4    0    0  0.38001406722E-01  0.13332769597E-01  0.11296198126E+00  0.11992722789E+00  0.51100000000E-03 0. -1.
</event>
<event>
 8    1  0.1109294E+005  0.1043930E+01  0.7957747E-01            NaN
         13   -1    0    0    0    0  0.00000000000E+00  0.00000000000E+00  0.74505805969E-08  0.10566000000E+00  0.10566000000E+00 0. -1.
     999900   -1    0    0    0    0 -0.00000000000E+00 -0.00000000000E+00 -0.74505805969E-08  0.93827000000E+00  0.93827000000E+00 0. -1.
     999902    2    1    2    0    0 -0.70049185090E-02  0.24289349227E-01  0.36595811388E-02  0.10183872143E+01  0.10180668368E+01 0.  0.
     999903    2    3    3    0    0 -0.26547107658E-01  0.64617005838E-01 -0.10796761611E+00  0.13020432307E+00  0.20397383385E-01 0.  0.
         14    1    1    2    0    0  0.70049185090E-02 -0.24289349227E-01 -0.36595811388E-02  0.25542785738E-01  0.00000000000E+00 0.  1.
     999901    1    3    3    0    0  0.19542189149E-01 -0.40327656611E-01  0.11162719725E+00  0.88818289119E+00  0.88000000000E+00 0.  1.
        -11    1    4    4    0    0 -0.57203962862E-02  0.37174615995E-01 -0.47276168530E-01  0.60415000124E-01  0.51100000000E-03 0.  1.
         11    1    4    4    0    0 -0.20826711372E-01  0.27442389843E-01 -0.60691447578E-01  0.69789322944E-01  0.51100000000E-03 0. -1.
</event>
<event>
 8    1  0.1109294E+005  0.1043930E+01  0.7957747E-01            NaN
         13   -1    0    0    0    0  0.00000000000E+00  0.00000000000E+00  0.74505805969E-08  0.10566000000E+00  0.10566000000E+00 0.  1.
     999900   -1    0    0    0    0 -0.00000000000E+00 -0.00000000000E+00 -0.74505805969E-08  0.93827000000E+00  0.93827000000E+00 0. -1.
     999902    2    1    2    0    0 -0.10018912188E-01  0.15348316128E-01  0.15473561971E-01  0.10199429091E+01  0.10196608050E+01 0.  0.
     999903    2    3    3    0    0  0.91628324817E-01 -0.73009469237E-01  0.50447436841E-01  0.12900944866E+00  0.19296669460E-01 0.  0.
         14    1    1    2    0    0  0.10018912188E-01 -0.15348316128E-01 -0.15473561971E-01  0.23987090892E-01  0.00000000000E+00 0. -1.
     999901    1    3    3    0    0 -0.10164723700E+00  0.88357785365E-01 -0.34973874870E-01  0.89093346045E+00  0.88000000000E+00 0. -1.
        -11    1    4    4    0    0  0.55776941553E-01 -0.56014610455E-01  0.32886195583E-01  0.85618145123E-01  0.51100000000E-03 0. -1.
         11    1    4    4    0    0  0.35851383264E-01 -0.16994858783E-01  0.17561241258E-01  0.43391303535E-01  0.51100000000E-03 0.  1.
</event>
<event>
 8    1  0.1109294E+005  0.1043930E+01  0.7957747E-01            NaN
         13   -1    0    0    0    0  0.00000000000E+00  0.00000000000E+00  0.74505805969E-08  0.10566000000E+00  0.10566000000E+00 0.  1.
     999900   -1    0    0    0    0 -0.00000000000E+00 -0.00000000000E+00 -0.74505805969E-08  0.93827000000E+00  0.93827000000E+00 0.  1.
     999902    2    1    2    0    0 -0.11581369332E-01  0.12680314749E-01 -0.16958725961E-01  0.10197946134E+01  0.10195089684E+01 0.  0.
     999903    2    3    3    0    0 -0.38262068477E-01 -0.10998192379E+00 -0.54216454854E-01  0.13010589101E+00  0.20690806033E-01 0.  0.
         14    1    1    2    0    0  0.11581369332E-01 -0.12680314749E-01  0.16958725961E-01  0.24135386551E-01  0.00000000000E+00 0. -1.
     999901    1    3    3    0    0  0.26680699145E-01  0.12266223854E+00  0.37257728892E-01  0.88968872244E+00  0.88000000000E+00 0.  1.
        -11    1    4    4    0    0 -0.59497117958E-02 -0.11413452048E-01  0.37510854973E-03  0.12886729047E-01  0.51100000000E-03 0. -1.
         11    1    4    4    0    0 -0.32312356681E-01 -0.98568471742E-01 -0.54591563403E-01  0.11721916196E+00  0.51100000000E-03 0.  1.
</event>
<event>
 8    1  0.1109294E+005  0.1043930E+01  0.7957747E-01            NaN
         13   -1    0    0    0    0  0.00000000000E+00  0.00000000000E+00  0.74505805969E-08  0.10566000000E+00  0.10566000000E+00 0. -1.
     999900   -1    0    0    0    0 -0.00000000000E+00 -0.00000000000E+00 -0.74505805969E-08  0.93827000000E+00  0.93827000000E+00 0. -1.
     999902    2    1    2    0    0 -0.22707148622E-01 -0.54191104846E-03 -0.75841087552E-02  0.10199836648E+01  0.10197025299E+01 0.  0.
     999903    2    3    3    0    0 -0.99959831843E-01 -0.66898564958E-01 -0.52514878347E-01  0.13297185162E+00  0.21361528499E-01 0.  0.
         14    1    1    2    0    0  0.22707148622E-01  0.54191104846E-03  0.75841087552E-02  0.23946335246E-01  0.00000000000E+00 0. -1.
     999901    1    3    3    0    0  0.77252683221E-01  0.66356653910E-01  0.44930769592E-01  0.88701181313E+00  0.88000000000E+00 0.  1.
        -11    1    4    4    0    0 -0.64451220293E-01 -0.50419286564E-01 -0.26697836869E-01  0.86076128336E-01  0.51100000000E-03 0. -1.
         11    1    4    4    0    0 -0.35508611550E-01 -0.16479278394E-01 -0.25817041478E-01  0.46895723283E-01  0.51100000000E-03 0.  1.
</event>
<event>
 8    1  0.1109294E+005  0.1043930E+01  0.7957747E-01            NaN
         13   -1    0    0    0    0  0.00000000000E+00  0.00000000000E+00  0.74505805969E-08  0.10566000000E+00  0.10566000000E+00 0.  1.
     999900   -1    0    0    0    0 -0.00000000000E+00 -0.00000000000E+00 -0.74505805969E-08  0.93827000000E+00  0.93827000000E+00 0.  1.
     999902    2    1    2    0    0 -0.10913407388E-01  0.13953838687E-01  0.16341225163E-01  0.10198292175E+01  0.10195444008E+01 0.  0.
     999903    2    3    3    0    0  0.86617375336E-01 -0.54109023187E-01  0.77626324668E-01  0.12971648864E+00  0.19239673673E-01 0.  0.
         14    1    1    2    0    0  0.10913407388E-01 -0.13953838687E-01 -0.16341225163E-01  0.24100782451E-01  0.00000000000E+00 0.  1.
     999901    1    3    3    0    0 -0.97530782725E-01  0.68062861874E-01 -0.61285099505E-01  0.89011272891E+00  0.88000000000E+00 0.  1.
        -11    1    4    4    0    0  0.41352314674E-01 -0.25749180201E-01  0.25110017835E-01  0.54807009831E-01  0.51100000000E-03 0.  1.
         11    1    4    4    0    0  0.45265060662E-01 -0.28359842987E-01  0.52516306834E-01  0.74909478809E-01  0.51100000000E-03 0. -1.
</event>
<event>
 8    1  0.1109294E+005  0.1043930E+01  0.7957747E-01            NaN
         13   -1    0    0    0    0  0.00000000000E+00  0.00000000000E+00  0.74505805969E-08  0.10566000000E+00  0.10566000000E+00 0.  1.
     999900   -1    0    0    0    0 -0.00000000000E+00 -0.00000000000E+00 -0.74505805969E-08  0.93827000000E+00  0.93827000000E+00 0.  1.
     999902    2    1    2    0    0  0.48225846256E-02  0.19376197699E-01  0.13195569887E-01  0.10199963955E+01  0.10197155630E+01 0.  0.
     999903    2    3    3    0    0 -0.50525409717E-01 -0.70593671512E-01 -0.91255609439E-01  0.12754582168E+00  0.20101415122E-01 0.  0.
         14    1    1    2    0    0 -0.48225846256E-02 -0.19376197699E-01 -0.13195569887E-01  0.23933604501E-01  0.00000000000E+00 0. -1.
     999901    1    3    3    0    0  0.55347994343E-01  0.89969869211E-01  0.10445117933E+00  0.89245057382E+00  0.88000000000E+00 0. -1.
        -11    1    4    4    0    0 -0.10540657500E-01 -0.16911095224E-01 -0.34222686622E-01  0.39604848224E-01  0.51100000000E-03 0. -1.
         11    1    4    4    0    0 -0.39984752217E-01 -0.53682576288E-01 -0.57032922817E-01  0.87940973458E-01  0.51100000000E-03 0.  1.
</event>
<event>
 8    1  0.1109294E+005  0.1043930E+01  0.7957747E-01            NaN
         13   -1    0    0    0    0  0.00000000000E+00  0.00000000000E+00  0.74505805969E-08  0.10566000000E+00  0.10566000000E+00 0. -1.
     999900   -1    0    0    0    0 -0.00000000000E+00 -0.00000000000E+00 -0.74505805969E-08  0.93827000000E+00  0.93827000000E+00 0. -1.
     999902    2    1    2    0    0  0.25525253353E-02  0.32259319458E-02  0.21846192893E-01  0.10216998815E+01  0.10214580118E+01 0.  0.
     999903    2    3    3    0    0 -0.12112624298E+00  0.43250344771E-01  0.18542781447E-01  0.13214420376E+00  0.24002016194E-01 0.  0.
         14    1    1    2    0    0 -0.25525253353E-02 -0.32259319458E-02 -0.21846192893E-01  0.22230118453E-01  0.00000000000E+00 0.  1.
     999901    1    3    3    0    0  0.12367876832E+00 -0.40024412826E-01  0.33034114461E-02  0.88955567779E+00  0.88000000000E+00 0.  1.
        -11    1    4    4    0    0 -0.12796521479E-01  0.28235615777E-03 -0.40469759409E-02  0.13433905695E-01  0.51100000000E-03 0.  1.
         11    1    4    4    0    0 -0.10832972151E+00  0.42967988614E-01  0.22589757388E-01  0.11871029807E+00  0.51100000000E-03 0. -1.
</event>
<event>
 8    1  0.1109294E+005  0.1043930E+01  0.7957747E-01            NaN
         13   -1    0    0    0    0  0.00000000000E+00  0.00000000000E+00  0.74505805969E-08  0.10566000000E+00  0.10566000000E+00 0. -1.
     999900   -1    0    0    0    0 -0.00000000000E+00 -0.00000000000E+00 -0.74505805969E-08  0.93827000000E+00  0.93827000000E+00 0.  1.
     999902    2    1    2    0    0  0.53511051529E-02 -0.11253254711E-01  0.20106935020E-01  0.10202750026E+01  0.10200007461E+01 0.  0.
     999903    2    3    3    0    0 -0.47922016309E-01  0.11574157989E+00  0.26387215813E-01  0.12954207097E+00  0.19804798166E-01 0.  0.
         14    1    1    2    0    0 -0.53511051529E-02  0.11253254711E-01 -0.20106935020E-01  0.23654997439E-01  0.00000000000E+00 0.  1.
     999901    1    3    3    0    0  0.53273121462E-01 -0.12699483460E+00 -0.62802807934E-02  0.89073293159E+00  0.88000000000E+00 0. -1.
        -11    1    4    4    0    0 -0.48428656081E-01  0.10972663696E+00  0.21709936648E-01  0.12188868716E+00  0.51100000000E-03 0. -1.
         11    1    4    4    0    0  0.50663977225E-03  0.60149429385E-02  0.46772791651E-02  0.76533838137E-02  0.51100000000E-03 0.  1.
</event>
<event>
 8    1  0.1109294E+005  0.1043930E+01  0.7957747E-01            NaN
         13   -1    0    0    0    0  0.00000000000E+00  0.00000000000E+00  0.74505805969E-08  0.10566000000E+00  0.10566000000E+00 0. -1.
     999900   -1    0    0    0    0 -0.00000000000E+00 -0.00000000000E+00 -0.74505805969E-08  0.93827000000E+00  0.93827000000E+00 0. -1.
     999902    2    1    2    0    0 -0.12683318641E-01  0.14279397680E-01 -0.13239784601E-01  0.10206908161E+01  0.10204262259E+01 0.  0.
     999903    2    3    3    0    0  0.58898095766E-01 -0.62562732112E-01  0.92141048949E-01  0.12820343143E+00  0.23729007459E-01 0.  0.
         14    1    1    2    0    0  0.12683318641E-01 -0.14279397680E-01  0.13239784601E-01  0.23239183852E-01  0.00000000000E+00 0. -1.
     999901    1    3    3    0    0 -0.71581414406E-01  0.76842129792E-01 -0.10538083355E+00  0.89248738472E+00  0.88000000000E+00 0. -1.
        -11    1    4    4    0    0  0.42689000202E-01 -0.57824336606E-01  0.78956237002E-01  0.10677243617E+00  0.51100000000E-03 0. -1.
         11    1    4    4    0    0  0.16209095564E-01 -0.47383955052E-02  0.13184811948E-01  0.21430995265E-01  0.51100000000E-03 0.  1.
</event>
<event>
 8    1  0.1109294E+005  0.1043930E+01  0.7957747E-01            NaN
         13   -1    0    0    0    0  0.00000000000E+00  0.00000000000E+00  0.74505805969E-08  0.10566000000E+00  0.10566000000E+00 0. -1.
     999900   -1    0    0    0    0 -0.00000000000E+00 -0.00000000000E+00 -0.74505805969E-08  0.93827000000E+00  0.93827000000E+00 0.  1.
     999902    2    1    2    0    0 -0.22382152429E-01 -0.27233894426E-02  0.12957670076E-02  0.10213455671E+01  0.10210958382E+01 0.  0.
     999903    2    3    3    0    0  0.43947921026E-01 -0.11268286407E+00 -0.45540197095E-01  0.13079272069E+00  0.20099219343E-01 0.  0.
         14    1    1    2    0    0  0.22382152429E-01  0.27233894426E-02 -0.12957670076E-02  0.22584432903E-01  0.00000000000E+00 0.  1.
     999901    1    3    3    0    0 -0.66330073455E-01  0.10995947462E+00  0.46835964103E-01  0.89055284640E+00  0.88000000000E+00 0. -1.
        -11    1    4    4    0    0  0.25738745339E-01 -0.88934651374E-01 -0.36581277782E-01  0.99550521002E-01  0.51100000000E-03 0. -1.
         11    1    4    4    0    0  0.18209175687E-01 -0.23748212692E-01 -0.89589193135E-02  0.31242199691E-01  0.51100000000E-03 0.  1.
</event>
<event>
 8    1  0.1109294E+005  0.1043930E+01  0.7957747E-01            NaN
         13   -1    0    0    0    0  0.00000000000E+00  0.00000000000E+00  0.74505805969E-08  0.10566000000E+00  0.10566000000E+00 0. -1.
     999900   -1    0    0    0    0 -0.00000000000E+00 -0.00000000000E+00 -0.74505805969E-08  0.93827000000E+00  0.93827000000E+00 0.  1.
     999902    2    1    2    0    0  0.18650794100E-01 -0.68535137604E-02 -0.11522636594E-01  0.10209605872E+01  0.10207021733E+01 0.  0.
     999903    2    3    3    0    0 -0.86379089491E-02  0.80727815549E-01 -0.10165939255E+00  0.13161262528E+00  0.19891137861E-01 0.  0.
         14    1    1    2    0    0 -0.18650794100E-01  0.68535137604E-02  0.11522636594E-01  0.22969412824E-01  0.00000000000E+00 0. -1.
     999901    1    3    3    0    0  0.27288703049E-01 -0.87581329309E-01  0.90136755953E-01  0.88934796190E+00  0.88000000000E+00 0.  1.
        -11    1    4    4    0    0 -0.13220356303E-01  0.31771788510E-01 -0.42129717185E-01  0.54400354383E-01  0.51100000000E-03 0.  1.
         11    1    4    4    0    0  0.45824473536E-02  0.48956027039E-01 -0.59529675362E-01  0.77212270895E-01  0.51100000000E-03 0. -1.
</event>
<event>
 8    1  0.1109294E+005  0.1043930E+01  0.7957747E-01            NaN
         13   -1    0    0    0    0  0.00000000000E+00  0.00000000000E+00  0.74505805969E-08  0.10566000000E+00  0.10566000000E+00 0.  1.
     999900   -1    0    0    0    0 -0.00000000000E+00 -0.00000000000E+00 -0.74505805969E-08  0.93827000000E+00  0.93827000000E+00 0. -1.
     999902    2    1    2    0    0  0.41181501412E-02 -0.22617577473E-01  0.42083674408E-02  0.10205585574E+01  0.10202909119E+01 0.  0.
     999903    2    3    3    0    0  0.28915708919E-01  0.96751077063E-01  0.77795046914E-01  0.12911097400E+00  0.20510610609E-01 0.  0.
         14    1    1    2    0    0 -0.41181501412E-02  0.22617577473E-01 -0.42083674408E-02  0.23371442571E-01  0.00000000000E+00 0. -1.
     999901    1    3    3    0    0 -0.24797558777E-01 -0.11936865454E+00 -0.73586679473E-01  0.89144758343E+00  0.88000000000E+00 0. -1.
        -11    1    4    4    0    0  0.12304230743E-01  0.15849417972E-01  0.10985196819E-01  0.22880861312E-01  0.51100000000E-03 0. -1.
         11    1    4    4    0    0  0.16611478176E-01  0.80901659091E-01  0.66809850095E-01  0.10623011269E+00  0.51100000000E-03 0.  1.
</event>
<event>
 8    1  0.1109294E+005  0.1043930E+01  0.7957747E-01            NaN
         13   -1    0    0    0    0  0.00000000000E+00  0.00000000000E+00  0.74505805969E-08  0.10566000000E+00  0.10566000000E+00 0.  1.
     999900   -1    0    0    0    0 -0.00000000000E+00 -0.00000000000E+00 -0.74505805969E-08  0.93827000000E+00  0.93827000000E+00 0. -1.
     999902    2    1    2    0    0 -0.21342179175E-01  0.89628385339E-02 -0.53438698701E-02  0.10201733582E+01  0.10198967118E+01 0.  0.
     999903    2    3    3    0    0 -0.35051055169E-01  0.12298044399E+00  0.26321526635E-01  0.13214709448E+00  0.20427083600E-01 0.  0.
         14    1    1    2    0    0  0.21342179175E-01 -0.89628385339E-02  0.53438698701E-02  0.23756641844E-01  0.00000000000E+00 0. -1.
     999901    1    3    3    0    0  0.13708875994E-01 -0.11401760545E+00 -0.31665396505E-01  0.88802626367E+00  0.88000000000E+00 0.  1.
        -11    1    4    4    0    0 -0.16939850345E-01  0.83250566801E-01  0.24595839761E-01  0.88446774147E-01  0.51100000000E-03 0. -1.
         11    1    4    4    0    0 -0.18111204824E-01  0.39729877186E-01  0.17256868746E-02  0.43700320337E-01  0.51100000000E-03 0.  1.
</event>
<event>
 8    1  0.1109294E+005  0.1043930E+01  0.7957747E-01            NaN
         13   -1    0    0    0    0  0.00000000000E+00  0.00000000000E+00  0.74505805969E-08  0.10566000000E+00  0.10566000000E+00 0. -1.
     999900   -1    0    0    0    0 -0.00000000000E+00 -0.00000000000E+00 -0.74505805969E-08  0.93827000000E+00  0.93827000000E+00 0. -1.
     999902    2    1    2    0    0  0.59166431333E-02  0.10302729685E-01 -0.20571902935E-01  0.10201738199E+01  0.10198971843E+01 0.  0.
     999903    2    3    3    0    0  0.25000804292E-01  0.10212224207E+00  0.73828859590E-01  0.13017015018E+00  0.20966042730E-01 0.  0.
         14    1    1    2    0    0 -0.59166431333E-02 -0.10302729685E-01  0.20571902935E-01  0.23756180149E-01  0.00000000000E+00 0. -1.
     999901    1    3    3    0    0 -0.19084161159E-01 -0.91819512390E-01 -0.94400762525E-01  0.89000366967E+00  0.88000000000E+00 0. -1.
        -11    1    4    4    0    0  0.15768173760E-01  0.86174103294E-01  0.53156337047E-01  0.10247179452E+00  0.51100000000E-03 0. -1.
         11    1    4    4    0    0  0.92326305324E-02  0.15948138781E-01  0.20672522543E-01  0.27698355663E-01  0.51100000000E-03 0.  1.
</event>
<event>
 8    1  0.1109294E+005  0.1043930E+01  0.7957747E-01            NaN
         13   -1    0    0    0    0  0.00000000000E+00  0.00000000000E+00  0.74505805969E-08  0.10566000000E+00  0.10566000000E+00 0.  1.
     999900   -1    0    0    0    0 -0.00000000000E+00 -0.00000000000E+00 -0.74505805969E-08  0.93827000000E+00  0.93827000000E+00 0. -1.
     999902    2    1    2    0    0 -0.11632224683E-01 -0.10340900653E-01 -0.17586730881E-01  0.10204451968E+01  0.10201749182E+01 0.  0.
     999903    2    3    3    0    0 -0.70074792596E-01 -0.72647993052E-01 -0.85263069949E-01  0.13372213161E+00  0.20581786431E-01 0.  0.
         14    1    1    2    0    0  0.11632224683E-01  0.10340900653E-01  0.17586730881E-01  0.23484803181E-01  0.00000000000E+00 0. -1.
     999901    1    3    3    0    0  0.58442567913E-01  0.62307092399E-01  0.67676339069E-01  0.88672306521E+00  0.88000000000E+00 0.  1.
        -11    1    4    4    0    0 -0.29226754164E-01 -0.41933885585E-01 -0.34382920850E-01  0.61604385285E-01  0.51100000000E-03 0. -1.
         11    1    4    4    0    0 -0.40848038433E-01 -0.30714107467E-01 -0.50880149099E-01  0.72117746323E-01  0.51100000000E-03 0.  1.
</event>
<event>
 8    1  0.1109294E+005  0.1043930E+01  0.7957747E-01            NaN
         13   -1    0    0    0    0  0.00000000000E+00  0.00000000000E+00  0.74505805969E-08  0.10566000000E+00  0.10566000000E+00 0.  1.
     999900   -1    0    0    0    0 -0.00000000000E+00 -0.00000000000E+00 -0.74505805969E-08  0.93827000000E+00  0.93827000000E+00 0.  1.
     999902    2    1    2    0    0  0.10767541458E-01  0.20465268488E-01  0.22989923424E-02  0.10206909697E+01  0.10204263830E+01 0.  0.
     999903    2    3    3    0    0  0.12556116733E-01  0.36966476713E-01 -0.12375145053E+00  0.13155419562E+00  0.21631190646E-01 0.  0.
         14    1    1    2    0    0 -0.10767541458E-01 -0.20465268488E-01 -0.22989923424E-02  0.23239030296E-01  0.00000000000E+00 0. -1.
     999901    1    3    3    0    0 -0.17885752754E-02 -0.16501208225E-01  0.12605044288E+00  0.88913677408E+00  0.88000000000E+00 0. -1.
        -11    1    4    4    0    0 -0.59499653009E-02  0.98317430284E-02 -0.38940830893E-01  0.40604367865E-01  0.51100000000E-03 0.  1.
         11    1    4    4    0    0  0.18506082034E-01  0.27134733684E-01 -0.84810619641E-01  0.90949827758E-01  0.51100000000E-03 0. -1.
</event>
<event>
 8    1  0.1109294E+005  0.1043930E+01  0.7957747E-01            NaN
         13   -1    0    0    0    0  0.00000000000E+00  0.00000000000E+00  0.74505805969E-08  0.10566000000E+00  0.10566000000E+00 0.  1.
     999900   -1    0    0    0    0 -0.00000000000E+00 -0.00000000000E+00 -0.74505805969E-08  0.93827000000E+00  0.93827000000E+00 0.  1.
     999902    2    1    2    0    0 -0.13735886255E-02  0.19350013250E-01 -0.11985616120E-01  0.10211272644E+01  0.10208726293E+01 0.  0.
     999903    2    3    3    0    0 -0.10010817687E+00  0.37444991667E-01 -0.76296117076E-01  0.13308909644E+00  0.21629508387E-01 0.  0.
         14    1    1    2    0    0  0.13735886255E-02 -0.19350013250E-01  0.11985616120E-01  0.22802735631E-01  0.00000000000E+00 0.  1.
     999901    1    3    3    0    0  0.98734588249E-01 -0.18094978417E-01  0.64310500956E-01  0.88803816793E+00  0.88000000000E+00 0. -1.
        -11    1    4    4    0    0 -0.69331930745E-01  0.21220805928E-01 -0.40003572925E-01  0.82811751538E-01  0.51100000000E-03 0. -1.
         11    1    4    4    0    0 -0.30776246129E-01  0.16224185739E-01 -0.36292544151E-01  0.50277344904E-01  0.51100000000E-03 0.  1.
</event>
<event>
 8    1  0.1109294E+005  0.1043930E+01  0.7957747E-01            NaN
         13   -1    0    0    0    0  0.00000000000E+00  0.00000000000E+00  0.74505805969E-08  0.10566000000E+00  0.10566000000E+00 0. -1.
     999900   -1    0    0    0    0 -0.00000000000E+00 -0.00000000000E+00 -0.74505805969E-08  0.93827000000E+00  0.93827000000E+00 0.  1.
     999902    2    1    2    0    0  0.46927589419E-02 -0.16255214540E-01 -0.15953736727E-01  0.10206754155E+01  0.10204104704E+01 0.  0.
     999903    2    3    3    0    0  0.45570354383E-01 -0.94928352541E-01 -0.80268486584E-01  0.13388523312E+00  0.19853876079E-01 0.  0.
         14    1    1    2    0    0 -0.46927589419E-02  0.16255214540E-01  0.15953736727E-01  0.23254584533E-01  0.00000000000E+00 0. -1.
     999901    1    3    3    0    0 -0.40877595441E-01  0.78673138001E-01  0.64314749856E-01  0.88679018234E+00  0.88000000000E+00 0. -1.
        -11    1    4    4    0    0  0.11520655347E-01 -0.13323453291E-01 -0.21099796042E-01  0.27490042219E-01  0.51100000000E-03 0. -1.
         11    1    4    4    0    0  0.34049699037E-01 -0.81604899250E-01 -0.59168690542E-01  0.10639519090E+00  0.51100000000E-03 0.  1.
</event>
<event>
 8    1  0.1109294E+005  0.1043930E+01  0.7957747E-01            NaN
         13   -1    0    0    0    0  0.00000000000E+00  0.00000000000E+00  0.74505805969E-08  0.10566000000E+00  0.10566000000E+00 0.  1.
     999900   -1    0    0    0    0 -0.00000000000E+00 -0.00000000000E+00 -0.74505805969E-08  0.93827000000E+00  0.93827000000E+00 0.  1.
     999902    2    1    2    0    0  0.26254380174E-01  0.39640000240E-02  0.36291317221E-02  0.10171311871E+01  0.10167780856E+01 0.  0.
     999903    2    3    3    0    0  0.49464870204E-01 -0.38509670970E-01  0.11116241113E+00  0.12926512416E+00  0.20557785262E-01 0.  0.
         14    1    1    2    0    0 -0.26254380174E-01 -0.39640000240E-02 -0.36291317221E-02  0.26798812877E-01  0.00000000000E+00 0. -1.
     999901    1    3    3    0    0 -0.23210490030E-01  0.42473670994E-01 -0.10753327941E+00  0.88786606296E+00  0.88000000000E+00 0.  1.
        -11    1    4    4    0    0  0.32547273366E-01 -0.35764502176E-01  0.74935042557E-01  0.89184899751E-01  0.51100000000E-03 0.  1.
         11    1    4    4    0    0  0.16917596838E-01 -0.27451687940E-02  0.36227368571E-01  0.40080224414E-01  0.51100000000E-03 0. -1.
</event>
<event>
 8    1  0.1109294E+005  0.1043930E+01  0.7957747E-01            NaN
         13   -1    0    0    0    0  0.00000000000E+00  0.00000000000E+00  0.74505805969E-08  0.10566000000E+00  0.10566000000E+00 0.  1.
     999900   -1    0    0    0    0 -0.00000000000E+00 -0.00000000000E+00 -0.74505805969E-08  0.93827000000E+00  0.93827000000E+00 0.  1.
     999902    2    1    2    0    0 -0.20357722892E-01 -0.31459520155E-02 -0.13978754935E-01  0.10190354326E+01  0.10187313058E+01 0.  0.
     999903    2    3    3    0    0  0.10147913230E+00  0.28973146615E-01  0.66542743089E-01  0.12642153657E+00  0.20420840678E-01 0.  0.
         14    1    1    2    0    0  0.20357722892E-01  0.31459520155E-02  0.13978754935E-01  0.24894567379E-01  0.00000000000E+00 0.  1.
     999901    1    3    3    0    0 -0.12183685519E+00 -0.32119098630E-01 -0.80521498025E-01  0.89261389605E+00  0.88000000000E+00 0.  1.
        -11    1    4    4    0    0  0.51658897923E-01  0.89284282995E-02  0.42905799183E-01  0.67746050003E-01  0.51100000000E-03 0.  1.
         11    1    4    4    0    0  0.49820234376E-01  0.20044718316E-01  0.23636943906E-01  0.58675486567E-01  0.51100000000E-03 0. -1.
</event>
<event>
 8    1  0.1109294E+005  0.1043930E+01  0.7957747E-01            NaN
         13   -1    0    0    0    0  0.00000000000E+00  0.00000000000E+00  0.74505805969E-08  0.10566000000E+00  0.10566000000E+00 0. -1.
     999900   -1    0    0    0    0 -0.00000000000E+00 -0.00000000000E+00 -0.74505805969E-08  0.93827000000E+00  0.93827000000E+00 0.  1.
     999902    2    1    2    0    0  0.16043528389E-01 -0.63452141362E-02 -0.15531385648E-01  0.10207162005E+01  0.10204521946E+01 0.  0.
     999903    2    3    3    0    0  0.57857080545E-01 -0.11761469066E+00  0.78587540443E-03  0.13257458876E+00  0.19868234903E-01 0.  0.
         14    1    1    2    0    0 -0.16043528389E-01  0.63452141362E-02  0.15531385648E-01  0.23213799468E-01  0.00000000000E+00 0. -1.
     999901    1    3    3    0    0 -0.41813552157E-01  0.11126947652E+00 -0.16317261052E-01  0.88814161177E+00  0.88000000000E+00 0.  1.
        -11    1    4    4    0    0  0.21033876402E-01 -0.62131964653E-01  0.54192655489E-02  0.65821231744E-01  0.51100000000E-03 0.  1.
         11    1    4    4    0    0  0.36823204144E-01 -0.55482726002E-01 -0.46333901445E-02  0.66753357019E-01  0.51100000000E-03 0. -1.
</event>
<event>
 8    1  0.1109294E+005  0.1043930E+01  0.7957747E-01            NaN
         13   -1    0    0    0    0  0.00000000000E+00  0.00000000000E+00  0.74505805969E-08  0.10566000000E+00  0.10566000000E+00 0.  1.
     999900   -1    0    0    0    0 -0.00000000000E+00 -0.00000000000E+00 -0.74505805969E-08  0.93827000000E+00  0.93827000000E+00 0. -1.
     999902    2    1    2    0    0  0.56323211660E-03 -0.35972352839E-02  0.23132853841E-01  0.10205123516E+01  0.10202436343E+01 0.  0.
     999903    2    3    3    0    0  0.88439701244E-01 -0.10164738995E-01 -0.90888540713E-01  0.12879138379E+00  0.20039736279E-01 0.  0.
         14    1    1    2    0    0 -0.56323211660E-03  0.35972352839E-02 -0.23132853841E-01  0.23417648450E-01  0.00000000000E+00 0. -1.
     999901    1    3    3    0    0 -0.87876469127E-01  0.65675037110E-02  0.11402139455E+00  0.89172096776E+00  0.88000000000E+00 0.  1.
        -11    1    4    4    0    0  0.60193589618E-01 -0.14937446023E-01 -0.68688667624E-01  0.92546149059E-01  0.51100000000E-03 0.  1.
         11    1    4    4    0    0  0.28246111626E-01  0.47727070277E-02 -0.22199873089E-01  0.36245234729E-01  0.51100000000E-03 0. -1.
</event>
<event>
 8    1  0.1109294E+005  0.1043930E+01  0.7957747E-01            NaN
         13   -1    0    0    0    0  0.00000000000E+00  0.00000000000E+00  0.74505805969E-08  0.10566000000E+00  0.10566000000E+00 0. -1.
     999900   -1    0    0    0    0 -0.00000000000E+00 -0.00000000000E+00 -0.74505805969E-08  0.93827000000E+00  0.93827000000E+00 0.  1.
     999902    2    1    2    0    0 -0.16011684337E-01  0.42697023873E-02  0.16199696541E-01  0.10207559938E+01  0.10204929027E+01 0.  0.
     999903    2    3    3    0    0 -0.94623022858E-01  0.86397013040E-01 -0.27495794410E-01  0.13236760263E+00  0.18633389340E-01 0.  0.
         14    1    1    2    0    0  0.16011684337E-01 -0.42697023873E-02 -0.16199696541E-01  0.23174006167E-01  0.00000000000E+00 0.  1.
     999901    1    3    3    0    0  0.78611338520E-01 -0.82127310653E-01  0.43695490951E-01  0.88838839121E+00  0.88000000000E+00 0. -1.
        -11    1    4    4    0    0 -0.52324147959E-01  0.55901924823E-01 -0.23364680441E-01  0.80056299388E-01  0.51100000000E-03 0.  1.
         11    1    4    4    0    0 -0.42298874898E-01  0.30495088217E-01 -0.41311139684E-02  0.52311303240E-01  0.51100000000E-03 0. -1.
</event>
<event>
 8    1  0.1109294E+005  0.1043930E+01  0.7957747E-01            NaN
         13   -1    0    0    0    0  0.00000000000E+00  0.00000000000E+00  0.74505805969E-08  0.10566000000E+00  0.10566000000E+00 0.  1.
     999900   -1    0    0    0    0 -0.00000000000E+00 -0.00000000000E+00 -0.74505805969E-08  0.93827000000E+00  0.93827000000E+00 0.  1.
     999902    2    1    2    0    0 -0.17123313233E-01 -0.39225534160E-02 -0.14426814335E-01  0.10211983645E+01  0.10209453327E+01 0.  0.
     999903    2    3    3    0    0  0.11447438093E+00 -0.52240199831E-01 -0.30293109279E-01  0.12996086113E+00  0.11778394956E-01 0.  0.
         14    1    1    2    0    0  0.17123313233E-01  0.39225534160E-02  0.14426814335E-01  0.22731635516E-01  0.00000000000E+00 0.  1.
     999901    1    3    3    0    0 -0.13159769417E+00  0.48317646415E-01  0.15866294945E-01  0.89123750335E+00  0.88000000000E+00 0. -1.
        -11    1    4    4    0    0  0.10123050898E+00 -0.47609240085E-01 -0.30383898410E-01  0.11592108563E+00  0.51100000000E-03 0. -1.
         11    1    4    4    0    0  0.13243871956E-01 -0.46309597460E-02  0.90789130628E-04  0.14039775505E-01  0.51100000000E-03 0.  1.
</event>
<event>
 8    1  0.1109294E+005  0.1043930E+01  0.7957747E-01            NaN
         13   -1    0    0    0    0  0.00000000000E+00  0.00000000000E+00  0.74505805969E-08  0.10566000000E+00  0.10566000000E+00 0.  1.
     999900   -1    0    0    0    0 -0.00000000000E+00 -0.00000000000E+00 -0.74505805969E-08  0.93827000000E+00  0.93827000000E+00 0.  1.
     999902    2    1    2    0    0 -0.37953118596E-02  0.22624888264E-01 -0.63440435060E-02  0.10201279654E+01  0.10198502483E+01 0.  0.
     999903    2    3    3    0    0  0.91811798882E-01  0.20879549004E-02  0.89353266545E-01  0.12955485760E+00  0.19149123130E-01 0.  0.
         14    1    1    2    0    0  0.37953118596E-02 -0.22624888264E-01  0.63440435060E-02  0.23802034558E-01  0.00000000000E+00 0. -1.
     999901    1    3    3    0    0 -0.95607110741E-01  0.20536933364E-01 -0.95697310051E-01  0.89057310784E+00  0.88000000000E+00 0.  1.
        -11    1    4    4    0    0  0.21266700265E-01  0.77283638933E-02  0.16686211297E-01  0.28119226823E-01  0.51100000000E-03 0. -1.
         11    1    4    4    0    0  0.70545098616E-01 -0.56404089929E-02  0.72667055247E-01  0.10143563078E+00  0.51100000000E-03 0.  1.
</event>
<event>
 8    1  0.1109294E+005  0.1043930E+01  0.7957747E-01            NaN
         13   -1    0    0    0    0  0.00000000000E+00  0.00000000000E+00  0.74505805969E-08  0.10566000000E+00  0.10566000000E+00 0.  1.
     999900   -1    0    0    0    0 -0.00000000000E+00 -0.00000000000E+00 -0.74505805969E-08  0.93827000000E+00  0.93827000000E+00 0.  1.
     999902    2    1    2    0    0 -0.71193910211E-03  0.17477790043E-01  0.12681093111E-01  0.10223246737E+01  0.10220963498E+01 0.  0.
     999903    2    3    3    0    0 -0.60376880361E-01 -0.27853386893E-01 -0.11067626154E+00  0.13056693879E+00  0.19424515252E-01 0.  0.
         14    1    1    2    0    0  0.71193910211E-03 -0.17477790043E-01 -0.12681093111E-01  0.21605326301E-01  0.00000000000E+00 0. -1.
     999901    1    3    3    0    0  0.59664941258E-01  0.45331176937E-01  0.12335735466E+00  0.89175773491E+00  0.88000000000E+00 0. -1.
        -11    1    4    4    0    0 -0.35329839209E-01 -0.23221989499E-01 -0.55305218137E-01  0.69615993917E-01  0.51100000000E-03 0. -1.
         11    1    4    4    0    0 -0.25047041151E-01 -0.46313973942E-02 -0.55371043407E-01  0.60950944875E-01  0.51100000000E-03 0.  1.
</event>
<event>
 8    1  0.1109294E+005  0.1043930E+01  0.7957747E-01            NaN
         13   -1    0    0    0    0  0.00000000000E+00  0.00000000000E+00  0.74505805969E-08  0.10566000000E+00  0.10566000000E+00 0. -1.
     999900   -1    0    0    0    0 -0.00000000000E+00 -0.00000000000E+00 -0.74505805969E-08  0.93827000000E+00  0.93827000000E+00 0. -1.
     999902    2    1    2    0    0 -0.11519418410E-01  0.17331638671E-01 -0.11094034011E-01  0.10203469491E+01  0.10200743778E+01 0.  0.
     999903    2    3    3    0    0  0.39286578230E-01  0.73099431940E-01  0.97807415667E-01  0.13043076101E+00  0.23641714830E-01 0.  0.
         14    1    1    2    0    0  0.11519418410E-01 -0.17331638671E-01  0.11094034011E-01  0.23583050909E-01  0.00000000000E+00 0. -1.
     999901    1    3    3    0    0 -0.50805996639E-01 -0.55767793269E-01 -0.10890144968E+00  0.88991618808E+00  0.88000000000E+00 0. -1.
        -11    1    4    4    0    0  0.12456227482E-01  0.62908691065E-02  0.20349996029E-01  0.24680277482E-01  0.51100000000E-03 0.  1.
         11    1    4    4    0    0  0.26830350747E-01  0.66808562833E-01  0.77457419638E-01  0.10575048353E+00  0.51100000000E-03 0. -1.
</event>
<event>
 8    1  0.1109294E+005  0.1043930E+01  0.7957747E-01            NaN
         13   -1    0    0    0    0  0.00000000000E+00  0.00000000000E+00  0.74505805969E-08  0.10566000000E+00  0.10566000000E+00 0. -1.
     999900   -1    0    0    0    0 -0.00000000000E+00 -0.00000000000E+00 -0.74505805969E-08  0.93827000000E+00  0.93827000000E+00 0.  1.
     999902    2    1    2    0    0 -0.96972023800E-02 -0.13686804748E-01  0.16683609635E-01  0.10202718684E+01  0.10199975384E+01 0.  0.
     999903    2    3    3    0    0  0.48730461773E-01 -0.10962295520E+00  0.52316982940E-01  0.13241643303E+00  0.20129451566E-01 0.  0.
         14    1    1    2    0    0  0.96972023800E-02  0.13686804748E-01 -0.16683609635E-01  0.23658131555E-01  0.00000000000E+00 0.  1.
     999901    1    3    3    0    0 -0.58427664153E-01  0.95936150455E-01 -0.35633373306E-01  0.88785543541E+00  0.88000000000E+00 0. -1.
        -11    1    4    4    0    0  0.14979095861E-01 -0.53860220361E-01  0.30459334869E-01  0.63665758865E-01  0.51100000000E-03 0. -1.
         11    1    4    4    0    0  0.33751365912E-01 -0.55762734842E-01  0.21857648071E-01  0.68750674166E-01  0.51100000000E-03 0.  1.
</event>
<event>
 8    1  0.1109294E+005  0.1043930E+01  0.7957747E-01            NaN
         13   -1    0    0    0    0  0.00000000000E+00  0.00000000000E+00  0.74505805969E-08  0.10566000000E+00  0.10566000000E+00 0. -1.
     999900   -1    0    0    0    0 -0.00000000000E+00 -0.00000000000E+00 -0.74505805969E-08  0.93827000000E+00  0.93827000000E+00 0. -1.
     999902    2    1    2    0    0  0.18991771215E-01 -0.14706476066E-01 -0.33664516309E-02  0.10196750869E+01  0.10193865715E+01 0.  0.
     999903    2    3    3    0    0 -0.77608243828E-01 -0.87232891999E-01  0.49947058144E-01  0.12982455214E+00  0.26964583524E-01 0.  0.
         14    1    1    2    0    0 -0.18991771215E-01  0.14706476066E-01  0.33664516309E-02  0.24254913085E-01  0.00000000000E+00 0. -1.
     999901    1    3    3    0    0  0.96600015043E-01  0.72526415933E-01 -0.53313509775E-01  0.88985053477E+00  0.88000000000E+00 0. -1.
        -11    1    4    4    0    0 -0.38630493672E-01 -0.62956575094E-01  0.32507973008E-01  0.80702384221E-01  0.51100000000E-03 0.  1.
         11    1    4    4    0    0 -0.38977750156E-01 -0.24276316905E-01  0.17439085136E-01  0.49122167919E-01  0.51100000000E-03 0. -1.
</event>
<event>
 7    1  0.1109294E+005  0.1043930E+01  0.7957747E-01            NaN
         13   -1    0    0    0    0  0.00000000000E+00  0.00000000000E+00  0.74505805969E-08  0.10566000000E+00  0.10566000000E+00 0.  1.
     999900   -1    0    0    0    0 -0.00000000000E+00 -0.00000000000E+00 -0.74505805969E-08  0.93827000000E+00  0.93827000000E+00 0.  1.
     999903    2    1    2    0    0 -0.64945411622E-02  0.79885863639E-01 -0.75321822693E-01  0.11169170557E+00  0.19435273207E-01 0.  0.
         14    1    1    2    0    0 -0.20081784630E-01 -0.75264271386E-03 -0.36076637263E-01  0.41296105158E-01  0.00000000000E+00 0. -1.
     999901    1    1    2    0    0  0.26576325793E-01 -0.79133220926E-01  0.11139845996E+00  0.89094218927E+00  0.88000000000E+00 0.  1.
        -11    1    3    3    0    0 -0.12987986649E-01  0.40025208063E-01 -0.38427518535E-01  0.56988072256E-01  0.51100000000E-03 0.  1.
         11    1    3    3    0    0  0.64934454871E-02  0.39860655577E-01 -0.36894304158E-01  0.54703633313E-01  0.51100000000E-03 0. -1.
</event>
<event>
 8    1  0.1109294E+005  0.1043930E+01  0.7957747E-01            NaN
         13   -1    0    0    0    0  0.00000000000E+00  0.00000000000E+00  0.74505805969E-08  0.10566000000E+00  0.10566000000E+00 0. -1.
     999900   -1    0    0    0    0 -0.00000000000E+00 -0.00000000000E+00 -0.74505805969E-08  0.93827000000E+00  0.93827000000E+00 0. -1.
     999902    2    1    2    0    0  0.16169342996E-01 -0.38154573700E-02 -0.17172145430E-01  0.10200367385E+01  0.10197568631E+01 0.  0.
     999903    2    3    3    0    0  0.95446557030E-01  0.20144059943E-01 -0.88479270133E-01  0.13327654475E+00  0.20450617037E-01 0.  0.
         14    1    1    2    0    0 -0.16169342996E-01  0.38154573700E-02  0.17172145430E-01  0.23893261530E-01  0.00000000000E+00 0. -1.
     999901    1    3    3    0    0 -0.79277214034E-01 -0.23959517313E-01  0.71307124703E-01  0.88676019372E+00  0.88000000000E+00 0. -1.
        -11    1    4    4    0    0  0.41110718690E-01  0.49704837490E-02 -0.50301162793E-01  0.65155698134E-01  0.51100000000E-03 0. -1.
         11    1    4    4    0    0  0.54335838339E-01  0.15173576194E-01 -0.38178107340E-01  0.68120846615E-01  0.51100000000E-03 0.  1.
</event>
<event>
 8    1  0.1109294E+005  0.1043930E+01  0.7957747E-01            NaN
         13   -1    0    0    0    0  0.00000000000E+00  0.00000000000E+00  0.74505805969E-08  0.10566000000E+00  0.10566000000E+00 0. -1.
     999900   -1    0    0    0    0 -0.00000000000E+00 -0.00000000000E+00 -0.74505805969E-08  0.93827000000E+00  0.93827000000E+00 0. -1.
     999902    2    1    2    0    0 -0.20310796898E-01  0.78934543798E-02  0.10045846141E-01  0.10199351231E+01  0.10196528337E+01 0.  0.
     999903    2    3    3    0    0  0.95317362874E-01  0.54713780811E-01  0.65507248321E-01  0.12940832315E+00  0.19398892803E-01 0.  0.
         14    1    1    2    0    0  0.20310796898E-01 -0.78934543798E-02 -0.10045846141E-01  0.23994876899E-01  0.00000000000E+00 0.  1.
     999901    1    3    3    0    0 -0.11562815977E+00 -0.46820326431E-01 -0.55461402179E-01  0.89052679995E+00  0.88000000000E+00 0. -1.
        -11    1    4    4    0    0  0.52305881397E-01  0.27203281441E-01  0.45876866846E-01  0.74705232631E-01  0.51100000000E-03 0.  1.
         11    1    4    4    0    0  0.43011481477E-01  0.27510499370E-01  0.19630381475E-01  0.54703090519E-01  0.51100000000E-03 0. -1.
</event>
<event>
 8    1  0.1109294E+005  0.1043930E+01  0.7957747E-01            NaN
         13   -1    0    0    0    0  0.00000000000E+00  0.00000000000E+00  0.74505805969E-08  0.10566000000E+00  0.10566000000E+00 0. -1.
     999900   -1    0    0    0    0 -0.00000000000E+00 -0.00000000000E+00 -0.74505805969E-08  0.93827000000E+00  0.93827000000E+00 0. -1.
     999902    2    1    2    0    0 -0.14623002790E-01 -0.11562914810E-01  0.19580240271E-01  0.10168944860E+01  0.10165350346E+01 0.  0.
     999903    2    3    3    0    0 -0.96600241111E-01  0.72381430825E-01  0.40616723212E-01  0.12885763180E+00  0.19593186486E-01 0.  0.
         14    1    1    2    0    0  0.14623002790E-01  0.11562914810E-01 -0.19580240271E-01  0.27035514024E-01  0.00000000000E+00 0.  1.
     999901    1    3    3    0    0  0.81977238321E-01 -0.83944345635E-01 -0.21036482941E-01  0.88803685418E+00  0.88000000000E+00 0. -1.
        -11    1    4    4    0    0 -0.29457982021E-01  0.14738844872E-01  0.17913163993E-01  0.37498650884E-01  0.51100000000E-03 0. -1.
         11    1    4    4    0    0 -0.67142259090E-01  0.57642585953E-01  0.22703559219E-01  0.91358980912E-01  0.51100000000E-03 0.  1.
</event>
<event>
 8    1  0.1109294E+005  0.1043930E+01  0.7957747E-01            NaN
         13   -1    0    0    0    0  0.00000000000E+00  0.00000000000E+00  0.74505805969E-08  0.10566000000E+00  0.10566000000E+00 0. -1.
     999900   -1    0    0    0    0 -0.00000000000E+00 -0.00000000000E+00 -0.74505805969E-08  0.93827000000E+00  0.93827000000E+00 0.  1.
     999902    2    1    2    0    0  0.61509172891E-02 -0.74632937652E-03  0.27209232529E-01  0.10160242098E+01  0.10156409118E+01 0.  0.
     999903    2    3    3    0    0  0.11787673666E+00 -0.38502829750E-01 -0.18159476148E-01  0.12699860177E+00  0.20530107944E-01 0.  0.
         14    1    1    2    0    0 -0.61509172891E-02  0.74632937652E-03 -0.27209232529E-01  0.27905790185E-01  0.00000000000E+00 0.  1.
     999901    1    3    3    0    0 -0.11172581937E+00  0.37756500374E-01  0.45368708677E-01  0.88902560805E+00  0.88000000000E+00 0. -1.
        -11    1    4    4    0    0  0.20239489045E-01  0.11825618892E-02 -0.21505647175E-02  0.20394151589E-01  0.51100000000E-03 0. -1.
         11    1    4    4    0    0  0.97637247618E-01 -0.39685391639E-01 -0.16008911431E-01  0.10660445018E+00  0.51100000000E-03 0.  1.
</event>
<event>
 8    1  0.1109294E+005  0.1043930E+01  0.7957747E-01            NaN
         13   -1    0    0    0    0  0.00000000000E+00  0.00000000000E+00  0.74505805969E-08  0.10566000000E+00  0.10566000000E+00 0.  1.
     999900   -1    0    0    0    0 -0.00000000000E+00 -0.00000000000E+00 -0.74505805969E-08  0.93827000000E+00  0.93827000000E+00 0. -1.
     999902    2    1    2    0    0 -0.63124886234E-02  0.18038190326E-01  0.14362554116E-01  0.10200237919E+01  0.10197436096E+01 0.  0.
     999903    2    3    3    0    0  0.84676788449E-01  0.95098347488E-01 -0.21037198739E-01  0.13127722578E+00  0.24026903280E-01 0.  0.
         14    1    1    2    0    0  0.63124886234E-02 -0.18038190326E-01 -0.14362554116E-01  0.23906208055E-01  0.00000000000E+00 0.  1.
     999901    1    3    3    0    0 -0.90989277072E-01 -0.77060157163E-01  0.35399752856E-01  0.88874656616E+00  0.88000000000E+00 0.  1.
        -11    1    4    4    0    0  0.47851488437E-01  0.70779511891E-01 -0.14581705912E-01  0.86674053312E-01  0.51100000000E-03 0.  1.
         11    1    4    4    0    0  0.36825300012E-01  0.24318835597E-01 -0.64554928270E-02  0.44603172470E-01  0.51100000000E-03 0. -1.
</event>
<event>
 8    1  0.1109294E+005  0.1043930E+01  0.7957747E-01            NaN
         13   -1    0    0    0    0  0.00000000000E+00  0.00000000000E+00  0.74505805969E-08  0.10566000000E+00  0.10566000000E+00 0. -1.
     999900   -1    0    0    0    0 -0.00000000000E+00 -0.00000000000E+00 -0.74505805969E-08  0.93827000000E+00  0.93827000000E+00 0.  1.
     999902    2    1    2    0    0 -0.22705080486E-01  0.18200687415E-02  0.41259030049E-02  0.10207814276E+01  0.10205189202E+01 0.  0.
     999903    2    3    3    0    0  0.16809652087E-01 -0.49283540594E-01  0.11871609762E+00  0.13100398029E+00  0.18897069680E-01 0.  0.
         14    1    1    2    0    0  0.22705080486E-01 -0.18200687415E-02 -0.41259030049E-02  0.23148572434E-01  0.00000000000E+00 0.  1.
     999901    1    3    3    0    0 -0.39514732574E-01  0.51103609336E-01 -0.11459019461E+00  0.88977744727E+00  0.88000000000E+00 0.  1.
        -11    1    4    4    0    0  0.29926585362E-02 -0.26479245691E-01  0.77093947253E-01  0.81571099548E-01  0.51100000000E-03 0. -1.
         11    1    4    4    0    0  0.13816993551E-01 -0.22804294903E-01  0.41622150362E-01  0.49432880743E-01  0.51100000000E-03 0.  1.
</event>
<event>
 8    1  0.1109294E+005  0.1043930E+01  0.7957747E-01            NaN
         13   -1    0    0    0    0  0.00000000000E+00  0.00000000000E+00  0.74505805969E-08  0.10566000000E+00  0.10566000000E+00 0. -1.
     999900   -1    0    0    0    0 -0.00000000000E+00 -0.00000000000E+00 -0.74505805969E-08  0.93827000000E+00  0.93827000000E+00 0.  1.
     999902    2    1    2    0    0 -0.25961985783E-02  0.24683601715E-01  0.10545675173E-01  0.10169627661E+01  0.10166051524E+01 0.  0.
     999903    2    3    3    0    0 -0.76583927984E-01 -0.63457728874E-01  0.76569851458E-01  0.12701767220E+00  0.19456760243E-01 0.  0.
         14    1    1    2    0    0  0.25961985783E-02 -0.24683601715E-01 -0.10545675173E-01  0.26967233925E-01  0.00000000000E+00 0. -1.
     999901    1    3    3    0    0  0.73987729406E-01  0.88141330589E-01 -0.66024176285E-01  0.88994509388E+00  0.88000000000E+00 0.  1.
        -11    1    4    4    0    0 -0.46849720295E-01 -0.26354793186E-01  0.42349954011E-01  0.68434283377E-01  0.51100000000E-03 0.  1.
         11    1    4    4    0    0 -0.29734207689E-01 -0.37102935687E-01  0.34219897448E-01  0.58583388822E-01  0.51100000000E-03 0. -1.
</event>
<event>
 8    1  0.1109294E+005  0.1043930E+01  0.7957747E-01            NaN
         13   -1    0    0    0    0  0.00000000000E+00  0.00000000000E+00  0.74505805969E-08  0.10566000000E+00  0.10566000000E+00 0. -1.
     999900   -1    0    0    0    0 -0.00000000000E+00 -0.00000000000E+00 -0.74505805969E-08  0.93827000000E+00  0.93827000000E+00 0.  1.
     999902    2    1    2    0    0  0.17365635082E-01  0.57999030622E-02 -0.14542232128E-01  0.10205487966E+01  0.10202809248E+01 0.  0.
     999903    2    3    3    0    0 -0.12660198363E+00 -0.98375200980E-02 -0.53722348655E-02  0.12866579245E+00  0.20029632474E-01 0.  0.
         14    1    1    2    0    0 -0.17365635082E-01 -0.57999030622E-02  0.14542232128E-01  0.23381203404E-01  0.00000000000E+00 0. -1.
     999901    1    3    3    0    0  0.14396761871E+00  0.15637423160E-01 -0.91699972624E-02  0.89188300415E+00  0.88000000000E+00 0.  1.
        -11    1    4    4    0    0 -0.54424058342E-01  0.18816880716E-02  0.55042186876E-02  0.54736426818E-01  0.51100000000E-03 0.  1.
         11    1    4    4    0    0 -0.72177925290E-01 -0.11719208170E-01 -0.10876453553E-01  0.73929365629E-01  0.51100000000E-03 0. -1.
</event>
<event>
 8    1  0.1109294E+005  0.1043930E+01  0.7957747E-01            NaN
         13   -1    0    0    0    0  0.00000000000E+00  0.00000000000E+00  0.74505805969E-08  0.10566000000E+00  0.10566000000E+00 0. -1.
     999900   -1    0    0    0    0 -0.00000000000E+00 -0.00000000000E+00 -0.74505805969E-08  0.93827000000E+00  0.93827000000E+00 0.  1.
     999902    2    1    2    0    0  0.65213442612E-02 -0.17743426003E-01  0.14131102639E-01  0.10203281959E+01  0.10200551858E+01 0.  0.
     999903    2    3    3    0    0  0.86075312926E-01 -0.43466027090E-02  0.98799345771E-01  0.13259117387E+00  0.19780197477E-01 0.  0.
         14    1    1    2    0    0 -0.65213442612E-02  0.17743426003E-01 -0.14131102639E-01  0.23601804150E-01  0.00000000000E+00 0.  1.
     999901    1    3    3    0    0 -0.79553968665E-01 -0.13396823294E-01 -0.84668243132E-01  0.88773702198E+00  0.88000000000E+00 0.  1.
        -11    1    4    4    0    0  0.33296441388E-01  0.16600182776E-02  0.52130378717E-01  0.61880903160E-01  0.51100000000E-03 0.  1.
         11    1    4    4    0    0  0.52778871538E-01 -0.60066209866E-02  0.46668967055E-01  0.70710270707E-01  0.51100000000E-03 0. -1.
</event>
<event>
 8    1  0.1109294E+005  0.1043930E+01  0.7957747E-01            NaN
         13   -1    0    0    0    0  0.00000000000E+00  0.00000000000E+00  0.74505805969E-08  0.10566000000E+00  0.10566000000E+00 0.  1.
     999900   -1    0    0    0    0 -0.00000000000E+00 -0.00000000000E+00 -0.74505805969E-08  0.93827000000E+00  0.93827000000E+00 0. -1.
     999902    2    1    2    0    0  0.21024120916E-01  0.58858211841E-02  0.95514306583E-02  0.10200996333E+01  0.10198212468E+01 0.  0.
     999903    2    3    3    0    0  0.77831191687E-01 -0.79944038664E-01 -0.65570840964E-01  0.13092183112E+00  0.19805225599E-01 0.  0.
         14    1    1    2    0    0 -0.21024120916E-01 -0.58858211841E-02 -0.95514306583E-02  0.23830366739E-01  0.00000000000E+00 0.  1.
     999901    1    3    3    0    0 -0.56807070771E-01  0.85829859848E-01  0.75122271623E-01  0.88917780214E+00  0.88000000000E+00 0. -1.
        -11    1    4    4    0    0  0.75011714102E-01 -0.73340316035E-01 -0.55919313544E-01  0.11888141132E+00  0.51100000000E-03 0.  1.
         11    1    4    4    0    0  0.28194775852E-02 -0.66037226286E-02 -0.96515274202E-02  0.12040419800E-01  0.51100000000E-03 0. -1.
</event>
<event>
 8    1  0.1109294E+005  0.1043930E+01  0.7957747E-01            NaN
         13   -1    0    0    0    0  0.00000000000E+00  0.00000000000E+00  0.74505805969E-08  0.10566000000E+00  0.10566000000E+00 0.  1.
     999900   -1    0    0    0    0 -0.00000000000E+00 -0.00000000000E+00 -0.74505805969E-08  0.93827000000E+00  0.93827000000E+00 0. -1.
     999902    2    1    2    0    0  0.14450070999E-01  0.19073898691E-01 -0.14891385893E-02  0.10199542686E+01  0.10196724348E+01 0.  0.
     999903    2    3    3    0    0 -0.26902857804E-01  0.92280517898E-01  0.87349918178E-01  0.13149399833E+00  0.20523295282E-01 0.  0.
         14    1    1    2    0    0 -0.14450070999E-01 -0.19073898691E-01  0.14891385893E-02  0.23975731415E-01  0.00000000000E+00 0.  1.
     999901    1    3    3    0    0  0.41352928803E-01 -0.73206619207E-01 -0.88839056768E-01  0.88846027026E+00  0.88000000000E+00 0.  1.
        -11    1    4    4    0    0 -0.24052216906E-01  0.64840355824E-01  0.51363116166E-01  0.86146454976E-01  0.51100000000E-03 0. -1.
         11    1    4    4    0    0 -0.28506408985E-02  0.27440162074E-01  0.35986802012E-01  0.45347543354E-01  0.51100000000E-03 0.  1.
</event>
<event>
 8    1  0.1109294E+005  0.1043930E+01  0.7957747E-01            NaN
         13   -1    0    0    0    0  0.00000000000E+00  0.00000000000E+00  0.74505805969E-08  0.10566000000E+00  0.10566000000E+00 0. -1.
     999900   -1    0    0    0    0 -0.00000000000E+00 -0.00000000000E+00 -0.74505805969E-08  0.93827000000E+00  0.93827000000E+00 0. -1.
     999902    2    1    2    0    0  0.81928383134E-02 -0.22352232202E-01 -0.80447128572E-02  0.10188010866E+01  0.10184911348E+01 0.  0.
     999903    2    3    3    0    0  0.20897951380E-01  0.12327454506E+00  0.46734054196E-03  0.12670185825E+00  0.20489134840E-01 0.  0.
         14    1    1    2    0    0 -0.81928383134E-02  0.22352232202E-01  0.80447128572E-02  0.25128913407E-01  0.00000000000E+00 0. -1.
     999901    1    3    3    0    0 -0.12705113067E-01 -0.14562677726E+00 -0.85120533992E-02  0.89209922834E+00  0.88000000000E+00 0. -1.
        -11    1    4    4    0    0  0.21263847371E-01  0.75409327039E-01  0.56371276021E-02  0.78554160540E-01  0.51100000000E-03 0.  1.
         11    1    4    4    0    0 -0.36589599029E-03  0.47865218018E-01 -0.51697870602E-02  0.48147697713E-01  0.51100000000E-03 0. -1.
</event>
<event>
 7    1  0.1109294E+005  0.1043930E+01  0.7957747E-01            NaN
         13   -1    0    0    0    0  0.00000000000E+00  0.00000000000E+00  0.74505805969E-08  0.10566000000E+00  0.10566000000E+00 0. -1.
     999900   -1    0    0    0    0 -0.00000000000E+00 -0.00000000000E+00 -0.74505805969E-08  0.93827000000E+00  0.93827000000E+00 0. -1.
     999903    2    1    2    0    0 -0.34874328519E-01  0.23323428868E-01 -0.87795178566E-01  0.99230373727E-01  0.19454371402E-01 0.  0.
         14    1    1    2    0    0  0.35124279660E-01 -0.44575372896E-01 -0.14347709306E-01  0.58536618050E-01  0.00000000000E+00 0. -1.
     999901    1    1    2    0    0 -0.24995114049E-03  0.21251944028E-01  0.10214288787E+00  0.88616300822E+00  0.88000000000E+00 0.  1.
        -11    1    3    3    0    0 -0.18171192022E-01  0.16263674836E-01 -0.30054764404E-01  0.38707225721E-01  0.51100000000E-03 0.  1.
         11    1    3    3    0    0 -0.16703136497E-01  0.70597540316E-02 -0.57740414163E-01  0.60523148006E-01  0.51100000000E-03 0. -1.
</event>
<event>
 8    1  0.1109294E+005  0.1043930E+01  0.7957747E-01            NaN
         13   -1    0    0    0    0  0.00000000000E+00  0.00000000000E+00  0.74505805969E-08  0.10566000000E+00  0.10566000000E+00 0. -1.
     999900   -1    0    0    0    0 -0.00000000000E+00 -0.00000000000E+00 -0.74505805969E-08  0.93827000000E+00  0.93827000000E+00 0. -1.
     999902    2    1    2    0    0  0.21000036845E-01 -0.45437704823E-02 -0.95230040789E-02  0.10204281915E+01  0.10201575167E+01 0.  0.
     999903    2    3    3    0    0 -0.61058873458E-01  0.68791215781E-01  0.87646393932E-01  0.12826588735E+00  0.17601991152E-01 0.  0.
         14    1    1    2    0    0 -0.21000036845E-01  0.45437704823E-02  0.95230040789E-02  0.23501808534E-01  0.00000000000E+00 0. -1.
     999901    1    3    3    0    0  0.82058910303E-01 -0.73334986263E-01 -0.97169398011E-01  0.89216230411E+00  0.88000000000E+00 0. -1.
        -11    1    4    4    0    0 -0.18455315041E-01  0.32199306239E-01  0.40519963671E-01  0.54950182461E-01  0.51100000000E-03 0. -1.
         11    1    4    4    0    0 -0.42603558417E-01  0.36591909542E-01  0.47126430261E-01  0.73315704892E-01  0.51100000000E-03 0.  1.
</event>
<event>
 8    1  0.1256966E+005  0.1043930E+01  0.7957747E-01            NaN
         13   -1    0    0    0    0  0.00000000000E+00  0.00000000000E+00  0.74505805969E-08  0.10566000000E+00  0.10566000000E+00 0.  1.
     999900   -1    0    0    0    0 -0.00000000000E+00 -0.00000000000E+00 -0.74505805969E-08  0.93827000000E+00  0.93827000000E+00 0. -1.
     999902    2    1    2    0    0 -0.68500368278E-02  0.19012572380E-01  0.12072693079E-01  0.10203895915E+01  0.10201180165E+01 0.  0.
     999903    2    3    3    0    0  0.79705617500E-01 -0.42966529289E-01 -0.88770819901E-01  0.12825579862E+00  0.19240148448E-01 0.  0.
         14    1    1    2    0    0  0.68500368278E-02 -0.19012572380E-01 -0.12072693079E-01  0.23540408476E-01  0.00000000000E+00 0. -1.
     999901    1    3    3    0    0 -0.86555654328E-01  0.61979101668E-01  0.10084351298E+00  0.89213379291E+00  0.88000000000E+00 0.  1.
        -11    1    4    4    0    0  0.53473639268E-01 -0.18193958485E-01 -0.54107127076E-01  0.78219515105E-01  0.51100000000E-03 0. -1.
         11    1    4    4    0    0  0.26231978232E-01 -0.24772570803E-01 -0.34663692826E-01  0.50036283510E-01  0.51100000000E-03 0.  1.
</event>
<event>
 8    1  0.1109294E+005  0.1043930E+01  0.7957747E-01            NaN
         13   -1    0    0    0    0  0.00000000000E+00  0.00000000000E+00  0.74505805969E-08  0.10566000000E+00  0.10566000000E+00 0.  1.
     999900   -1    0    0    0    0 -0.00000000000E+00 -0.00000000000E+00 -0.74505805969E-08  0.93827000000E+00  0.93827000000E+00 0. -1.
     999902    2    1    2    0    0 -0.10661064004E-01  0.37377393310E-02 -0.20933191065E-01  0.10201428718E+01  0.10198655065E+01 0.  0.
     999903    2    3    3    0    0 -0.41795763603E-01 -0.85946137897E-01 -0.89211160597E-01  0.13240729826E+00  0.20962752299E-01 0.  0.
         14    1    1    2    0    0  0.10661064004E-01 -0.37377393310E-02  0.20933191065E-01  0.23787128225E-01  0.00000000000E+00 0.  1.
     999901    1    3    3    0    0  0.31134699600E-01  0.89683877228E-01  0.68277969531E-01  0.88773557351E+00  0.88000000000E+00 0.  1.
        -11    1    4    4    0    0 -0.14018491531E-01 -0.52135086935E-01 -0.52114213392E-01  0.75038241937E-01  0.51100000000E-03 0. -1.
         11    1    4    4    0    0 -0.27777272073E-01 -0.33811050963E-01 -0.37096947205E-01  0.57369056328E-01  0.51100000000E-03 0.  1.
</event>
<event>
 8    1  0.1109294E+005  0.1043930E+01  0.7957747E-01            NaN
         13   -1    0    0    0    0  0.00000000000E+00  0.00000000000E+00  0.74505805969E-08  0.10566000000E+00  0.10566000000E+00 0.  1.
     999900   -1    0    0    0    0 -0.00000000000E+00 -0.00000000000E+00 -0.74505805969E-08  0.93827000000E+00  0.93827000000E+00 0. -1.
     999902    2    1    2    0    0  0.19740865335E-01  0.94963733542E-03 -0.14088028314E-01  0.10196591097E+01  0.10193702094E+01 0.  0.
     999903    2    3    3    0    0  0.27915226904E-01 -0.12609983406E+00 -0.42218395183E-02  0.13044275240E+00  0.17806169758E-01 0.  0.
         14    1    1    2    0    0 -0.19740865335E-01 -0.94963733542E-03  0.14088028314E-01  0.24270890322E-01  0.00000000000E+00 0.  1.
     999901    1    3    3    0    0 -0.81743615695E-02  0.12704947140E+00 -0.98661887959E-02  0.88921635728E+00  0.88000000000E+00 0. -1.
        -11    1    4    4    0    0  0.10080428103E-01 -0.44857248617E-01  0.70066030185E-02  0.46509583863E-01  0.51100000000E-03 0.  1.
         11    1    4    4    0    0  0.17834798801E-01 -0.81242585444E-01 -0.11228442537E-01  0.83933168537E-01  0.51100000000E-03 0. -1.
</event>
<event>
 8    1  0.1109294E+005  0.1043930E+01  0.7957747E-01            NaN
         13   -1    0    0    0    0  0.00000000000E+00  0.00000000000E+00  0.74505805969E-08  0.10566000000E+00  0.10566000000E+00 0. -1.
     999900   -1    0    0    0    0 -0.00000000000E+00 -0.00000000000E+00 -0.74505805969E-08  0.93827000000E+00  0.93827000000E+00 0.  1.
     999902    2    1    2    0    0  0.21749864803E-01  0.11076442855E-01  0.53281179037E-02  0.10189473451E+01  0.10186410354E+01 0.  0.
     999903    2    3    3    0    0  0.11210860726E+00 -0.31373017314E-01  0.58392965971E-01  0.13171426575E+00  0.19654599672E-01 0.  0.
         14    1    1    2    0    0 -0.21749864803E-01 -0.11076442855E-01 -0.53281179037E-02  0.24982654896E-01  0.00000000000E+00 0.  1.
     999901    1    3    3    0    0 -0.90358742460E-01  0.42449460169E-01 -0.53064848067E-01  0.88723307936E+00  0.88000000000E+00 0.  1.
        -11    1    4    4    0    0  0.49351214815E-01 -0.23876570737E-01  0.25606942867E-01  0.60511235964E-01  0.51100000000E-03 0.  1.
         11    1    4    4    0    0  0.62757392448E-01 -0.74964465765E-02  0.32786023104E-01  0.71203029782E-01  0.51100000000E-03 0. -1.
</event>
<event>
 8    1  0.1109294E+005  0.1043930E+01  0.7957747E-01            NaN
         13   -1    0    0    0    0  0.00000000000E+00  0.00000000000E+00  0.74505805969E-08  0.10566000000E+00  0.10566000000E+00 0. -1.
     999900   -1    0    0    0    0 -0.00000000000E+00 -0.00000000000E+00 -0.74505805969E-08  0.93827000000E+00  0.93827000000E+00 0.  1.
     999902    2    1    2    0    0  0.74254697023E-02  0.11002294852E-01 -0.19881471168E-01  0.10200247498E+01  0.10197445902E+01 0.  0.
     999903    2    3    3    0    0 -0.23281419314E-01  0.12333575556E+00 -0.36357762745E-01  0.13219977400E+00  0.20028985245E-01 0.  0.
         14    1    1    2    0    0 -0.74254697023E-02 -0.11002294852E-01  0.19881471168E-01  0.23905250221E-01  0.00000000000E+00 0. -1.
     999901    1    3    3    0    0  0.30706889017E-01 -0.11233346071E+00  0.16476291577E-01  0.88782497578E+00  0.88000000000E+00 0. -1.
        -11    1    4    4    0    0 -0.62094205353E-03  0.56168220042E-01 -0.14448066895E-01  0.58002260901E-01  0.51100000000E-03 0. -1.
         11    1    4    4    0    0 -0.22660477261E-01  0.67167535518E-01 -0.21909695850E-01  0.74197513102E-01  0.51100000000E-03 0.  1.
</event>
<event>
 8    1  0.1109294E+005  0.1043930E+01  0.7957747E-01            NaN
         13   -1    0    0    0    0  0.00000000000E+00  0.00000000000E+00  0.74505805969E-08  0.10566000000E+00  0.10566000000E+00 0.  1.
     999900   -1    0    0    0    0 -0.00000000000E+00 -0.00000000000E+00 -0.74505805969E-08  0.93827000000E+00  0.93827000000E+00 0. -1.
     999902    2    1    2    0    0 -0.45029068265E-02 -0.21927463609E-02  0.27308037574E-01  0.10161664768E+01  0.10157871309E+01 0.  0.
     999903    2    3    3    0    0 -0.94785374073E-01 -0.79563364380E-01  0.26646430781E-01  0.12817009493E+00  0.20073486765E-01 0.  0.
         14    1    1    2    0    0  0.45029068265E-02  0.21927463609E-02 -0.27308037574E-01  0.27763523239E-01  0.00000000000E+00 0. -1.
     999901    1    3    3    0    0  0.90282467246E-01  0.77370618019E-01  0.66160679291E-03  0.88799638183E+00  0.88000000000E+00 0. -1.
        -11    1    4    4    0    0 -0.52233760646E-01 -0.56077182519E-01  0.13491305361E-01  0.77815760562E-01  0.51100000000E-03 0. -1.
         11    1    4    4    0    0 -0.42551613427E-01 -0.23486181861E-01  0.13155125421E-01  0.50354334367E-01  0.51100000000E-03 0.  1.
</event>
<event>
 8    1  0.1109294E+005  0.1043930E+01  0.7957747E-01            NaN
         13   -1    0    0    0    0  0.00000000000E+00  0.00000000000E+00  0.74505805969E-08  0.10566000000E+00  0.10566000000E+00 0.  1.
     999900   -1    0    0    0    0 -0.00000000000E+00 -0.00000000000E+00 -0.74505805969E-08  0.93827000000E+00  0.93827000000E+00 0. -1.
     999902    2    1    2    0    0  0.48355277721E-02 -0.22611960461E-01  0.17739303030E-02  0.10207388398E+01  0.10204753545E+01 0.  0.
     999903    2    3    3    0    0 -0.38883392204E-01  0.11697894164E+00  0.31240934153E-01  0.12817776721E+00  0.16048459852E-01 0.  0.
         14    1    1    2    0    0 -0.48355277721E-02  0.22611960461E-01 -0.17739303030E-02  0.23191160243E-01  0.00000000000E+00 0.  1.
     999901    1    3    3    0    0  0.43718919977E-01 -0.13959090210E+00 -0.29467003850E-01  0.89256107255E+00  0.88000000000E+00 0.  1.
        -11    1    4    4    0    0 -0.27079049617E-01  0.75557324238E-01  0.27895850168E-01  0.84974253464E-01  0.51100000000E-03 0. -1.
         11    1    4    4    0    0 -0.11804342587E-01  0.41421617401E-01  0.33450839845E-02  0.43203513745E-01  0.51100000000E-03 0.  1.
</event>
<event>
 8    1  0.1109294E+005  0.1043930E+01  0.7957747E-01            NaN
         13   -1    0    0    0    0  0.00000000000E+00  0.00000000000E+00  0.74505805969E-08  0.10566000000E+00  0.10566000000E+00 0.  1.
     999900   -1    0    0    0    0 -0.00000000000E+00 -0.00000000000E+00 -0.74505805969E-08  0.93827000000E+00  0.93827000000E+00 0. -1.
     999902    2    1    2    0    0  0.17582918950E-01 -0.41955034193E-02  0.14371664413E-01  0.10208365805E+01  0.10205753368E+01 0.  0.
     999903    2    3    3    0    0  0.11245940210E+00 -0.48223274850E-01 -0.46834744703E-01  0.13253133100E+00  0.19961438489E-01 0.  0.
         14    1    1    2    0    0 -0.17582918950E-01  0.41955034193E-02 -0.14371664413E-01  0.23093419533E-01  0.00000000000E+00 0. -1.
     999901    1    3    3    0    0 -0.94876483154E-01  0.44027771431E-01  0.61206409116E-01  0.88830524947E+00  0.88000000000E+00 0.  1.
        -11    1    4    4    0    0  0.33225532664E-01 -0.23701203285E-01 -0.19191971651E-01  0.45102948405E-01  0.51100000000E-03 0.  1.
         11    1    4    4    0    0  0.79233869440E-01 -0.24522071565E-01 -0.27642773051E-01  0.87428382595E-01  0.51100000000E-03 0. -1.
</event>
<event>
 8    1  0.1109294E+005  0.1043930E+01  0.7957747E-01            NaN
         13   -1    0    0    0    0  0.00000000000E+00  0.00000000000E+00  0.74505805969E-08  0.10566000000E+00  0.10566000000E+00 0. -1.
     999900   -1    0    0    0    0 -0.00000000000E+00 -0.00000000000E+00 -0.74505805969E-08  0.93827000000E+00  0.93827000000E+00 0.  1.
     999902    2    1    2    0    0 -0.20078968806E-01  0.37837292235E-03 -0.11856610870E-01  0.10206086069E+01  0.10203421196E+01 0.  0.
     999903    2    3    3    0    0  0.97946625143E-01 -0.25132103042E-01 -0.78842108424E-01  0.12984046531E+00  0.20428029523E-01 0.  0.
         14    1    1    2    0    0  0.20078968806E-01 -0.37837292235E-03  0.11856610870E-01  0.23321393091E-01  0.00000000000E+00 0. -1.
     999901    1    3    3    0    0 -0.11802559395E+00  0.25510475964E-01  0.66985497554E-01  0.89076814160E+00  0.88000000000E+00 0.  1.
        -11    1    4    4    0    0  0.25992611709E-01 -0.13908424723E-01 -0.30552562568E-01  0.42459160875E-01  0.51100000000E-03 0. -1.
         11    1    4    4    0    0  0.71954013434E-01 -0.11223678319E-01 -0.48289545856E-01  0.87381304432E-01  0.51100000000E-03 0.  1.
</event>
<event>
 8    1  0.1109294E+005  0.1043930E+01  0.7957747E-01            NaN
         13   -1    0    0    0    0  0.00000000000E+00  0.00000000000E+00  0.74505805969E-08  0.10566000000E+00  0.10566000000E+00 0.  1.
     999900   -1    0    0    0    0 -0.00000000000E+00 -0.00000000000E+00 -0.74505805969E-08  0.93827000000E+00  0.93827000000E+00 0.  1.
     999902    2    1    2    0    0 -0.20070524467E-01  0.23066398103E-02  0.97441742936E-02  0.10215002102E+01  0.10212539272E+01 0.  0.
     999903    2    3    3    0    0  0.22582218856E-01 -0.62237155857E-01  0.11255896264E+00  0.13214311721E+00  0.20220365453E-01 0.  0.
         14    1    1    2    0    0  0.20070524467E-01 -0.23066398103E-02 -0.97441742936E-02  0.22429789839E-01  0.00000000000E+00 0. -1.
     999901    1    3    3    0    0 -0.42652743323E-01  0.64543795668E-01 -0.10281478835E+00  0.88935709295E+00  0.88000000000E+00 0.  1.
        -11    1    4    4    0    0  0.69761467092E-02 -0.13923651994E-01  0.45069209096E-01  0.47686784724E-01  0.51100000000E-03 0.  1.
         11    1    4    4    0    0  0.15606072147E-01 -0.48313503864E-01  0.67489753542E-01  0.84456332490E-01  0.51100000000E-03 0. -1.
</event>
<event>
 8    1  0.1109294E+005  0.1043930E+01  0.7957747E-01            NaN
         13   -1    0    0    0    0  0.00000000000E+00  0.00000000000E+00  0.74505805969E-08  0.10566000000E+00  0.10566000000E+00 0.  1.
     999900   -1    0    0    0    0 -0.00000000000E+00 -0.00000000000E+00 -0.74505805969E-08  0.93827000000E+00  0.93827000000E+00 0. -1.
     999902    2    1    2    0    0  0.15439416287E-01  0.17074709412E-01  0.42438415619E-02  0.10205220640E+01  0.10202535722E+01 0.  0.
     999903    2    3    3    0    0 -0.32231156959E-01 -0.12114286093E+00  0.20150997007E-01  0.12831714477E+00  0.18568433639E-01 0.  0.
         14    1    1    2    0    0 -0.15439416287E-01 -0.17074709412E-01 -0.42438415619E-02  0.23407936005E-01  0.00000000000E+00 0. -1.
     999901    1    3    3    0    0  0.47670573246E-01  0.13821757034E+00 -0.15907155445E-01  0.89220491923E+00  0.88000000000E+00 0.  1.
        -11    1    4    4    0    0 -0.32678643870E-01 -0.11007536858E+00  0.14105807721E-01  0.11568800917E+00  0.51100000000E-03 0.  1.
         11    1    4    4    0    0  0.44748691125E-03 -0.11067492352E-01  0.60451892862E-02  0.12629135600E-01  0.51100000000E-03 0. -1.
</event>
<event>
 8    1  0.1109294E+005  0.1043930E+01  0.7957747E-01            NaN
         13   -1    0    0    0    0  0.00000000000E+00  0.00000000000E+00  0.74505805969E-08  0.10566000000E+00  0.10566000000E+00 0. -1.
     999900   -1    0    0    0    0 -0.00000000000E+00 -0.00000000000E+00 -0.74505805969E-08  0.93827000000E+00  0.93827000000E+00 0. -1.
     999902    2    1    2    0    0  0.66316903938E-02  0.21663915193E-01 -0.75076666457E-02  0.10200622478E+01  0.10197829768E+01 0.  0.
     999903    2    3    3    0    0 -0.12267777862E+00  0.39154142825E-01 -0.27222397300E-02  0.13042763335E+00  0.20520055662E-01 0.  0.
         14    1    1    2    0    0 -0.66316903938E-02 -0.21663915193E-01  0.75076666457E-02  0.23867752249E-01  0.00000000000E+00 0.  1.
     999901    1    3    3    0    0  0.12930946901E+00 -0.17490227632E-01 -0.47854269156E-02  0.88963461441E+00  0.88000000000E+00 0. -1.
        -11    1    4    4    0    0 -0.52411023358E-01  0.64797416367E-02  0.13124410691E-02  0.52828837236E-01  0.51100000000E-03 0.  1.
         11    1    4    4    0    0 -0.70266755258E-01  0.32674401189E-01 -0.40346807991E-02  0.77598796109E-01  0.51100000000E-03 0. -1.
</event>
<event>
 8    1  0.1109294E+005  0.1043930E+01  0.7957747E-01            NaN
         13   -1    0    0    0    0  0.00000000000E+00  0.00000000000E+00  0.74505805969E-08  0.10566000000E+00  0.10566000000E+00 0. -1.
     999900   -1    0    0    0    0 -0.00000000000E+00 -0.00000000000E+00 -0.74505805969E-08  0.93827000000E+00  0.93827000000E+00 0. -1.
     999902    2    1    2    0    0  0.43083086279E-02 -0.13633553813E-01 -0.19718028738E-01  0.10195735641E+01  0.10192825990E+01 0.  0.
     999903    2    3    3    0    0  0.94649657089E-01 -0.87662264174E-01 -0.17856249681E-01  0.13185442190E+00  0.20579425991E-01 0.  0.
         14    1    1    2    0    0 -0.43083086279E-02  0.13633553813E-01  0.19718028738E-01  0.24356435907E-01  0.00000000000E+00 0. -1.
     999901    1    3    3    0    0 -0.90341348461E-01  0.74028710360E-01 -0.18617790570E-02  0.88771914220E+00  0.88000000000E+00 0.  1.
        -11    1    4    4    0    0  0.60599335374E-01 -0.53693171580E-01 -0.12723158093E-02  0.80976021331E-01  0.51100000000E-03 0.  1.
         11    1    4    4    0    0  0.34050321715E-01 -0.33969092593E-01 -0.16583933871E-01  0.50878400566E-01  0.51100000000E-03 0. -1.
</event>
<event>
 8    1  0.1109294E+005  0.1043930E+01  0.7957747E-01            NaN
         13   -1    0    0    0    0  0.00000000000E+00  0.00000000000E+00  0.74505805969E-08  0.10566000000E+00  0.10566000000E+00 0. -1.
     999900   -1    0    0    0    0 -0.00000000000E+00 -0.00000000000E+00 -0.74505805969E-08  0.93827000000E+00  0.93827000000E+00 0. -1.
     999902    2    1    2    0    0 -0.22844446444E-02 -0.30674330441E-02 -0.24019623913E-01  0.10196077845E+01  0.10193176463E+01 0.  0.
     999903    2    3    3    0    0  0.98393854806E-02  0.12269247950E+00  0.32475012147E-01  0.12879120028E+00  0.19552207653E-01 0.  0.
         14    1    1    2    0    0  0.22844446444E-02  0.30674330441E-02  0.24019623913E-01  0.24322215478E-01  0.00000000000E+00 0. -1.
     999901    1    3    3    0    0 -0.12123830125E-01 -0.12575991254E+00 -0.56494636060E-01  0.89081658424E+00  0.88000000000E+00 0. -1.
        -11    1    4    4    0    0  0.24513398757E-02  0.10730313050E+00  0.30605702077E-01  0.11161066706E+00  0.51100000000E-03 0.  1.
         11    1    4    4    0    0  0.73880456050E-02  0.15389348997E-01  0.18693100703E-02  0.17180533215E-01  0.51100000000E-03 0. -1.
</event>
<event>
 7    1  0.1109294E+005  0.1043930E+01  0.7957747E-01            NaN
         13   -1    0    0    0    0  0.00000000000E+00  0.00000000000E+00  0.74505805969E-08  0.10566000000E+00  0.10566000000E+00 0. -1.
     999900   -1    0    0    0    0 -0.00000000000E+00 -0.00000000000E+00 -0.74505805969E-08  0.93827000000E+00  0.93827000000E+00 0. -1.
     999903    2    1    2    0    0 -0.36726189427E-01 -0.92712643459E-01 -0.39428335799E-01  0.10947967911E+00  0.22062620602E-01 0.  0.
         14    1    1    2    0    0  0.44675699192E-01 -0.10307181274E-01  0.14378512378E-01  0.48050990649E-01  0.00000000000E+00 0.  1.
     999901    1    1    2    0    0 -0.79495097653E-02  0.10301982473E+00  0.25049823421E-01  0.88639933024E+00  0.88000000000E+00 0.  1.
        -11    1    3    3    0    0  0.11550443969E-04 -0.15047739362E-01 -0.26786626051E-03  0.15058800306E-01  0.51100000000E-03 0.  1.
         11    1    3    3    0    0 -0.36737739871E-01 -0.77664904097E-01 -0.39160469538E-01  0.94420878807E-01  0.51100000000E-03 0. -1.
</event>
<event>
 8    1  0.1109294E+005  0.1043930E+01  0.7957747E-01            NaN
         13   -1    0    0    0    0  0.00000000000E+00  0.00000000000E+00  0.74505805969E-08  0.10566000000E+00  0.10566000000E+00 0. -1.
     999900   -1    0    0    0    0 -0.00000000000E+00 -0.00000000000E+00 -0.74505805969E-08  0.93827000000E+00  0.93827000000E+00 0.  1.
     999902    2    1    2    0    0  0.27123993158E-01 -0.18869958689E-01 -0.63075144357E-02  0.10102911670E+01  0.10097309895E+01 0.  0.
     999903    2    3    3    0    0  0.51186680566E-01 -0.10772782180E+00  0.30474510408E-01  0.12472487921E+00  0.20055918104E-01 0.  0.
         14    1    1    2    0    0 -0.27123993158E-01  0.18869958689E-01  0.63075144357E-02  0.33638832978E-01  0.00000000000E+00 0. -1.
     999901    1    3    3    0    0 -0.24062687407E-01  0.88857863113E-01 -0.36782024843E-01  0.88556628781E+00  0.88000000000E+00 0.  1.
        -11    1    4    4    0    0  0.19057889178E-01 -0.39439349397E-01  0.13406375845E-02  0.43826063602E-01  0.51100000000E-03 0.  1.
         11    1    4    4    0    0  0.32128791388E-01 -0.68288472406E-01  0.29133872823E-01  0.80898815605E-01  0.51100000000E-03 0. -1.
</event>
<event>
 8    1  0.1109294E+005  0.1043930E+01  0.7957747E-01            NaN
         13   -1    0    0    0    0  0.00000000000E+00  0.00000000000E+00  0.74505805969E-08  0.10566000000E+00  0.10566000000E+00 0.  1.
     999900   -1    0    0    0    0 -0.00000000000E+00 -0.00000000000E+00 -0.74505805969E-08  0.93827000000E+00  0.93827000000E+00 0.  1.
     999902    2    1    2    0    0 -0.63816732799E-02  0.14393567960E-01  0.18053834512E-01  0.10199750111E+01  0.10196936706E+01 0.  0.
     999903    2    3    3    0    0  0.50793166689E-01  0.63866740353E-01  0.10252159260E+00  0.13270314788E+00  0.20989097214E-01 0.  0.
         14    1    1    2    0    0  0.63816732799E-02 -0.14393567960E-01 -0.18053834512E-01  0.23954988897E-01  0.00000000000E+00 0. -1.
     999901    1    3    3    0    0 -0.57174839969E-01 -0.49473172392E-01 -0.84467758089E-01  0.88727186322E+00  0.88000000000E+00 0.  1.
        -11    1    4    4    0    0  0.30978205415E-01  0.30111208202E-01  0.39646211555E-01  0.58638019081E-01  0.51100000000E-03 0. -1.
         11    1    4    4    0    0  0.19814961274E-01  0.33755532151E-01  0.62875381047E-01  0.74065128798E-01  0.51100000000E-03 0.  1.
</event>
<event>
 8    1  0.1109294E+005  0.1043930E+01  0.7957747E-01            NaN
         13   -1    0    0    0    0  0.00000000000E+00  0.00000000000E+00  0.74505805969E-08  0.10566000000E+00  0.10566000000E+00 0.  1.
     999900   -1    0    0    0    0 -0.00000000000E+00 -0.00000000000E+00 -0.74505805969E-08  0.93827000000E+00  0.93827000000E+00 0. -1.
     999902    2    1    2    0    0  0.11049896002E-01 -0.20111610455E-01 -0.22103009032E-02  0.10208765294E+01  0.10206161991E+01 0.  0.
     999903    2    3    3    0    0 -0.12468310648E-01 -0.35172045726E-01 -0.12486223793E+00  0.13193141275E+00  0.20561800495E-01 0.  0.
         14    1    1    2    0    0 -0.11049896002E-01  0.20111610455E-01  0.22103009032E-02  0.23053470602E-01  0.00000000000E+00 0. -1.
     999901    1    3    3    0    0  0.23518206650E-01  0.15060435271E-01  0.12265193702E+00  0.88894511665E+00  0.88000000000E+00 0.  1.
        -11    1    4    4    0    0 -0.87918882867E-02 -0.93929416614E-02 -0.70328223634E-01  0.71497166470E-01  0.51100000000E-03 0.  1.
         11    1    4    4    0    0 -0.36764223613E-02 -0.25779104065E-01 -0.54534014292E-01  0.60434246281E-01  0.51100000000E-03 0. -1.
</event>
<event>
 8    1  0.1109294E+005  0.1043930E+01  0.7957747E-01            NaN
         13   -1    0    0    0    0  0.00000000000E+00  0.00000000000E+00  0.74505805969E-08  0.10566000000E+00  0.10566000000E+00 0. -1.
     999900   -1    0    0    0    0 -0.00000000000E+00 -0.00000000000E+00 -0.74505805969E-08  0.93827000000E+00  0.93827000000E+00 0.  1.
     999902    2    1    2    0    0 -0.11615281300E-01 -0.19672276742E-01 -0.10837981369E-01  0.10186441330E+01  0.10183302483E+01 0.  0.
     999903    2    3    3    0    0  0.50357744088E-01 -0.74996239956E-01  0.89175116897E-01  0.12909142704E+00  0.23495886118E-01 0.  0.
         14    1    1    2    0    0  0.11615281300E-01  0.19672276742E-01  0.10837981369E-01  0.25285867041E-01  0.00000000000E+00 0. -1.
     999901    1    3    3    0    0 -0.61973025388E-01  0.55323963215E-01 -0.10001309827E+00  0.88955270592E+00  0.88000000000E+00 0.  1.
        -11    1    4    4    0    0  0.25950667771E-01 -0.20160015768E-01  0.37733810672E-01  0.50039634114E-01  0.51100000000E-03 0.  1.
         11    1    4    4    0    0  0.24407076318E-01 -0.54836224189E-01  0.51441306226E-01  0.79051792926E-01  0.51100000000E-03 0. -1.
</event>
<event>
 8    1  0.1109294E+005  0.1043930E+01  0.7957747E-01            NaN
         13   -1    0    0    0    0  0.00000000000E+00  0.00000000000E+00  0.74505805969E-08  0.10566000000E+00  0.10566000000E+00 0. -1.
     999900   -1    0    0    0    0 -0.00000000000E+00 -0.00000000000E+00 -0.74505805969E-08  0.93827000000E+00  0.93827000000E+00 0. -1.
     999902    2    1    2    0    0 -0.19849979309E-01 -0.17250354639E-02 -0.11296515376E-01  0.10210256623E+01  0.10207687272E+01 0.  0.
     999903    2    3    3    0    0  0.18069935674E-01 -0.10934816627E+00  0.65321567287E-01  0.13035681877E+00  0.21034471816E-01 0.  0.
         14    1    1    2    0    0  0.19849979309E-01  0.17250354639E-02  0.11296515376E-01  0.22904337702E-01  0.00000000000E+00 0. -1.
     999901    1    3    3    0    0 -0.37919914983E-01  0.10762313081E+00 -0.76618082663E-01  0.89066884353E+00  0.88000000000E+00 0.  1.
        -11    1    4    4    0    0  0.14484709756E-01 -0.32765359999E-01  0.16344556882E-01  0.39379960554E-01  0.51100000000E-03 0.  1.
         11    1    4    4    0    0  0.35852259179E-02 -0.76582806276E-01  0.48977010405E-01  0.90976858218E-01  0.51100000000E-03 0. -1.
</event>
<event>
 8    1  0.1109294E+005  0.1043930E+01  0.7957747E-01            NaN
         13   -1    0    0    0    0  0.00000000000E+00  0.00000000000E+00  0.74505805969E-08  0.10566000000E+00  0.10566000000E+00 0.  1.
     999900   -1    0    0    0    0 -0.00000000000E+00 -0.00000000000E+00 -0.74505805969E-08  0.93827000000E+00  0.93827000000E+00 0. -1.
     999902    2    1    2    0    0 -0.48997988108E-02 -0.97503309087E-02  0.21091381209E-01  0.10201829298E+01  0.10199065089E+01 0.  0.
     999903    2    3    3    0    0 -0.12287838891E+00 -0.37480422498E-02 -0.38390901065E-01  0.13029916375E+00  0.19770293583E-01 0.  0.
         14    1    1    2    0    0  0.48997988108E-02  0.97503309087E-02 -0.21091381209E-01  0.23747070188E-01  0.00000000000E+00 0. -1.
     999901    1    3    3    0    0  0.11797859010E+00 -0.60022886589E-02  0.59482282274E-01  0.88988376606E+00  0.88000000000E+00 0.  1.
        -11    1    4    4    0    0 -0.83492519566E-01  0.27501158102E-02 -0.17939233423E-01  0.85443789576E-01  0.51100000000E-03 0. -1.
         11    1    4    4    0    0 -0.39385869344E-01 -0.64981580600E-02 -0.20451667642E-01  0.44855374177E-01  0.51100000000E-03 0.  1.
</event>
<event>
 8    1  0.1109294E+005  0.1043930E+01  0.7957747E-01            NaN
         13   -1    0    0    0    0  0.00000000000E+00  0.00000000000E+00  0.74505805969E-08  0.10566000000E+00  0.10566000000E+00 0. -1.
     999900   -1    0    0    0    0 -0.00000000000E+00 -0.00000000000E+00 -0.74505805969E-08  0.93827000000E+00  0.93827000000E+00 0.  1.
     999902    2    1    2    0    0  0.46810802578E-02  0.22239699008E-02  0.23830959285E-01  0.10195420281E+01  0.10192502999E+01 0.  0.
     999903    2    3    3    0    0  0.11921309074E+00  0.48898665020E-01 -0.35032222847E-02  0.13047326466E+00  0.20202964610E-01 0.  0.
         14    1    1    2    0    0 -0.46810802578E-02 -0.22239699008E-02 -0.23830959285E-01  0.24387971932E-01  0.00000000000E+00 0.  1.
     999901    1    3    3    0    0 -0.11453201048E+00 -0.46674695119E-01  0.27334181570E-01  0.88906876341E+00  0.88000000000E+00 0. -1.
        -11    1    4    4    0    0  0.47223721914E-01  0.19487871393E-01 -0.11275287961E-01  0.52318737393E-01  0.51100000000E-03 0. -1.
         11    1    4    4    0    0  0.71989368828E-01  0.29410793627E-01  0.77720656761E-02  0.78154527264E-01  0.51100000000E-03 0.  1.
</event>
<event>
 8    1  0.1109294E+005  0.1043930E+01  0.7957747E-01            NaN
         13   -1    0    0    0    0  0.00000000000E+00  0.00000000000E+00  0.74505805969E-08  0.10566000000E+00  0.10566000000E+00 0. -1.
     999900   -1    0    0    0    0 -0.00000000000E+00 -0.00000000000E+00 -0.74505805969E-08  0.93827000000E+00  0.93827000000E+00 0.  1.
     999902    2    1    2    0    0  0.53755019046E-02  0.66527555137E-02 -0.22502709724E-01  0.10198566304E+01  0.10195724690E+01 0.  0.
     999903    2    3    3    0    0 -0.78123156833E-01  0.74003978652E-01 -0.73791681421E-01  0.13185957421E+00  0.19024157648E-01 0.  0.
         14    1    1    2    0    0 -0.53755019046E-02 -0.66527555137E-02  0.22502709724E-01  0.24073369551E-01  0.00000000000E+00 0. -1.
     999901    1    3    3    0    0  0.83498658738E-01 -0.67351223138E-01  0.51288971698E-01  0.88799705624E+00  0.88000000000E+00 0. -1.
        -11    1    4    4    0    0 -0.24938584922E-01  0.35651187800E-01 -0.33310977072E-01  0.54798015694E-01  0.51100000000E-03 0.  1.
         11    1    4    4    0    0 -0.53184571911E-01  0.38352790852E-01 -0.40480704349E-01  0.77061558517E-01  0.51100000000E-03 0. -1.
</event>
<event>
 8    1  0.1109294E+005  0.1043930E+01  0.7957747E-01            NaN
         13   -1    0    0    0    0  0.00000000000E+00  0.00000000000E+00  0.74505805969E-08  0.10566000000E+00  0.10566000000E+00 0.  1.
     999900   -1    0    0    0    0 -0.00000000000E+00 -0.00000000000E+00 -0.74505805969E-08  0.93827000000E+00  0.93827000000E+00 0. -1.
     999902    2    1    2    0    0 -0.13558834800E-01  0.84688850102E-02 -0.17366616851E-01  0.10203256912E+01  0.10200526225E+01 0.  0.
     999903    2    3    3    0    0 -0.34593163691E-02 -0.22961055697E-01 -0.12911544856E+00  0.13264464325E+00  0.19611868303E-01 0.  0.
         14    1    1    2    0    0  0.13558834800E-01 -0.84688850102E-02  0.17366616851E-01  0.23604308829E-01  0.00000000000E+00 0. -1.
     999901    1    3    3    0    0 -0.10099518431E-01  0.31429940707E-01  0.11174883171E+00  0.88768104792E+00  0.88000000000E+00 0.  1.
        -11    1    4    4    0    0 -0.10802659847E-01 -0.78334836643E-02 -0.49382717124E-01  0.51156375923E-01  0.51100000000E-03 0. -1.
         11    1    4    4    0    0  0.73433434782E-02 -0.15127572033E-01 -0.79732731436E-01  0.81488267329E-01  0.51100000000E-03 0.  1.
</event>
<event>
 8    1  0.1109294E+005  0.1043930E+01  0.7957747E-01            NaN
         13   -1    0    0    0    0  0.00000000000E+00  0.00000000000E+00  0.74505805969E-08  0.10566000000E+00  0.10566000000E+00 0.  1.
     999900   -1    0    0    0    0 -0.00000000000E+00 -0.00000000000E+00 -0.74505805969E-08  0.93827000000E+00  0.93827000000E+00 0.  1.
     999902    2    1    2    0    0  0.22666578221E-01  0.37719934656E-02 -0.61524584700E-02  0.10201423047E+01  0.10198649260E+01 0.  0.
     999903    2    3    3    0    0  0.53752408751E-01 -0.55545023333E-01 -0.10523503773E+00  0.13205323548E+00  0.19724927647E-01 0.  0.
         14    1    1    2    0    0 -0.22666578221E-01 -0.37719934656E-02  0.61524584700E-02  0.23787695310E-01  0.00000000000E+00 0.  1.
     999901    1    3    3    0    0 -0.31085830530E-01  0.59317016798E-01  0.99082579259E-01  0.88808906921E+00  0.88000000000E+00 0. -1.
        -11    1    4    4    0    0  0.21863286519E-01 -0.25441715245E-01 -0.61851070423E-01  0.70364054783E-01  0.51100000000E-03 0. -1.
         11    1    4    4    0    0  0.31889122232E-01 -0.30103308088E-01 -0.43383967306E-01  0.61689180694E-01  0.51100000000E-03 0.  1.
</event>
<event>
 8    1  0.1109294E+005  0.1043930E+01  0.7957747E-01            NaN
         13   -1    0    0    0    0  0.00000000000E+00  0.00000000000E+00  0.74505805969E-08  0.10566000000E+00  0.10566000000E+00 0.  1.
     999900   -1    0    0    0    0 -0.00000000000E+00 -0.00000000000E+00 -0.74505805969E-08  0.93827000000E+00  0.93827000000E+00 0.  1.
     999902    2    1    2    0    0  0.91097804572E-03  0.24191744951E-01 -0.14599972997E-02  0.10196771239E+01  0.10193886575E+01 0.  0.
     999903    2    3    3    0    0  0.30903442046E-01 -0.35655729033E-01  0.11825686948E+00  0.12905184010E+00  0.21055557707E-01 0.  0.
         14    1    1    2    0    0 -0.91097804572E-03 -0.24191744951E-01  0.14599972997E-02  0.24252876054E-01  0.00000000000E+00 0. -1.
     999901    1    3    3    0    0 -0.29992464001E-01  0.59847473984E-01 -0.11971686678E+00  0.89062528385E+00  0.88000000000E+00 0.  1.
        -11    1    4    4    0    0  0.11219348116E-01 -0.18473560876E-01  0.29806995692E-01  0.36822063179E-01  0.51100000000E-03 0. -1.
         11    1    4    4    0    0  0.19684093931E-01 -0.17182168157E-01  0.88449873788E-01  0.92229776919E-01  0.51100000000E-03 0.  1.
</event>
<event>
 8    1  0.1109294E+005  0.1043930E+01  0.7957747E-01            NaN
         13   -1    0    0    0    0  0.00000000000E+00  0.00000000000E+00  0.74505805969E-08  0.10566000000E+00  0.10566000000E+00 0. -1.
     999900   -1    0    0    0    0 -0.00000000000E+00 -0.00000000000E+00 -0.74505805969E-08  0.93827000000E+00  0.93827000000E+00 0. -1.
     999902    2    1    2    0    0  0.17701471225E-01 -0.80308174189E-02  0.13644631225E-01  0.10201810616E+01  0.10199045967E+01 0.  0.
     999903    2    3    3    0    0 -0.55967312081E-01  0.36865557229E-01 -0.10689157194E+00  0.12778442877E+00  0.20288981066E-01 0.  0.
         14    1    1    2    0    0 -0.17701471225E-01  0.80308174189E-02 -0.13644631225E-01  0.23748938360E-01  0.00000000000E+00 0.  1.
     999901    1    3    3    0    0  0.73668783306E-01 -0.44896374648E-01  0.12053620316E+00  0.89239663287E+00  0.88000000000E+00 0.  1.
        -11    1    4    4    0    0 -0.24368326816E-01  0.26295304113E-01 -0.65235609790E-01  0.74439265686E-01  0.51100000000E-03 0.  1.
         11    1    4    4    0    0 -0.31598985265E-01  0.10570253116E-01 -0.41655962148E-01  0.53345163081E-01  0.51100000000E-03 0. -1.
</event>
<event>
 8    1  0.1109294E+005  0.1043930E+01  0.7957747E-01            NaN
         13   -1    0    0    0    0  0.00000000000E+00  0.00000000000E+00  0.74505805969E-08  0.10566000000E+00  0.10566000000E+00 0. -1.
     999900   -1    0    0    0    0 -0.00000000000E+00 -0.00000000000E+00 -0.74505805969E-08  0.93827000000E+00  0.93827000000E+00 0.  1.
     999902    2    1    2    0    0  0.10345907592E-01 -0.67468685747E-02  0.20109104782E-01  0.10203305480E+01  0.10200575930E+01 0.  0.
     999903    2    3    3    0    0  0.82192287995E-02 -0.12994170499E+00  0.82173386247E-03  0.13153726880E+00  0.18680883772E-01 0.  0.
         14    1    1    2    0    0 -0.10345907592E-01  0.67468685747E-02 -0.20109104782E-01  0.23599451998E-01  0.00000000000E+00 0. -1.
     999901    1    3    3    0    0  0.21266787922E-02  0.12319483641E+00  0.19287370920E-01  0.88879327920E+00  0.88000000000E+00 0.  1.
        -11    1    4    4    0    0 -0.30327482755E-02 -0.60036158240E-01  0.66970620609E-02  0.60486772270E-01  0.51100000000E-03 0.  1.
         11    1    4    4    0    0  0.11251977075E-01 -0.69905546749E-01 -0.58753281984E-02  0.71050496528E-01  0.51100000000E-03 0. -1.
</event>
<event>
 8    1  0.1109294E+005  0.1043930E+01  0.7957747E-01            NaN
         13   -1    0    0    0    0  0.00000000000E+00  0.00000000000E+00  0.74505805969E-08  0.10566000000E+00  0.10566000000E+00 0. -1.
     999900   -1    0    0    0    0 -0.00000000000E+00 -0.00000000000E+00 -0.74505805969E-08  0.93827000000E+00  0.93827000000E+00 0.  1.
     999902    2    1    2    0    0  0.17878637506E-01 -0.50291763963E-02  0.14518008434E-01  0.10203564796E+01  0.10200841312E+01 0.  0.
     999903    2    3    3    0    0  0.86547212094E-01 -0.97048631966E-01 -0.14886862993E-01  0.13241076067E+00  0.20053278110E-01 0.  0.
         14    1    1    2    0    0 -0.17878637506E-01  0.50291763963E-02 -0.14518008434E-01  0.23573520382E-01  0.00000000000E+00 0. -1.
     999901    1    3    3    0    0 -0.68668574588E-01  0.92019455570E-01  0.29404871427E-01  0.88794571895E+00  0.88000000000E+00 0.  1.
        -11    1    4    4    0    0  0.71942878175E-01 -0.69521591164E-01 -0.71635281461E-02  0.10030257531E+00  0.51100000000E-03 0.  1.
         11    1    4    4    0    0  0.14604333919E-01 -0.27527040802E-01 -0.77233348466E-02  0.32108185354E-01  0.51100000000E-03 0. -1.
</event>
<event>
 8    1  0.1109294E+005  0.1043930E+01  0.7957747E-01            NaN
         13   -1    0    0    0    0  0.00000000000E+00  0.00000000000E+00  0.74505805969E-08  0.10566000000E+00  0.10566000000E+00 0.  1.
     999900   -1    0    0    0    0 -0.00000000000E+00 -0.00000000000E+00 -0.74505805969E-08  0.93827000000E+00  0.93827000000E+00 0.  1.
     999902    2    1    2    0    0  0.14604548097E-01  0.17863041194E-01  0.32645996959E-02  0.10206268097E+01  0.10203607431E+01 0.  0.
     999903    2    3    3    0    0 -0.63593454546E-01 -0.10984677615E+00  0.44737307818E-02  0.12797559729E+00  0.15725696922E-01 0.  0.
         14    1    1    2    0    0 -0.14604548097E-01 -0.17863041194E-01 -0.32645996959E-02  0.23303190275E-01  0.00000000000E+00 0. -1.
     999901    1    3    3    0    0  0.78198002643E-01  0.12770981734E+00 -0.12091310859E-02  0.89265121243E+00  0.88000000000E+00 0.  1.
        -11    1    4    4    0    0 -0.55722334483E-01 -0.84156444743E-01  0.15738372411E-02  0.10094564793E+00  0.51100000000E-03 0.  1.
         11    1    4    4    0    0 -0.78711200638E-02 -0.25690331404E-01  0.28998935407E-02  0.27029949358E-01  0.51100000000E-03 0. -1.
</event>
<event>
 8    1  0.1109294E+005  0.1043930E+01  0.7957747E-01            NaN
         13   -1    0    0    0    0  0.00000000000E+00  0.00000000000E+00  0.74505805969E-08  0.10566000000E+00  0.10566000000E+00 0.  1.
     999900   -1    0    0    0    0 -0.00000000000E+00 -0.00000000000E+00 -0.74505805969E-08  0.93827000000E+00  0.93827000000E+00 0. -1.
     999902    2    1    2    0    0  0.10209755331E-01  0.16863103565E-01  0.13911154126E-01  0.10198027628E+01  0.10195173130E+01 0.  0.
     999903    2    3    3    0    0 -0.81163732888E-01 -0.77852214209E-01 -0.56262210783E-01  0.12725337654E+00  0.19479904655E-01 0.  0.
         14    1    1    2    0    0 -0.10209755331E-01 -0.16863103565E-01 -0.13911154126E-01  0.24127237199E-01  0.00000000000E+00 0. -1.
     999901    1    3    3    0    0  0.91373488218E-01  0.94715317774E-01  0.70173364908E-01  0.89254938626E+00  0.88000000000E+00 0.  1.
        -11    1    4    4    0    0 -0.29397314944E-01 -0.34890152894E-01 -0.32036734013E-01  0.55750680194E-01  0.51100000000E-03 0.  1.
         11    1    4    4    0    0 -0.51766417943E-01 -0.42962061316E-01 -0.24225476770E-01  0.71502696347E-01  0.51100000000E-03 0. -1.
</event>
<event>
 8    1  0.1109294E+005  0.1043930E+01  0.7957747E-01            NaN
         13   -1    0    0    0    0  0.00000000000E+00  0.00000000000E+00  0.74505805969E-08  0.10566000000E+00  0.10566000000E+00 0. -1.
     999900   -1    0    0    0    0 -0.00000000000E+00 -0.00000000000E+00 -0.74505805969E-08  0.93827000000E+00  0.93827000000E+00 0. -1.
     999902    2    1    2    0    0 -0.18928075135E-01 -0.51572336003E-02 -0.13178255209E-01  0.10202966444E+01  0.10200228954E+01 0.  0.
     999903    2    3    3    0    0 -0.14444022792E-01 -0.29762030656E-04 -0.13021298306E+00  0.13252216559E+00  0.19951760209E-01 0.  0.
         14    1    1    2    0    0  0.18928075135E-01  0.51572336003E-02  0.13178255209E-01  0.23633355603E-01  0.00000000000E+00 0. -1.
     999901    1    3    3    0    0 -0.44840523427E-02 -0.51274715696E-02  0.11703472785E+00  0.88777447880E+00  0.88000000000E+00 0.  1.
        -11    1    4    4    0    0 -0.16634078670E-01  0.20081252658E-02 -0.61538752669E-01  0.63780908909E-01  0.51100000000E-03 0.  1.
         11    1    4    4    0    0  0.21900558776E-02 -0.20378872964E-02 -0.68674230394E-01  0.68741256685E-01  0.51100000000E-03 0. -1.
</event>
<event>
 8    1  0.1109294E+005  0.1043930E+01  0.7957747E-01            NaN
         13   -1    0    0    0    0  0.00000000000E+00  0.00000000000E+00  0.74505805969E-08  0.10566000000E+00  0.10566000000E+00 0. -1.
     999900   -1    0    0    0    0 -0.00000000000E+00 -0.00000000000E+00 -0.74505805969E-08  0.93827000000E+00  0.93827000000E+00 0.  1.
     999902    2    1    2    0    0 -0.21401705779E-01 -0.72387636820E-02 -0.73920915701E-02  0.10201586785E+01  0.10198816860E+01 0.  0.
     999903    2    3    3    0    0 -0.11857447585E+00 -0.12060569392E-01 -0.56756739180E-01  0.13342158919E+00  0.19355344536E-01 0.  0.
         14    1    1    2    0    0  0.21401705779E-01  0.72387636820E-02  0.73920915701E-02  0.23771321539E-01  0.00000000000E+00 0. -1.
     999901    1    3    3    0    0  0.97172770074E-01  0.48218057101E-02  0.49364647610E-01  0.88673708927E+00  0.88000000000E+00 0. -1.
        -11    1    4    4    0    0 -0.75521627166E-01  0.16739980958E-02 -0.36431558933E-01  0.83867979865E-01  0.51100000000E-03 0.  1.
         11    1    4    4    0    0 -0.43052848687E-01 -0.13734567488E-01 -0.20325180246E-01  0.49553609326E-01  0.51100000000E-03 0. -1.
</event>
<event>
 8    1  0.1109294E+005  0.1043930E+01  0.7957747E-01            NaN
         13   -1    0    0    0    0  0.00000000000E+00  0.00000000000E+00  0.74505805969E-08  0.10566000000E+00  0.10566000000E+00 0.  1.
     999900   -1    0    0    0    0 -0.00000000000E+00 -0.00000000000E+00 -0.74505805969E-08  0.93827000000E+00  0.93827000000E+00 0. -1.
     999902    2    1    2    0    0  0.13871433682E-01  0.15275490328E-01 -0.10272495308E-01  0.10208804569E+01  0.10206202163E+01 0.  0.
     999903    2    3    3    0    0  0.52155080049E-01 -0.11709953856E+00  0.84569142917E-02  0.12995982259E+00  0.19636236509E-01 0.  0.
         14    1    1    2    0    0 -0.13871433682E-01 -0.15275490328E-01  0.10272495308E-01  0.23049543098E-01  0.00000000000E+00 0.  1.
     999901    1    3    3    0    0 -0.38283646367E-01  0.13237502888E+00 -0.18729409600E-01  0.89092063431E+00  0.88000000000E+00 0.  1.
        -11    1    4    4    0    0  0.20235652915E-01 -0.42090145328E-01 -0.62589960925E-02  0.47122161832E-01  0.51100000000E-03 0.  1.
         11    1    4    4    0    0  0.31919427134E-01 -0.75009393229E-01  0.14715910384E-01  0.82837660763E-01  0.51100000000E-03 0. -1.
</event>
<event>
 8    1  0.1109294E+005  0.1043930E+01  0.7957747E-01            NaN
         13   -1    0    0    0    0  0.00000000000E+00  0.00000000000E+00  0.74505805969E-08  0.10566000000E+00  0.10566000000E+00 0.  1.
     999900   -1    0    0    0    0 -0.00000000000E+00 -0.00000000000E+00 -0.74505805969E-08  0.93827000000E+00  0.93827000000E+00 0. -1.
     999902    2    1    2    0    0 -0.22336559206E-01 -0.24071312948E-02 -0.90418584455E-03  0.10214459232E+01  0.10211984334E+01 0.  0.
     999903    2    3    3    0    0 -0.20524609982E-01  0.98533580087E-01 -0.82933383410E-01  0.13188361529E+00  0.19626917188E-01 0.  0.
         14    1    1    2    0    0  0.22336559206E-01  0.24071312948E-02  0.90418584455E-03  0.22484076816E-01  0.00000000000E+00 0. -1.
     999901    1    3    3    0    0 -0.18119492238E-02 -0.10094071138E+00  0.82029197565E-01  0.88956230789E+00  0.88000000000E+00 0.  1.
        -11    1    4    4    0    0 -0.71129256612E-02  0.78710621560E-02 -0.11732309411E-01  0.15825787059E-01  0.51100000000E-03 0. -1.
         11    1    4    4    0    0 -0.13411684321E-01  0.90662517931E-01 -0.71201073998E-01  0.11605782823E+00  0.51100000000E-03 0.  1.
</event>
<event>
 8    1  0.1109294E+005  0.1043930E+01  0.7957747E-01            NaN
         13   -1    0    0    0    0  0.00000000000E+00  0.00000000000E+00  0.74505805969E-08  0.10566000000E+00  0.10566000000E+00 0. -1.
     999900   -1    0    0    0    0 -0.00000000000E+00 -0.00000000000E+00 -0.74505805969E-08  0.93827000000E+00  0.93827000000E+00 0.  1.
     999902    2    1    2    0    0  0.19868332707E-01  0.97209343966E-02  0.99420321298E-02  0.10196794080E+01  0.10193909966E+01 0.  0.
     999903    2    3    3    0    0  0.11710815901E+00 -0.14793251051E-02 -0.56986916528E-01  0.13172641723E+00  0.19693426077E-01 0.  0.
         14    1    1    2    0    0 -0.19868332707E-01 -0.97209343966E-02 -0.99420321298E-02  0.24250592013E-01  0.00000000000E+00 0.  1.
     999901    1    3    3    0    0 -0.97239826302E-01  0.11200259502E-01  0.66928948658E-01  0.88795299076E+00  0.88000000000E+00 0. -1.
        -11    1    4    4    0    0  0.92661189181E-01 -0.34333116475E-03 -0.35753196212E-01  0.99321528468E-01  0.51100000000E-03 0. -1.
         11    1    4    4    0    0  0.24446969828E-01 -0.11359939403E-02 -0.21233720316E-01  0.32404888759E-01  0.51100000000E-03 0.  1.
</event>
<event>
 8    1  0.1109294E+005  0.1043930E+01  0.7957747E-01            NaN
         13   -1    0    0    0    0  0.00000000000E+00  0.00000000000E+00  0.74505805969E-08  0.10566000000E+00  0.10566000000E+00 0.  1.
     999900   -1    0    0    0    0 -0.00000000000E+00 -0.00000000000E+00 -0.74505805969E-08  0.93827000000E+00  0.93827000000E+00 0. -1.
     999902    2    1    2    0    0 -0.21835077294E-01  0.95387276559E-02 -0.35386494430E-02  0.10198409991E+01  0.10195564641E+01 0.  0.
     999903    2    3    3    0    0  0.83236732468E-01 -0.33842083747E-01 -0.89421394412E-01  0.12838274100E+00  0.20305224544E-01 0.  0.
         14    1    1    2    0    0  0.21835077294E-01 -0.95387276559E-02  0.35386494430E-02  0.24089000926E-01  0.00000000000E+00 0. -1.
     999901    1    3    3    0    0 -0.10507180976E+00  0.43380811403E-01  0.85882744969E-01  0.89145825807E+00  0.88000000000E+00 0.  1.
        -11    1    4    4    0    0  0.25748382808E-01 -0.19236602191E-01 -0.38931885206E-01  0.50487413162E-01  0.51100000000E-03 0. -1.
         11    1    4    4    0    0  0.57488349661E-01 -0.14605481555E-01 -0.50489509206E-01  0.77895327838E-01  0.51100000000E-03 0.  1.
</event>
<event>
 8    1  0.1109294E+005  0.1043930E+01  0.7957747E-01            NaN
         13   -1    0    0    0    0  0.00000000000E+00  0.00000000000E+00  0.74505805969E-08  0.10566000000E+00  0.10566000000E+00 0.  1.
     999900   -1    0    0    0    0 -0.00000000000E+00 -0.00000000000E+00 -0.74505805969E-08  0.93827000000E+00  0.93827000000E+00 0. -1.
     999902    2    1    2    0    0 -0.23656601088E-01  0.48161778993E-02 -0.44319967830E-03  0.10197840527E+01  0.10194981547E+01 0.  0.
     999903    2    3    3    0    0 -0.47910785434E-02  0.12796286702E+00  0.23989915709E-01  0.13067326540E+00  0.10126029134E-01 0.  0.
         14    1    1    2    0    0  0.23656601088E-01 -0.48161778993E-02  0.44319967830E-03  0.24145947290E-01  0.00000000000E+00 0. -1.
     999901    1    3    3    0    0 -0.18865522545E-01 -0.12314668912E+00 -0.24433115387E-01  0.88911078731E+00  0.88000000000E+00 0. -1.
        -11    1    4    4    0    0  0.26800601604E-02  0.62224120564E-01  0.11088175516E-01  0.63263201466E-01  0.51100000000E-03 0.  1.
         11    1    4    4    0    0 -0.74711387038E-02  0.65738746452E-01  0.12901740193E-01  0.67410063935E-01  0.51100000000E-03 0. -1.
</event>
<event>
 8    1  0.1109294E+005  0.1043930E+01  0.7957747E-01            NaN
         13   -1    0    0    0    0  0.00000000000E+00  0.00000000000E+00  0.74505805969E-08  0.10566000000E+00  0.10566000000E+00 0. -1.
     999900   -1    0    0    0    0 -0.00000000000E+00 -0.00000000000E+00 -0.74505805969E-08  0.93827000000E+00  0.93827000000E+00 0.  1.
     999902    2    1    2    0    0 -0.15589932179E-02  0.51035879177E-02  0.23784040871E-01  0.10195546504E+01  0.10192632277E+01 0.  0.
     999903    2    3    3    0    0 -0.14083142415E-01  0.95723968479E-01 -0.82222805649E-01  0.12848430567E+00  0.19652327954E-01 0.  0.
         14    1    1    2    0    0  0.15589932179E-02 -0.51035879177E-02 -0.23784040871E-01  0.24375349631E-01  0.00000000000E+00 0.  1.
     999901    1    3    3    0    0  0.12524149197E-01 -0.90620380562E-01  0.10600684652E+00  0.89107034470E+00  0.88000000000E+00 0. -1.
        -11    1    4    4    0    0 -0.75225297675E-02  0.33105670928E-01 -0.40969149002E-01  0.53210019664E-01  0.51100000000E-03 0.  1.
         11    1    4    4    0    0 -0.65606126479E-02  0.62618297552E-01 -0.41253656647E-01  0.75274286010E-01  0.51100000000E-03 0. -1.
</event>
<event>
 8    1  0.1109294E+005  0.1043930E+01  0.7957747E-01            NaN
         13   -1    0    0    0    0  0.00000000000E+00  0.00000000000E+00  0.74505805969E-08  0.10566000000E+00  0.10566000000E+00 0.  1.
     999900   -1    0    0    0    0 -0.00000000000E+00 -0.00000000000E+00 -0.74505805969E-08  0.93827000000E+00  0.93827000000E+00 0. -1.
     999902    2    1    2    0    0 -0.63556790857E-02  0.41941989927E-02  0.22962160341E-01  0.10197381260E+01  0.10194511262E+01 0.  0.
     999903    2    3    3    0    0 -0.60504525117E-01  0.11434857381E+00  0.12054122640E-03  0.13092553414E+00  0.20126774880E-01 0.  0.
         14    1    1    2    0    0  0.63556790857E-02 -0.41941989927E-02 -0.22962160341E-01  0.24191874035E-01  0.00000000000E+00 0. -1.
     999901    1    3    3    0    0  0.54148846032E-01 -0.11015437482E+00  0.22841619114E-01  0.88881259182E+00  0.88000000000E+00 0. -1.
        -11    1    4    4    0    0 -0.31338060884E-02  0.20409773206E-01  0.26397865115E-02  0.20823284485E-01  0.51100000000E-03 0. -1.
         11    1    4    4    0    0 -0.57370719029E-01  0.93938800608E-01 -0.25192452851E-02  0.11010224966E+00  0.51100000000E-03 0.  1.
</event>
<event>
 8    1  0.1109294E+005  0.1043930E+01  0.7957747E-01            NaN
         13   -1    0    0    0    0  0.00000000000E+00  0.00000000000E+00  0.74505805969E-08  0.10566000000E+00  0.10566000000E+00 0.  1.
     999900   -1    0    0    0    0 -0.00000000000E+00 -0.00000000000E+00 -0.74505805969E-08  0.93827000000E+00  0.93827000000E+00 0.  1.
     999902    2    1    2    0    0  0.14385292759E-01 -0.12847866233E-01  0.13643140302E-01  0.10203050219E+01  0.10200314691E+01 0.  0.
     999903    2    3    3    0    0  0.59412649215E-01  0.41844887337E-01  0.10872998924E+00  0.13235216897E+00  0.20347692487E-01 0.  0.
         14    1    1    2    0    0 -0.14385292759E-01  0.12847866233E-01 -0.13643140302E-01  0.23624978134E-01  0.00000000000E+00 0. -1.
     999901    1    3    3    0    0 -0.45027356456E-01 -0.54692753570E-01 -0.95086848934E-01  0.88795285289E+00  0.88000000000E+00 0.  1.
        -11    1    4    4    0    0  0.29836198052E-01  0.16082471310E-01  0.34336950371E-01  0.48250718953E-01  0.51100000000E-03 0.  1.
         11    1    4    4    0    0  0.29576451162E-01  0.25762416027E-01  0.74393038865E-01  0.84101450020E-01  0.51100000000E-03 0. -1.
</event>
<event>
 8    1  0.1109294E+005  0.1043930E+01  0.7957747E-01            NaN
         13   -1    0    0    0    0  0.00000000000E+00  0.00000000000E+00  0.74505805969E-08  0.10566000000E+00  0.10566000000E+00 0. -1.
     999900   -1    0    0    0    0 -0.00000000000E+00 -0.00000000000E+00 -0.74505805969E-08  0.93827000000E+00  0.93827000000E+00 0.  1.
     999902    2    1    2    0    0 -0.20141126795E-01  0.66393263268E-02 -0.10568837045E-01  0.10202351491E+01  0.10199599568E+01 0.  0.
     999903    2    3    3    0    0 -0.27340056152E-01 -0.63038997300E-01 -0.11052524411E+00  0.13181060156E+00  0.20900029832E-01 0.  0.
         14    1    1    2    0    0  0.20141126795E-01 -0.66393263268E-02  0.10568837045E-01  0.23694850899E-01  0.00000000000E+00 0. -1.
     999901    1    3    3    0    0  0.71989293565E-02  0.69678323627E-01  0.99956407061E-01  0.88842454754E+00  0.88000000000E+00 0. -1.
        -11    1    4    4    0    0 -0.16407544406E-01 -0.14190467025E-01 -0.35980323034E-01  0.42016920811E-01  0.51100000000E-03 0.  1.
         11    1    4    4    0    0 -0.10932511746E-01 -0.48848530275E-01 -0.74544921071E-01  0.89793680745E-01  0.51100000000E-03 0. -1.
</event>
<event>
 8    1  0.1109294E+005  0.1043930E+01  0.7957747E-01            NaN
         13   -1    0    0    0    0  0.00000000000E+00  0.00000000000E+00  0.74505805969E-08  0.10566000000E+00  0.10566000000E+00 0.  1.
     999900   -1    0    0    0    0 -0.00000000000E+00 -0.00000000000E+00 -0.74505805969E-08  0.93827000000E+00  0.93827000000E+00 0. -1.
     999902    2    1    2    0    0 -0.14408894693E-01  0.14376671997E-01  0.10429126922E-01  0.10210592407E+01  0.10208030669E+01 0.  0.
     999903    2    3    3    0    0 -0.59988943294E-02  0.42636186423E-01 -0.12183171818E+00  0.13068726256E+00  0.19554076632E-01 0.  0.
         14    1    1    2    0    0  0.14408894693E-01 -0.14376671997E-01 -0.10429126922E-01  0.22870759330E-01  0.00000000000E+00 0.  1.
     999901    1    3    3    0    0 -0.84100003636E-02 -0.28259514426E-01  0.13226084511E+00  0.89037197811E+00  0.88000000000E+00 0.  1.
        -11    1    4    4    0    0  0.28948932286E-02  0.15951808926E-01 -0.24589656200E-01  0.29457646339E-01  0.51100000000E-03 0.  1.
         11    1    4    4    0    0 -0.88937875580E-02  0.26684377497E-01 -0.97242061984E-01  0.10122961622E+00  0.51100000000E-03 0. -1.
</event>
<event>
 8    1  0.1109294E+005  0.1043930E+01  0.7957747E-01            NaN
         13   -1    0    0    0    0  0.00000000000E+00  0.00000000000E+00  0.74505805969E-08  0.10566000000E+00  0.10566000000E+00 0.  1.
     999900   -1    0    0    0    0 -0.00000000000E+00 -0.00000000000E+00 -0.74505805969E-08  0.93827000000E+00  0.93827000000E+00 0. -1.
     999902    2    1    2    0    0 -0.75314719838E-02 -0.77558815583E-02  0.21617945623E-01  0.10197595151E+01  0.10194730287E+01 0.  0.
     999903    2    3    3    0    0  0.66173423872E-01 -0.94075657711E-01  0.61512775385E-01  0.13157309721E+00  0.17277354323E-01 0.  0.
         14    1    1    2    0    0  0.75314719838E-02  0.77558815583E-02 -0.21617945623E-01  0.24170484934E-01  0.00000000000E+00 0. -1.
     999901    1    3    3    0    0 -0.73704895856E-01  0.86319776153E-01 -0.39894829762E-01  0.88818641786E+00  0.88000000000E+00 0. -1.
        -11    1    4    4    0    0  0.25694898951E-01 -0.43392933260E-01  0.18386156666E-01  0.53679478080E-01  0.51100000000E-03 0. -1.
         11    1    4    4    0    0  0.40478524921E-01 -0.50682724451E-01  0.43126618719E-01  0.77893619126E-01  0.51100000000E-03 0.  1.
</event>
<event>
 8    1  0.1109294E+005  0.1043930E+01  0.7957747E-01            NaN
         13   -1    0    0    0    0  0.00000000000E+00  0.00000000000E+00  0.74505805969E-08  0.10566000000E+00  0.10566000000E+00 0. -1.
     999900   -1    0    0    0    0 -0.00000000000E+00 -0.00000000000E+00 -0.74505805969E-08  0.93827000000E+00  0.93827000000E+00 0.  1.
     999902    2    1    2    0    0 -0.16582900810E-01  0.62306307220E-02  0.14780913914E-01  0.10208586157E+01  0.10205978760E+01 0.  0.
     999903    2    3    3    0    0 -0.12941959737E+00  0.24221920844E-02  0.26049059746E-01  0.13357422192E+00  0.20204456162E-01 0.  0.
         14    1    1    2    0    0  0.16582900810E-01 -0.62306307220E-02 -0.14780913914E-01  0.23071384323E-01  0.00000000000E+00 0.  1.
     999901    1    3    3    0    0  0.11283669656E+00  0.38084386375E-02 -0.11268145832E-01  0.88728439376E+00  0.88000000000E+00 0. -1.
        -11    1    4    4    0    0 -0.20748017445E-01  0.52560172685E-02 -0.13915454682E-02  0.21454683993E-01  0.51100000000E-03 0.  1.
         11    1    4    4    0    0 -0.10867157993E+00 -0.28338251841E-02  0.27440605214E-01  0.11211953793E+00  0.51100000000E-03 0. -1.
</event>
<event>
 8    1  0.1109294E+005  0.1043930E+01  0.7957747E-01            NaN
         13   -1    0    0    0    0  0.00000000000E+00  0.00000000000E+00  0.74505805969E-08  0.10566000000E+00  0.10566000000E+00 0. -1.
     999900   -1    0    0    0    0 -0.00000000000E+00 -0.00000000000E+00 -0.74505805969E-08  0.93827000000E+00  0.93827000000E+00 0. -1.
     999902    2    1    2    0    0 -0.10108418018E-01  0.14339042155E-01 -0.10085266891E-01  0.10236938726E+01  0.10234938417E+01 0.  0.
     999903    2    3    3    0    0 -0.88067689052E-01 -0.95990583577E-01  0.17020739195E-01  0.13297224950E+00  0.20537857335E-01 0.  0.
         14    1    1    2    0    0  0.10108418018E-01 -0.14339042155E-01  0.10085266891E-01  0.20236127422E-01  0.00000000000E+00 0. -1.
     999901    1    3    3    0    0  0.77959271034E-01  0.11032962573E+00 -0.27106006086E-01  0.89072162308E+00  0.88000000000E+00 0. -1.
        -11    1    4    4    0    0 -0.58398218961E-01 -0.54734875096E-01  0.18424207277E-01  0.82133860645E-01  0.51100000000E-03 0.  1.
         11    1    4    4    0    0 -0.29669470090E-01 -0.41255708481E-01 -0.14034680822E-02  0.50838388855E-01  0.51100000000E-03 0. -1.
</event>
<event>
 8    1  0.1109294E+005  0.1043930E+01  0.7957747E-01            NaN
         13   -1    0    0    0    0  0.00000000000E+00  0.00000000000E+00  0.74505805969E-08  0.10566000000E+00  0.10566000000E+00 0.  1.
     999900   -1    0    0    0    0 -0.00000000000E+00 -0.00000000000E+00 -0.74505805969E-08  0.93827000000E+00  0.93827000000E+00 0.  1.
     999902    2    1    2    0    0 -0.15691809668E-01 -0.17876975327E-01 -0.47691917787E-02  0.10196696552E+01  0.10193810090E+01 0.  0.
     999903    2    3    3    0    0 -0.23078148523E-01  0.11428561023E+00 -0.50801652876E-01  0.12858015665E+00  0.18927416762E-01 0.  0.
         14    1    1    2    0    0  0.15691809668E-01  0.17876975327E-01  0.47691917787E-02  0.24260344757E-01  0.00000000000E+00 0. -1.
     999901    1    3    3    0    0  0.73863388551E-02 -0.13216258556E+00  0.46032461097E-01  0.89108949859E+00  0.88000000000E+00 0. -1.
        -11    1    4    4    0    0 -0.17013206096E-02  0.54879332591E-01 -0.21373490652E-01  0.58921327727E-01  0.51100000000E-03 0.  1.
         11    1    4    4    0    0 -0.21376827914E-01  0.59406277639E-01 -0.29428162224E-01  0.69658828927E-01  0.51100000000E-03 0. -1.
</event>
<event>
 8    1  0.1109294E+005  0.1043930E+01  0.7957747E-01            NaN
         13   -1    0    0    0    0  0.00000000000E+00  0.00000000000E+00  0.74505805969E-08  0.10566000000E+00  0.10566000000E+00 0. -1.
     999900   -1    0    0    0    0 -0.00000000000E+00 -0.00000000000E+00 -0.74505805969E-08  0.93827000000E+00  0.93827000000E+00 0. -1.
     999902    2    1    2    0    0  0.62786392217E-02  0.18398970790E-01 -0.10254697195E-01  0.10219504129E+01  0.10217140226E+01 0.  0.
     999903    2    3    3    0    0 -0.56735776911E-01  0.11280748753E+00 -0.40628901488E-01  0.13414053627E+00  0.19962419925E-01 0.  0.
         14    1    1    2    0    0 -0.62786392217E-02 -0.18398970790E-01  0.10254697195E-01  0.21979587148E-01  0.00000000000E+00 0. -1.
     999901    1    3    3    0    0  0.63014416132E-01 -0.94408516742E-01  0.30374204293E-01  0.88780987658E+00  0.88000000000E+00 0. -1.
        -11    1    4    4    0    0 -0.18770261631E-01  0.39104673438E-01 -0.41996485182E-02  0.43582064833E-01  0.51100000000E-03 0.  1.
         11    1    4    4    0    0 -0.37965515279E-01  0.73702814094E-01 -0.36429252970E-01  0.90558471436E-01  0.51100000000E-03 0. -1.
</event>
<event>
 8    1  0.1109294E+005  0.1043930E+01  0.7957747E-01            NaN
         13   -1    0    0    0    0  0.00000000000E+00  0.00000000000E+00  0.74505805969E-08  0.10566000000E+00  0.10566000000E+00 0. -1.
     999900   -1    0    0    0    0 -0.00000000000E+00 -0.00000000000E+00 -0.74505805969E-08  0.93827000000E+00  0.93827000000E+00 0. -1.
     999902    2    1    2    0    0 -0.11562763926E-01 -0.87841757726E-02  0.18783301703E-01  0.10201882293E+01  0.10199119332E+01 0.  0.
     999903    2    3    3    0    0  0.88925017115E-01 -0.88752956643E-01  0.30692983642E-01  0.13078694720E+00  0.19453028870E-01 0.  0.
         14    1    1    2    0    0  0.11562763926E-01  0.87841757726E-02 -0.18783301703E-01  0.23741770711E-01  0.00000000000E+00 0.  1.
     999901    1    3    3    0    0 -0.10048778104E+00  0.79968780870E-01 -0.11909681939E-01  0.88940128209E+00  0.88000000000E+00 0.  1.
        -11    1    4    4    0    0  0.40173392803E-01 -0.27589504535E-01  0.84127761000E-02  0.49458246759E-01  0.51100000000E-03 0.  1.
         11    1    4    4    0    0  0.48751624311E-01 -0.61163452108E-01  0.22280207542E-01  0.81328700444E-01  0.51100000000E-03 0. -1.
</event>
<event>
 8    1  0.1109294E+005  0.1043930E+01  0.7957747E-01            NaN
         13   -1    0    0    0    0  0.00000000000E+00  0.00000000000E+00  0.74505805969E-08  0.10566000000E+00  0.10566000000E+00 0. -1.
     999900   -1    0    0    0    0 -0.00000000000E+00 -0.00000000000E+00 -0.74505805969E-08  0.93827000000E+00  0.93827000000E+00 0.  1.
     999902    2    1    2    0    0 -0.30609820749E-02 -0.40025604390E-02 -0.22925945246E-01  0.10204568437E+01  0.10201868362E+01 0.  0.
     999903    2    3    3    0    0  0.86851023890E-01  0.94907958193E-01 -0.32858952428E-02  0.13014611644E+00  0.19406020639E-01 0.  0.
         14    1    1    2    0    0  0.30609820749E-02  0.40025604390E-02  0.22925945246E-01  0.23473156301E-01  0.00000000000E+00 0. -1.
     999901    1    3    3    0    0 -0.89912005965E-01 -0.98910518632E-01 -0.19640050003E-01  0.89031072726E+00  0.88000000000E+00 0.  1.
        -11    1    4    4    0    0  0.71143690705E-02  0.17821172225E-01 -0.29130504598E-03  0.19197770870E-01  0.51100000000E-03 0.  1.
         11    1    4    4    0    0  0.79736654819E-01  0.77086785968E-01 -0.29945901968E-02  0.11094834557E+00  0.51100000000E-03 0. -1.
</event>
<event>
 8    1  0.1109294E+005  0.1043930E+01  0.7957747E-01            NaN
         13   -1    0    0    0    0  0.00000000000E+00  0.00000000000E+00  0.74505805969E-08  0.10566000000E+00  0.10566000000E+00 0.  1.
     999900   -1    0    0    0    0 -0.00000000000E+00 -0.00000000000E+00 -0.74505805969E-08  0.93827000000E+00  0.93827000000E+00 0. -1.
     999902    2    1    2    0    0  0.51918749939E-02  0.20593180302E-01 -0.10853431475E-01  0.10200798089E+01  0.10198009536E+01 0.  0.
     999903    2    3    3    0    0 -0.88545067244E-01 -0.43864932606E-01  0.79546234724E-01  0.12816413894E+00  0.18277904873E-01 0.  0.
         14    1    1    2    0    0 -0.51918749939E-02 -0.20593180302E-01  0.10853431475E-01  0.23850191104E-01  0.00000000000E+00 0.  1.
     999901    1    3    3    0    0  0.93736942238E-01  0.64458112908E-01 -0.90399666199E-01  0.89191566995E+00  0.88000000000E+00 0. -1.
        -11    1    4    4    0    0 -0.31606375600E-01 -0.14080121271E-01  0.39195297397E-01  0.52285229775E-01  0.51100000000E-03 0.  1.
         11    1    4    4    0    0 -0.56938691644E-01 -0.29784811335E-01  0.40350937326E-01  0.75878909168E-01  0.51100000000E-03 0. -1.
</event>
<event>
 8    1  0.1109294E+005  0.1043930E+01  0.7957747E-01            NaN
         13   -1    0    0    0    0  0.00000000000E+00  0.00000000000E+00  0.74505805969E-08  0.10566000000E+00  0.10566000000E+00 0.  1.
     999900   -1    0    0    0    0 -0.00000000000E+00 -0.00000000000E+00 -0.74505805969E-08  0.93827000000E+00  0.93827000000E+00 0. -1.
     999902    2    1    2    0    0  0.18308164827E-01  0.10240462103E-01 -0.10903675167E-01  0.10202879592E+01  0.10200140065E+01 0.  0.
     999903    2    3    3    0    0  0.11847286772E+00  0.53797632097E-01  0.17963715650E-01  0.13306559637E+00  0.21301461292E-01 0.  0.
         14    1    1    2    0    0 -0.18308164827E-01 -0.10240462103E-01  0.10903675167E-01  0.23642040850E-01  0.00000000000E+00 0.  1.
     999901    1    3    3    0    0 -0.10016470289E+00 -0.43557169994E-01 -0.28867390817E-01  0.88722236278E+00  0.88000000000E+00 0. -1.
        -11    1    4    4    0    0  0.39564044933E-01  0.21387747506E-01 -0.34566407162E-02  0.45110518517E-01  0.51100000000E-03 0. -1.
         11    1    4    4    0    0  0.78908822784E-01  0.32409884591E-01  0.21420356367E-01  0.87955077854E-01  0.51100000000E-03 0.  1.
</event>
<event>
 8    1  0.1109294E+005  0.1043930E+01  0.7957747E-01            NaN
         13   -1    0    0    0    0  0.00000000000E+00  0.00000000000E+00  0.74505805969E-08  0.10566000000E+00  0.10566000000E+00 0. -1.
     999900   -1    0    0    0    0 -0.00000000000E+00 -0.00000000000E+00 -0.74505805969E-08  0.93827000000E+00  0.93827000000E+00 0. -1.
     999902    2    1    2    0    0  0.23973005337E-01  0.68582473855E-03 -0.56198784940E-02  0.10192975341E+01  0.10189998551E+01 0.  0.
     999903    2    3    3    0    0 -0.69802103246E-01  0.17113424560E-01  0.10338255094E+00  0.12747627029E+00  0.19925981240E-01 0.  0.
         14    1    1    2    0    0 -0.23973005337E-01 -0.68582473855E-03  0.56198784940E-02  0.24632465868E-01  0.00000000000E+00 0.  1.
     999901    1    3    3    0    0  0.93775108583E-01 -0.16427599821E-01 -0.10900242944E+00  0.89182126385E+00  0.88000000000E+00 0.  1.
        -11    1    4    4    0    0 -0.29424018564E-01 -0.79682665481E-03  0.51635531652E-01  0.59438178397E-01  0.51100000000E-03 0. -1.
         11    1    4    4    0    0 -0.40378084682E-01  0.17910251215E-01  0.51747019292E-01  0.68038091888E-01  0.51100000000E-03 0.  1.
</event>
<event>
 8    1  0.1109294E+005  0.1043930E+01  0.7957747E-01            NaN
         13   -1    0    0    0    0  0.00000000000E+00  0.00000000000E+00  0.74505805969E-08  0.10566000000E+00  0.10566000000E+00 0.  1.
     999900   -1    0    0    0    0 -0.00000000000E+00 -0.00000000000E+00 -0.74505805969E-08  0.93827000000E+00  0.93827000000E+00 0. -1.
     999902    2    1    2    0    0 -0.12586741073E-01  0.98949947840E-02  0.18084400780E-01  0.10197766871E+01  0.10194906125E+01 0.  0.
     999903    2    3    3    0    0  0.97230582306E-01  0.68080648088E-01  0.49990111458E-01  0.13047168366E+00  0.20858768270E-01 0.  0.
         14    1    1    2    0    0  0.12586741073E-01 -0.98949947840E-02 -0.18084400780E-01  0.24153312903E-01  0.00000000000E+00 0. -1.
     999901    1    3    3    0    0 -0.10981732338E+00 -0.58185653304E-01 -0.31905710678E-01  0.88930500344E+00  0.88000000000E+00 0. -1.
        -11    1    4    4    0    0  0.57199885896E-01  0.49030986482E-01  0.38809443910E-01  0.84748443287E-01  0.51100000000E-03 0. -1.
         11    1    4    4    0    0  0.40030696410E-01  0.19049661606E-01  0.11180667548E-01  0.45723240373E-01  0.51100000000E-03 0.  1.
</event>
<event>
 8    1  0.1109294E+005  0.1043930E+01  0.7957747E-01            NaN
         13   -1    0    0    0    0  0.00000000000E+00  0.00000000000E+00  0.74505805969E-08  0.10566000000E+00  0.10566000000E+00 0. -1.
     999900   -1    0    0    0    0 -0.00000000000E+00 -0.00000000000E+00 -0.74505805969E-08  0.93827000000E+00  0.93827000000E+00 0. -1.
     999902    2    1    2    0    0 -0.20289673942E-01 -0.25486296413E-02 -0.12054545432E-01  0.10201922990E+01  0.10199160988E+01 0.  0.
     999903    2    3    3    0    0 -0.88089331866E-01  0.23811163596E-01  0.91866988057E-01  0.13109651261E+00  0.20495126805E-01 0.  0.
         14    1    1    2    0    0  0.20289673942E-01  0.25486296413E-02  0.12054545432E-01  0.23737700969E-01  0.00000000000E+00 0. -1.
     999901    1    3    3    0    0  0.67799657923E-01 -0.26359793238E-01 -0.10392153349E+00  0.88909578642E+00  0.88000000000E+00 0. -1.
        -11    1    4    4    0    0 -0.26944559390E-01  0.72873113531E-02  0.15682742091E-01  0.32020676257E-01  0.51100000000E-03 0.  1.
         11    1    4    4    0    0 -0.61144772476E-01  0.16523852243E-01  0.76184245965E-01  0.99075836350E-01  0.51100000000E-03 0. -1.
</event>
<event>
 8    1  0.1109294E+005  0.1043930E+01  0.7957747E-01            NaN
         13   -1    0    0    0    0  0.00000000000E+00  0.00000000000E+00  0.74505805969E-08  0.10566000000E+00  0.10566000000E+00 0. -1.
     999900   -1    0    0    0    0 -0.00000000000E+00 -0.00000000000E+00 -0.74505805969E-08  0.93827000000E+00  0.93827000000E+00 0. -1.
     999902    2    1    2    0    0  0.89693956779E-02  0.95983395431E-02 -0.19052947385E-01  0.10207871181E+01  0.10205247412E+01 0.  0.
     999903    2    3    3    0    0 -0.12784904525E+00  0.51593542915E-02 -0.23581660060E-02  0.13004714135E+00  0.23123596567E-01 0.  0.
         14    1    1    2    0    0 -0.89693956779E-02 -0.95983395431E-02  0.19052947385E-01  0.23142881948E-01  0.00000000000E+00 0.  1.
     999901    1    3    3    0    0  0.13681844093E+00  0.44389852516E-02 -0.16694781379E-01  0.89073997670E+00  0.88000000000E+00 0. -1.
        -11    1    4    4    0    0 -0.35711295903E-01  0.11594110724E-01  0.17693221478E-02  0.37591377740E-01  0.51100000000E-03 0. -1.
         11    1    4    4    0    0 -0.92137749349E-01 -0.64347564322E-02 -0.41274881537E-02  0.92455763611E-01  0.51100000000E-03 0.  1.
</event>
<event>
 8    1  0.1109294E+005  0.1043930E+01  0.7957747E-01            NaN
         13   -1    0    0    0    0  0.00000000000E+00  0.00000000000E+00  0.74505805969E-08  0.10566000000E+00  0.10566000000E+00 0.  1.
     999900   -1    0    0    0    0 -0.00000000000E+00 -0.00000000000E+00 -0.74505805969E-08  0.93827000000E+00  0.93827000000E+00 0. -1.
     999902    2    1    2    0    0  0.12761546007E-01 -0.16287302893E-01 -0.42088863131E-02  0.10228148865E+01  0.10225969119E+01 0.  0.
     999903    2    3    3    0    0  0.69805238820E-01  0.89204572143E-01  0.63298500885E-01  0.13211866117E+00  0.24867918206E-01 0.  0.
         14    1    1    2    0    0 -0.12761546007E-01  0.16287302893E-01  0.42088863131E-02  0.21115113450E-01  0.00000000000E+00 0. -1.
     999901    1    3    3    0    0 -0.57043692813E-01 -0.10549187504E+00 -0.67507387198E-01  0.89069622538E+00  0.88000000000E+00 0. -1.
        -11    1    4    4    0    0  0.17633887740E-01  0.32282563618E-01  0.94548994370E-02  0.37983867035E-01  0.51100000000E-03 0. -1.
         11    1    4    4    0    0  0.52171351081E-01  0.56922008525E-01  0.53843601448E-01  0.94134794130E-01  0.51100000000E-03 0.  1.
</event>
<event>
 8    1  0.1109294E+005  0.1043930E+01  0.7957747E-01            NaN
         13   -1    0    0    0    0  0.00000000000E+00  0.00000000000E+00  0.74505805969E-08  0.10566000000E+00  0.10566000000E+00 0.  1.
     999900   -1    0    0    0    0 -0.00000000000E+00 -0.00000000000E+00 -0.74505805969E-08  0.93827000000E+00  0.93827000000E+00 0. -1.
     999902    2    1    2    0    0 -0.78888081532E-02  0.75982406208E-02 -0.21556844309E-01  0.10197501718E+01  0.10194634612E+01 0.  0.
     999903    2    3    3    0    0 -0.11456330750E+00  0.34903440166E-01 -0.52032431450E-01  0.13236424441E+00  0.21677585555E-01 0.  0.
         14    1    1    2    0    0  0.78888081532E-02 -0.75982406208E-02  0.21556844309E-01  0.24179828187E-01  0.00000000000E+00 0. -1.
     999901    1    3    3    0    0  0.10667449935E+00 -0.27305199545E-01  0.30475587141E-01  0.88738592740E+00  0.88000000000E+00 0.  1.
        -11    1    4    4    0    0 -0.90521329222E-01  0.18275614955E-01 -0.42035344204E-01  0.10146595700E+00  0.51100000000E-03 0.  1.
         11    1    4    4    0    0 -0.24041978280E-01  0.16627825211E-01 -0.99970872464E-02  0.30898287416E-01  0.51100000000E-03 0. -1.
</event>
<event>
 8    1  0.1109294E+005  0.1043930E+01  0.7957747E-01            NaN
         13   -1    0    0    0    0  0.00000000000E+00  0.00000000000E+00  0.74505805969E-08  0.10566000000E+00  0.10566000000E+00 0. -1.
     999900   -1    0    0    0    0 -0.00000000000E+00 -0.00000000000E+00 -0.74505805969E-08  0.93827000000E+00  0.93827000000E+00 0.  1.
     999902    2    1    2    0    0 -0.16236988558E-01  0.91706492913E-02  0.17807323760E-01  0.10181454817E+01  0.10178189330E+01 0.  0.
     999903    2    3    3    0    0 -0.13635763572E-01  0.87666409340E-01 -0.90147497749E-01  0.12807661119E+00  0.20142333743E-01 0.  0.
         14    1    1    2    0    0  0.16236988558E-01 -0.91706492913E-02 -0.17807323760E-01  0.25784518327E-01  0.00000000000E+00 0.  1.
     999901    1    3    3    0    0 -0.26012249855E-02 -0.78495760048E-01  0.10795482151E+00  0.89006887048E+00  0.88000000000E+00 0. -1.
        -11    1    4    4    0    0 -0.25343739304E-02  0.67812311675E-01 -0.62363331536E-01  0.92164954875E-01  0.51100000000E-03 0.  1.
         11    1    4    4    0    0 -0.11101389642E-01  0.19854097665E-01 -0.27784166213E-01  0.35911656314E-01  0.51100000000E-03 0. -1.
</event>
<event>
 8    1  0.1109294E+005  0.1043930E+01  0.7957747E-01            NaN
         13   -1    0    0    0    0  0.00000000000E+00  0.00000000000E+00  0.74505805969E-08  0.10566000000E+00  0.10566000000E+00 0. -1.
     999900   -1    0    0    0    0 -0.00000000000E+00 -0.00000000000E+00 -0.74505805969E-08  0.93827000000E+00  0.93827000000E+00 0.  1.
     999902    2    1    2    0    0 -0.15964226657E-01 -0.12391507316E-01  0.12301513750E-01  0.10202713182E+01  0.10199969752E+01 0.  0.
     999903    2    3    3    0    0 -0.36495552103E-01 -0.12011955694E+00 -0.35353031591E-01  0.13218470994E+00  0.21501800278E-01 0.  0.
         14    1    1    2    0    0  0.15964226657E-01  0.12391507316E-01 -0.12301513750E-01  0.23658681849E-01  0.00000000000E+00 0.  1.
     999901    1    3    3    0    0  0.20531325446E-01  0.10772804962E+00  0.47654545341E-01  0.88808660822E+00  0.88000000000E+00 0. -1.
        -11    1    4    4    0    0 -0.18674944942E-01 -0.86411660860E-01 -0.17690563834E-01  0.90160666984E-01  0.51100000000E-03 0. -1.
         11    1    4    4    0    0 -0.17820607161E-01 -0.33707896080E-01 -0.17662467757E-01  0.42024042951E-01  0.51100000000E-03 0.  1.
</event>
<event>
 8    1  0.1109294E+005  0.1043930E+01  0.7957747E-01            NaN
         13   -1    0    0    0    0  0.00000000000E+00  0.00000000000E+00  0.74505805969E-08  0.10566000000E+00  0.10566000000E+00 0.  1.
     999900   -1    0    0    0    0 -0.00000000000E+00 -0.00000000000E+00 -0.74505805969E-08  0.93827000000E+00  0.93827000000E+00 0.  1.
     999902    2    1    2    0    0  0.12705525203E-01  0.28527325742E-01 -0.19410287519E-02  0.10126409240E+01  0.10121574160E+01 0.  0.
     999903    2    3    3    0    0  0.12114748760E+00 -0.19503064364E-01  0.97091974361E-02  0.12460809501E+00  0.19386220761E-01 0.  0.
         14    1    1    2    0    0 -0.12705525203E-01 -0.28527325742E-01  0.19410287519E-02  0.31289076005E-01  0.00000000000E+00 0.  1.
     999901    1    3    3    0    0 -0.10844196240E+00  0.48030390106E-01 -0.11650226188E-01  0.88803282898E+00  0.88000000000E+00 0. -1.
        -11    1    4    4    0    0  0.80629605499E-01 -0.60350706222E-02  0.12495654504E-01  0.81816611167E-01  0.51100000000E-03 0. -1.
         11    1    4    4    0    0  0.40517882104E-01 -0.13467993742E-01 -0.27864570680E-02  0.42791483844E-01  0.51100000000E-03 0.  1.
</event>
<event>
 8    1  0.1109294E+005  0.1043930E+01  0.7957747E-01            NaN
         13   -1    0    0    0    0  0.00000000000E+00  0.00000000000E+00  0.74505805969E-08  0.10566000000E+00  0.10566000000E+00 0.  1.
     999900   -1    0    0    0    0 -0.00000000000E+00 -0.00000000000E+00 -0.74505805969E-08  0.93827000000E+00  0.93827000000E+00 0. -1.
     999902    2    1    2    0    0  0.14021430493E-01  0.15718466655E-01  0.10492327649E-01  0.10203979018E+01  0.10201265207E+01 0.  0.
     999903    2    3    3    0    0  0.39759118463E-01 -0.11971810868E+00  0.21754174093E-01  0.12959358898E+00  0.20200028874E-01 0.  0.
         14    1    1    2    0    0 -0.14021430493E-01 -0.15718466655E-01 -0.10492327649E-01  0.23532098218E-01  0.00000000000E+00 0. -1.
     999901    1    3    3    0    0 -0.25737687970E-01  0.13543657534E+00 -0.11261846444E-01  0.89080431280E+00  0.88000000000E+00 0. -1.
        -11    1    4    4    0    0  0.26430777580E-01 -0.10234630599E+00  0.15653388789E-01  0.10685804628E+00  0.51100000000E-03 0. -1.
         11    1    4    4    0    0  0.13328340883E-01 -0.17371802692E-01  0.61007853037E-02  0.22735542698E-01  0.51100000000E-03 0.  1.
</event>
<event>
 8    1  0.1109294E+005  0.1043930E+01  0.7957747E-01            NaN
         13   -1    0    0    0    0  0.00000000000E+00  0.00000000000E+00  0.74505805969E-08  0.10566000000E+00  0.10566000000E+00 0. -1.
     999900   -1    0    0    0    0 -0.00000000000E+00 -0.00000000000E+00 -0.74505805969E-08  0.93827000000E+00  0.93827000000E+00 0. -1.
     999902    2    1    2    0    0 -0.90663027712E-02 -0.22838927720E-01  0.14599563833E-02  0.10193140308E+01  0.10190167553E+01 0.  0.
     999903    2    3    3    0    0 -0.12245215919E+00  0.24570452912E-01 -0.32222716190E-01  0.13013546371E+00  0.17282853631E-01 0.  0.
         14    1    1    2    0    0  0.90663027712E-02  0.22838927720E-01 -0.14599563833E-02  0.24615969166E-01  0.00000000000E+00 0.  1.
     999901    1    3    3    0    0  0.11338585642E+00 -0.47409380632E-01  0.33682672573E-01  0.88917856713E+00  0.88000000000E+00 0. -1.
        -11    1    4    4    0    0 -0.20090959988E-01  0.94648844503E-02 -0.18140462433E-02  0.22288620317E-01  0.51100000000E-03 0.  1.
         11    1    4    4    0    0 -0.10236119920E+00  0.15105568462E-01 -0.30408669946E-01  0.10784684339E+00  0.51100000000E-03 0. -1.
</event>
<event>
 8    1  0.1109294E+005  0.1043930E+01  0.7957747E-01            NaN
         13   -1    0    0    0    0  0.00000000000E+00  0.00000000000E+00  0.74505805969E-08  0.10566000000E+00  0.10566000000E+00 0.  1.
     999900   -1    0    0    0    0 -0.00000000000E+00 -0.00000000000E+00 -0.74505805969E-08  0.93827000000E+00  0.93827000000E+00 0. -1.
     999902    2    1    2    0    0 -0.52166975838E-02 -0.15940571902E-01  0.17389061330E-01  0.10197702148E+01  0.10194839851E+01 0.  0.
     999903    2    3    3    0    0 -0.46186805474E-01  0.11627698546E+00  0.23417320429E-01  0.12892995297E+00  0.20518370520E-01 0.  0.
         14    1    1    2    0    0  0.52166975838E-02  0.15940571902E-01 -0.17389061330E-01  0.24159785185E-01  0.00000000000E+00 0. -1.
     999901    1    3    3    0    0  0.40970107890E-01 -0.13221755736E+00 -0.60282590991E-02  0.89084026184E+00  0.88000000000E+00 0.  1.
        -11    1    4    4    0    0 -0.20258188013E-01  0.34259497179E-01  0.14851840170E-01  0.42484651416E-01  0.51100000000E-03 0.  1.
         11    1    4    4    0    0 -0.25928617461E-01  0.82017488284E-01  0.85654802591E-02  0.86445301555E-01  0.51100000000E-03 0. -1.
</event>
<event>
 8    1  0.1109294E+005  0.1043930E+01  0.7957747E-01            NaN
         13   -1    0    0    0    0  0.00000000000E+00  0.00000000000E+00  0.74505805969E-08  0.10566000000E+00  0.10566000000E+00 0.  1.
     999900   -1    0    0    0    0 -0.00000000000E+00 -0.00000000000E+00 -0.74505805969E-08  0.93827000000E+00  0.93827000000E+00 0. -1.
     999902    2    1    2    0    0  0.12320538770E-02 -0.77152027496E-02  0.19274666698E-01  0.10231320413E+01  0.10229206317E+01 0.  0.
     999903    2    3    3    0    0 -0.42547995455E-01 -0.58986307941E-01 -0.10773101382E+00  0.13146177610E+00  0.19659877790E-01 0.  0.
         14    1    1    2    0    0 -0.12320538770E-02  0.77152027496E-02 -0.19274666698E-01  0.20797958711E-01  0.00000000000E+00 0. -1.
     999901    1    3    3    0    0  0.43780049332E-01  0.51271105192E-01  0.12700568051E+00  0.89167026519E+00  0.88000000000E+00 0.  1.
        -11    1    4    4    0    0 -0.55522110686E-02 -0.11249993781E-01 -0.33430871161E-01  0.35710974159E-01  0.51100000000E-03 0.  1.
         11    1    4    4    0    0 -0.36995784387E-01 -0.47736314160E-01 -0.74300142654E-01  0.95750801936E-01  0.51100000000E-03 0. -1.
</event>
<event>
 8    1  0.1109294E+005  0.1043930E+01  0.7957747E-01            NaN
         13   -1    0    0    0    0  0.00000000000E+00  0.00000000000E+00  0.74505805969E-08  0.10566000000E+00  0.10566000000E+00 0.  1.
     999900   -1    0    0    0    0 -0.00000000000E+00 -0.00000000000E+00 -0.74505805969E-08  0.93827000000E+00  0.93827000000E+00 0. -1.
     999902    2    1    2    0    0 -0.76794741862E-02 -0.81472698875E-02  0.21525568685E-01  0.10196668090E+01  0.10193780942E+01 0.  0.
     999903    2    3    3    0    0 -0.10790191311E+00  0.52569083600E-01 -0.43740768119E-01  0.12950350512E+00  0.21250215060E-01 0.  0.
         14    1    1    2    0    0  0.76794741862E-02  0.81472698875E-02 -0.21525568685E-01  0.24263191002E-01  0.00000000000E+00 0. -1.
     999901    1    3    3    0    0  0.10022243892E+00 -0.60716353488E-01  0.65266336804E-01  0.89016330387E+00  0.88000000000E+00 0.  1.
        -11    1    4    4    0    0 -0.29452019997E-01  0.17131864074E-01 -0.22511380099E-01  0.40840489756E-01  0.51100000000E-03 0. -1.
         11    1    4    4    0    0 -0.78449893114E-01  0.35437219526E-01 -0.21229388019E-01  0.88663015367E-01  0.51100000000E-03 0.  1.
</event>
<event>
 8    1  0.1109294E+005  0.1043930E+01  0.7957747E-01            NaN
         13   -1    0    0    0    0  0.00000000000E+00  0.00000000000E+00  0.74505805969E-08  0.10566000000E+00  0.10566000000E+00 0.  1.
     999900   -1    0    0    0    0 -0.00000000000E+00 -0.00000000000E+00 -0.74505805969E-08  0.93827000000E+00  0.93827000000E+00 0. -1.
     999902    2    1    2    0    0 -0.21908493587E-01 -0.95184498524E-02 -0.17440259337E-02  0.10199795385E+01  0.10196983056E+01 0.  0.
     999903    2    3    3    0    0 -0.26732247032E-01  0.12482355807E+00  0.11602062790E-01  0.12967107412E+00  0.19607292546E-01 0.  0.
         14    1    1    2    0    0  0.21908493587E-01  0.95184498524E-02  0.17440259337E-02  0.23950461484E-01  0.00000000000E+00 0. -1.
     999901    1    3    3    0    0  0.48237534451E-02 -0.13434200793E+00 -0.13346088723E-01  0.89030846440E+00  0.88000000000E+00 0. -1.
        -11    1    4    4    0    0 -0.73568288445E-02  0.28955682881E-01  0.11062252091E-01  0.31862031386E-01  0.51100000000E-03 0.  1.
         11    1    4    4    0    0 -0.19375418187E-01  0.95867875193E-01  0.53981069865E-03  0.97809042734E-01  0.51100000000E-03 0. -1.
</event>
<event>
 8    1  0.1109294E+005  0.1043930E+01  0.7957747E-01            NaN
         13   -1    0    0    0    0  0.00000000000E+00  0.00000000000E+00  0.74505805969E-08  0.10566000000E+00  0.10566000000E+00 0.  1.
     999900   -1    0    0    0    0 -0.00000000000E+00 -0.00000000000E+00 -0.74505805969E-08  0.93827000000E+00  0.93827000000E+00 0.  1.
     999902    2    1    2    0    0 -0.21314122448E-02  0.34659775814E-03 -0.24408453920E-01  0.10194262111E+01  0.10191316717E+01 0.  0.
     999903    2    3    3    0    0 -0.81172042232E-01 -0.37359107359E-01 -0.95328388866E-01  0.13224033510E+00  0.20381392495E-01 0.  0.
         14    1    1    2    0    0  0.21314122448E-02 -0.34659775814E-03  0.24408453920E-01  0.24503788910E-01  0.00000000000E+00 0.  1.
     999901    1    3    3    0    0  0.79040629988E-01  0.37705705118E-01  0.70919934946E-01  0.88718587599E+00  0.88000000000E+00 0. -1.
        -11    1    4    4    0    0 -0.20840558830E-01 -0.22316505223E-02 -0.14806987880E-01  0.25667433987E-01  0.51100000000E-03 0. -1.
         11    1    4    4    0    0 -0.60331483403E-01 -0.35127456837E-01 -0.80521400986E-01  0.10657290111E+00  0.51100000000E-03 0.  1.
</event>
<event>
 8    1  0.1109294E+005  0.1043930E+01  0.7957747E-01            NaN
         13   -1    0    0    0    0  0.00000000000E+00  0.00000000000E+00  0.74505805969E-08  0.10566000000E+00  0.10566000000E+00 0. -1.
     999900   -1    0    0    0    0 -0.00000000000E+00 -0.00000000000E+00 -0.74505805969E-08  0.93827000000E+00  0.93827000000E+00 0.  1.
     999902    2    1    2    0    0 -0.13308140646E-01  0.18677034135E-02 -0.18922158514E-01  0.10207213161E+01  0.10204574279E+01 0.  0.
     999903    2    3    3    0    0  0.10415343927E+00  0.40705696517E-01 -0.65511826269E-01  0.13084704997E+00  0.18007178122E-01 0.  0.
         14    1    1    2    0    0  0.13308140646E-01 -0.18677034135E-02  0.18922158514E-01  0.23208683856E-01  0.00000000000E+00 0.  1.
     999901    1    3    3    0    0 -0.11746157991E+00 -0.38837993104E-01  0.46589667755E-01  0.88987426618E+00  0.88000000000E+00 0.  1.
        -11    1    4    4    0    0  0.55629747861E-01  0.30088044520E-01 -0.31609658271E-01  0.70706370909E-01  0.51100000000E-03 0. -1.
         11    1    4    4    0    0  0.48523691405E-01  0.10617651997E-01 -0.33902167998E-01  0.60140679057E-01  0.51100000000E-03 0.  1.
</event>
<event>
 8    1  0.1109294E+005  0.1043930E+01  0.7957747E-01            NaN
         13   -1    0    0    0    0  0.00000000000E+00  0.00000000000E+00  0.74505805969E-08  0.10566000000E+00  0.10566000000E+00 0. -1.
     999900   -1    0    0    0    0 -0.00000000000E+00 -0.00000000000E+00 -0.74505805969E-08  0.93827000000E+00  0.93827000000E+00 0. -1.
     999902    2    1    2    0    0 -0.12150528597E-03  0.21686266009E-01 -0.78761585859E-02  0.10208574455E+01  0.10205966790E+01 0.  0.
     999903    2    3    3    0    0 -0.53090005268E-01  0.11658729115E+00 -0.33438289894E-01  0.13380316919E+00  0.19339693312E-01 0.  0.
         14    1    1    2    0    0  0.12150528597E-03 -0.21686266009E-01  0.78761585859E-02  0.23072554497E-01  0.00000000000E+00 0. -1.
     999901    1    3    3    0    0  0.52968499982E-01 -0.94901025144E-01  0.25562131308E-01  0.88705427631E+00  0.88000000000E+00 0.  1.
        -11    1    4    4    0    0 -0.50958586779E-01  0.10804708579E+00 -0.25979436270E-01  0.12225441728E+00  0.51100000000E-03 0.  1.
         11    1    4    4    0    0 -0.21314184891E-02  0.85402053656E-02 -0.74588536236E-02  0.11548751917E-01  0.51100000000E-03 0. -1.
</event>
<event>
 8    1  0.1109294E+005  0.1043930E+01  0.7957747E-01            NaN
         13   -1    0    0    0    0  0.00000000000E+00  0.00000000000E+00  0.74505805969E-08  0.10566000000E+00  0.10566000000E+00 0. -1.
     999900   -1    0    0    0    0 -0.00000000000E+00 -0.00000000000E+00 -0.74505805969E-08  0.93827000000E+00  0.93827000000E+00 0.  1.
     999902    2    1    2    0    0 -0.22976512964E-02 -0.21851078315E-01  0.95772401126E-02  0.10199618471E+01  0.10196801936E+01 0.  0.
     999903    2    3    3    0    0 -0.49705372771E-01 -0.10075900117E+00  0.68546765672E-01  0.13319730266E+00  0.20490533209E-01 0.  0.
         14    1    1    2    0    0  0.22976512964E-02  0.21851078315E-01 -0.95772401126E-02  0.23968152895E-01  0.00000000000E+00 0.  1.
     999901    1    3    3    0    0  0.47407721474E-01  0.78907922859E-01 -0.58969525560E-01  0.88676454445E+00  0.88000000000E+00 0.  1.
        -11    1    4    4    0    0 -0.28617683047E-01 -0.35497528998E-01  0.26151505761E-01  0.52566231770E-01  0.51100000000E-03 0.  1.
         11    1    4    4    0    0 -0.21087689724E-01 -0.65261472176E-01  0.42395259912E-01  0.80631070888E-01  0.51100000000E-03 0. -1.
</event>
<event>
 8    1  0.1109294E+005  0.1043930E+01  0.7957747E-01            NaN
         13   -1    0    0    0    0  0.00000000000E+00  0.00000000000E+00  0.74505805969E-08  0.10566000000E+00  0.10566000000E+00 0.  1.
     999900   -1    0    0    0    0 -0.00000000000E+00 -0.00000000000E+00 -0.74505805969E-08  0.93827000000E+00  0.93827000000E+00 0. -1.
     999902    2    1    2    0    0 -0.69728960485E-02 -0.22726884848E-02  0.22035637543E-01  0.10207059669E+01  0.10204417255E+01 0.  0.
     999903    2    3    3    0    0  0.11495483219E+00 -0.42175962618E-01  0.42626425058E-01  0.13116528612E+00  0.19846785702E-01 0.  0.
         14    1    1    2    0    0  0.69728960485E-02  0.22726884848E-02 -0.22035637543E-01  0.23224033116E-01  0.00000000000E+00 0. -1.
     999901    1    3    3    0    0 -0.12192772824E+00  0.39903274133E-01 -0.20590787515E-01  0.88954068076E+00  0.88000000000E+00 0. -1.
        -11    1    4    4    0    0  0.61229482168E-01 -0.14715359817E-01  0.14651280917E-01  0.64656882500E-01  0.51100000000E-03 0. -1.
         11    1    4    4    0    0  0.53725350026E-01 -0.27460602801E-01  0.27975144142E-01  0.66508403622E-01  0.51100000000E-03 0.  1.
</event>
<event>
 8    1  0.1109294E+005  0.1043930E+01  0.7957747E-01            NaN
         13   -1    0    0    0    0  0.00000000000E+00  0.00000000000E+00  0.74505805969E-08  0.10566000000E+00  0.10566000000E+00 0.  1.
     999900   -1    0    0    0    0 -0.00000000000E+00 -0.00000000000E+00 -0.74505805969E-08  0.93827000000E+00  0.93827000000E+00 0. -1.
     999902    2    1    2    0    0  0.16511424328E-01 -0.11973090497E-01 -0.13645791589E-01  0.10193904471E+01  0.10190950368E+01 0.  0.
     999903    2    3    3    0    0  0.95626628181E-01  0.64792348468E-01 -0.59118230383E-01  0.13134771681E+00  0.20365586408E-01 0.  0.
         14    1    1    2    0    0 -0.16511424328E-01  0.11973090497E-01  0.13645791589E-01  0.24539552919E-01  0.00000000000E+00 0.  1.
     999901    1    3    3    0    0 -0.79115203853E-01 -0.76765438965E-01  0.45472438794E-01  0.88804273027E+00  0.88000000000E+00 0.  1.
        -11    1    4    4    0    0  0.34210876766E-01  0.14139468309E-01 -0.12406916293E-01  0.39044863248E-01  0.51100000000E-03 0. -1.
         11    1    4    4    0    0  0.61415751415E-01  0.50652880159E-01 -0.46711314090E-01  0.92302853560E-01  0.51100000000E-03 0.  1.
</event>
<event>
 8    1  0.1109294E+005  0.1043930E+01  0.7957747E-01            NaN
         13   -1    0    0    0    0  0.00000000000E+00  0.00000000000E+00  0.74505805969E-08  0.10566000000E+00  0.10566000000E+00 0.  1.
     999900   -1    0    0    0    0 -0.00000000000E+00 -0.00000000000E+00 -0.74505805969E-08  0.93827000000E+00  0.93827000000E+00 0. -1.
     999902    2    1    2    0    0  0.28876126329E-02  0.18098068720E-01 -0.13206173810E-01  0.10213405904E+01  0.10210907502E+01 0.  0.
     999903    2    3    3    0    0 -0.12505359244E+00  0.35402217390E-01  0.81395719868E-02  0.13166422996E+00  0.19429329379E-01 0.  0.
         14    1    1    2    0    0 -0.28876126329E-02 -0.18098068720E-01  0.13206173810E-01  0.22589409572E-01  0.00000000000E+00 0.  1.
     999901    1    3    3    0    0  0.12794120507E+00 -0.17304148670E-01 -0.21345745797E-01  0.88967636047E+00  0.88000000000E+00 0. -1.
        -11    1    4    4    0    0 -0.80578480224E-01  0.32130665985E-01  0.34232740027E-02  0.86817343301E-01  0.51100000000E-03 0.  1.
         11    1    4    4    0    0 -0.44475112215E-01  0.32715514044E-02  0.47162979842E-02  0.44846886657E-01  0.51100000000E-03 0. -1.
</event>
<event>
 8    1  0.1109294E+005  0.1043930E+01  0.7957747E-01            NaN
         13   -1    0    0    0    0  0.00000000000E+00  0.00000000000E+00  0.74505805969E-08  0.10566000000E+00  0.10566000000E+00 0.  1.
     999900   -1    0    0    0    0 -0.00000000000E+00 -0.00000000000E+00 -0.74505805969E-08  0.93827000000E+00  0.93827000000E+00 0. -1.
     999902    2    1    2    0    0  0.11706426008E-03 -0.14987938675E-01 -0.18846724782E-01  0.10198499036E+01  0.10195655814E+01 0.  0.
     999903    2    3    3    0    0  0.46297268562E-01 -0.68446637327E-02  0.11749652237E+00  0.12811653240E+00  0.20448144304E-01 0.  0.
         14    1    1    2    0    0 -0.11706426008E-03  0.14987938675E-01  0.18846724782E-01  0.24080096445E-01  0.00000000000E+00 0.  1.
     999901    1    3    3    0    0 -0.46180204302E-01 -0.81432749420E-02 -0.13634324715E+00  0.89173337116E+00  0.88000000000E+00 0. -1.
        -11    1    4    4    0    0  0.12436483947E-01 -0.10237244541E-01  0.49858634404E-01  0.52398586378E-01  0.51100000000E-03 0. -1.
         11    1    4    4    0    0  0.33860784616E-01  0.33925808080E-02  0.67637887968E-01  0.75717946017E-01  0.51100000000E-03 0.  1.
</event>
<event>
 8    1  0.1109294E+005  0.1043930E+01  0.7957747E-01            NaN
         13   -1    0    0    0    0  0.00000000000E+00  0.00000000000E+00  0.74505805969E-08  0.10566000000E+00  0.10566000000E+00 0.  1.
     999900   -1    0    0    0    0 -0.00000000000E+00 -0.00000000000E+00 -0.74505805969E-08  0.93827000000E+00  0.93827000000E+00 0. -1.
     999902    2    1    2    0    0 -0.13816366112E-01  0.18964819294E-02 -0.18120038571E-01  0.10210646460E+01  0.10208085946E+01 0.  0.
     999903    2    3    3    0    0 -0.11450278579E+00  0.39725908386E-02 -0.66630271336E-01  0.13399344929E+00  0.19697257748E-01 0.  0.
         14    1    1    2    0    0  0.13816366112E-01 -0.18964819294E-02  0.18120038571E-01  0.22865354011E-01  0.00000000000E+00 0.  1.
     999901    1    3    3    0    0  0.10068641967E+00 -0.20761089092E-02  0.48510232766E-01  0.88707119670E+00  0.88000000000E+00 0. -1.
        -11    1    4    4    0    0 -0.19488829494E-01 -0.30723015814E-02 -0.44792515657E-02  0.20238041596E-01  0.51100000000E-03 0. -1.
         11    1    4    4    0    0 -0.95013956292E-01  0.70448924200E-02 -0.62151019771E-01  0.11375540769E+00  0.51100000000E-03 0.  1.
</event>
<event>
 8    1  0.1109294E+005  0.1043930E+01  0.7957747E-01            NaN
         13   -1    0    0    0    0  0.00000000000E+00  0.00000000000E+00  0.74505805969E-08  0.10566000000E+00  0.10566000000E+00 0.  1.
     999900   -1    0    0    0    0 -0.00000000000E+00 -0.00000000000E+00 -0.74505805969E-08  0.93827000000E+00  0.93827000000E+00 0.  1.
     999902    2    1    2    0    0  0.16209883306E-01  0.11011475124E-01 -0.12723501557E-01  0.10205654886E+01  0.10202980036E+01 0.  0.
     999903    2    3    3    0    0  0.92374734750E-02  0.61488119588E-01  0.11271326521E+00  0.13021112735E+00  0.19609634514E-01 0.  0.
         14    1    1    2    0    0 -0.16209883306E-01 -0.11011475124E-01  0.12723501557E-01  0.23364511403E-01  0.00000000000E+00 0.  1.
     999901    1    3    3    0    0  0.69724098313E-02 -0.50476644464E-01 -0.12543676676E+00  0.89035436125E+00  0.88000000000E+00 0.  1.
        -11    1    4    4    0    0  0.11366790781E-01  0.23000212593E-01  0.34325300664E-01  0.42856750911E-01  0.51100000000E-03 0. -1.
         11    1    4    4    0    0 -0.21293173059E-02  0.38487906995E-01  0.78387964542E-01  0.87354376439E-01  0.51100000000E-03 0.  1.
</event>
<event>
 8    1  0.1109294E+005  0.1043930E+01  0.7957747E-01            NaN
         13   -1    0    0    0    0  0.00000000000E+00  0.00000000000E+00  0.74505805969E-08  0.10566000000E+00  0.10566000000E+00 0. -1.
     999900   -1    0    0    0    0 -0.00000000000E+00 -0.00000000000E+00 -0.74505805969E-08  0.93827000000E+00  0.93827000000E+00 0.  1.
     999902    2    1    2    0    0 -0.19505890887E-01 -0.94577499531E-02  0.99191014138E-02  0.10200905917E+01  0.10198119915E+01 0.  0.
     999903    2    3    3    0    0  0.14194769769E-01 -0.12890496345E+00  0.72983534638E-02  0.13137790495E+00  0.19720721425E-01 0.  0.
         14    1    1    2    0    0  0.19505890887E-01  0.94577499531E-02 -0.99191014138E-02  0.23839408263E-01  0.00000000000E+00 0.  1.
     999901    1    3    3    0    0 -0.33700660656E-01  0.11944721350E+00  0.26207479500E-02  0.88871268679E+00  0.88000000000E+00 0. -1.
        -11    1    4    4    0    0  0.14364725010E-01 -0.57401237575E-01 -0.23728179887E-02  0.59221100851E-01  0.51100000000E-03 0. -1.
         11    1    4    4    0    0 -0.16995524114E-03 -0.71503725877E-01  0.96711714525E-02  0.72156804096E-01  0.51100000000E-03 0.  1.
</event>
<event>
 8    1  0.1109294E+005  0.1043930E+01  0.7957747E-01            NaN
         13   -1    0    0    0    0  0.00000000000E+00  0.00000000000E+00  0.74505805969E-08  0.10566000000E+00  0.10566000000E+00 0. -1.
     999900   -1    0    0    0    0 -0.00000000000E+00 -0.00000000000E+00 -0.74505805969E-08  0.93827000000E+00  0.93827000000E+00 0. -1.
     999902    2    1    2    0    0  0.20109123040E-01  0.23690154530E-02 -0.13509765908E-01  0.10195886188E+01  0.10192980176E+01 0.  0.
     999903    2    3    3    0    0  0.85422371429E-01  0.85080844363E-01 -0.51024030006E-01  0.13250666821E+00  0.20465430957E-01 0.  0.
         14    1    1    2    0    0 -0.20109123040E-01 -0.23690154530E-02  0.13509765908E-01  0.24341381196E-01  0.00000000000E+00 0. -1.
     999901    1    3    3    0    0 -0.65313248389E-01 -0.82711828910E-01  0.37514264098E-01  0.88708195059E+00  0.88000000000E+00 0.  1.
        -11    1    4    4    0    0  0.30206151775E-01  0.30253174650E-01 -0.76935061959E-02  0.43440963847E-01  0.51100000000E-03 0. -1.
         11    1    4    4    0    0  0.55216219654E-01  0.54827669713E-01 -0.43330523810E-01  0.89065704364E-01  0.51100000000E-03 0.  1.
</event>
<event>
 8    1  0.1109294E+005  0.1043930E+01  0.7957747E-01            NaN
         13   -1    0    0    0    0  0.00000000000E+00  0.00000000000E+00  0.74505805969E-08  0.10566000000E+00  0.10566000000E+00 0.  1.
     999900   -1    0    0    0    0 -0.00000000000E+00 -0.00000000000E+00 -0.74505805969E-08  0.93827000000E+00  0.93827000000E+00 0.  1.
     999902    2    1    2    0    0  0.22000964102E-01 -0.72176951938E-02 -0.37712953363E-02  0.10204702427E+01  0.10202005469E+01 0.  0.
     999903    2    3    3    0    0 -0.86421805003E-01 -0.73971273691E-01 -0.58886041314E-01  0.12960034626E+00  0.19702948484E-01 0.  0.
         14    1    1    2    0    0 -0.22000964102E-01  0.72176951938E-02  0.37712953363E-02  0.23459757327E-01  0.00000000000E+00 0.  1.
     999901    1    3    3    0    0  0.10842276910E+00  0.66753578497E-01  0.55114745977E-01  0.89086989641E+00  0.88000000000E+00 0. -1.
        -11    1    4    4    0    0 -0.58540506277E-02 -0.13445902871E-01 -0.78992279762E-02  0.16664967339E-01  0.51100000000E-03 0. -1.
         11    1    4    4    0    0 -0.80567754375E-01 -0.60525370819E-01 -0.50986813338E-01  0.11293537893E+00  0.51100000000E-03 0.  1.
</event>
<event>
 8    1  0.1109294E+005  0.1043930E+01  0.7957747E-01            NaN
         13   -1    0    0    0    0  0.00000000000E+00  0.00000000000E+00  0.74505805969E-08  0.10566000000E+00  0.10566000000E+00 0. -1.
     999900   -1    0    0    0    0 -0.00000000000E+00 -0.00000000000E+00 -0.74505805969E-08  0.93827000000E+00  0.93827000000E+00 0.  1.
     999902    2    1    2    0    0 -0.15974276259E-01  0.16972131115E-01 -0.44577840368E-02  0.10202002176E+01  0.10199242037E+01 0.  0.
     999903    2    3    3    0    0 -0.11919441771E+00  0.26975209971E-01 -0.48435193904E-01  0.13302015028E+00  0.20332761881E-01 0.  0.
         14    1    1    2    0    0  0.15974276259E-01 -0.16972131115E-01  0.44577840368E-02  0.23729782450E-01  0.00000000000E+00 0.  1.
     999901    1    3    3    0    0  0.10322014145E+00 -0.10003078856E-01  0.43977409867E-01  0.88718006727E+00  0.88000000000E+00 0. -1.
        -11    1    4    4    0    0 -0.64826462242E-02 -0.22084978783E-02 -0.59324695041E-02  0.90751022233E-02  0.51100000000E-03 0. -1.
         11    1    4    4    0    0 -0.11271177148E+00  0.29183707850E-01 -0.42502724400E-01  0.12394504805E+00  0.51100000000E-03 0.  1.
</event>
<event>
 8    1  0.1109294E+005  0.1043930E+01  0.7957747E-01            NaN
         13   -1    0    0    0    0  0.00000000000E+00  0.00000000000E+00  0.74505805969E-08  0.10566000000E+00  0.10566000000E+00 0. -1.
     999900   -1    0    0    0    0 -0.00000000000E+00 -0.00000000000E+00 -0.74505805969E-08  0.93827000000E+00  0.93827000000E+00 0. -1.
     999902    2    1    2    0    0  0.95570838057E-02 -0.21202559516E-01 -0.96300671433E-02  0.10187580995E+01  0.10184470731E+01 0.  0.
     999903    2    3    3    0    0 -0.34705243449E-01  0.27631387458E-01 -0.11993499267E+00  0.12942628035E+00  0.19970279964E-01 0.  0.
         14    1    1    2    0    0 -0.95570838057E-02  0.21202559516E-01  0.96300671433E-02  0.25171900486E-01  0.00000000000E+00 0. -1.
     999901    1    3    3    0    0  0.44262327255E-01 -0.48833946974E-01  0.11030492553E+00  0.88933181917E+00  0.88000000000E+00 0.  1.
        -11    1    4    4    0    0 -0.16681663877E-01  0.18010112019E-01 -0.89191414002E-01  0.92509521117E-01  0.51100000000E-03 0. -1.
         11    1    4    4    0    0 -0.18023579572E-01  0.96212754387E-02 -0.30743578666E-01  0.36916759228E-01  0.51100000000E-03 0.  1.
</event>
<event>
 8    1  0.1109294E+005  0.1043930E+01  0.7957747E-01            NaN
         13   -1    0    0    0    0  0.00000000000E+00  0.00000000000E+00  0.74505805969E-08  0.10566000000E+00  0.10566000000E+00 0.  1.
     999900   -1    0    0    0    0 -0.00000000000E+00 -0.00000000000E+00 -0.74505805969E-08  0.93827000000E+00  0.93827000000E+00 0.  1.
     999902    2    1    2    0    0 -0.62825451059E-02  0.17989253237E-01 -0.30620034137E-02  0.10246307910E+01  0.10244490218E+01 0.  0.
     999903    2    3    3    0    0 -0.36040095118E-01 -0.11363618903E+00 -0.55701503882E-01  0.13278905284E+00  0.17838248374E-01 0.  0.
         14    1    1    2    0    0  0.62825451059E-02 -0.17989253237E-01  0.30620034137E-02  0.19299209050E-01  0.00000000000E+00 0.  1.
     999901    1    3    3    0    0  0.29757550012E-01  0.13162544227E+00  0.52639500469E-01  0.89184173812E+00  0.88000000000E+00 0. -1.
        -11    1    4    4    0    0 -0.13798900193E-01 -0.71926445998E-01 -0.35289695140E-01  0.81298505426E-01  0.51100000000E-03 0. -1.
         11    1    4    4    0    0 -0.22241194925E-01 -0.41709743031E-01 -0.20411808743E-01  0.51490547409E-01  0.51100000000E-03 0.  1.
</event>
<event>
 8    1  0.1109294E+005  0.1043930E+01  0.7957747E-01            NaN
         13   -1    0    0    0    0  0.00000000000E+00  0.00000000000E+00  0.74505805969E-08  0.10566000000E+00  0.10566000000E+00 0. -1.
     999900   -1    0    0    0    0 -0.00000000000E+00 -0.00000000000E+00 -0.74505805969E-08  0.93827000000E+00  0.93827000000E+00 0.  1.
     999902    2    1    2    0    0  0.16293177710E-01  0.15118786284E-02  0.17044935235E-01  0.10203019820E+01  0.10200283581E+01 0.  0.
     999903    2    3    3    0    0 -0.18256431486E-01 -0.11027429196E+00 -0.61211719003E-01  0.12911517367E+00  0.20739738947E-01 0.  0.
         14    1    1    2    0    0 -0.16293177710E-01 -0.15118786284E-02 -0.17044935235E-01  0.23628017988E-01  0.00000000000E+00 0.  1.
     999901    1    3    3    0    0  0.34549609196E-01  0.11178617058E+00  0.78256654238E-01  0.89118680834E+00  0.88000000000E+00 0. -1.
        -11    1    4    4    0    0 -0.99451101259E-02 -0.62513502760E-01 -0.46182919824E-01  0.78357937998E-01  0.51100000000E-03 0.  1.
         11    1    4    4    0    0 -0.83113213599E-02 -0.47760789196E-01 -0.15028799179E-01  0.50757235672E-01  0.51100000000E-03 0. -1.
</event>
<event>
 8    1  0.1109294E+005  0.1043930E+01  0.7957747E-01            NaN
         13   -1    0    0    0    0  0.00000000000E+00  0.00000000000E+00  0.74505805969E-08  0.10566000000E+00  0.10566000000E+00 0. -1.
     999900   -1    0    0    0    0 -0.00000000000E+00 -0.00000000000E+00 -0.74505805969E-08  0.93827000000E+00  0.93827000000E+00 0. -1.
     999902    2    1    2    0    0 -0.21065716265E-01  0.10644540797E-01  0.44428826099E-02  0.10199131339E+01  0.10196303207E+01 0.  0.
     999903    2    3    3    0    0 -0.11015062064E+00 -0.37611101885E-01 -0.58647891338E-01  0.13185616897E+00  0.19967972486E-01 0.  0.
         14    1    1    2    0    0  0.21065716265E-01 -0.10644540797E-01 -0.44428826099E-02  0.24016866082E-01  0.00000000000E+00 0.  1.
     999901    1    3    3    0    0  0.89084904371E-01  0.48255642682E-01  0.63090773948E-01  0.88805696495E+00  0.88000000000E+00 0.  1.
        -11    1    4    4    0    0 -0.25052833205E-01 -0.11559050948E-01 -0.23223903353E-01  0.36067532746E-01  0.51100000000E-03 0. -1.
         11    1    4    4    0    0 -0.85097787431E-01 -0.26052050937E-01 -0.35423987985E-01  0.95788636223E-01  0.51100000000E-03 0.  1.
</event>
<event>
 8    1  0.1109294E+005  0.1043930E+01  0.7957747E-01            NaN
         13   -1    0    0    0    0  0.00000000000E+00  0.00000000000E+00  0.74505805969E-08  0.10566000000E+00  0.10566000000E+00 0. -1.
     999900   -1    0    0    0    0 -0.00000000000E+00 -0.00000000000E+00 -0.74505805969E-08  0.93827000000E+00  0.93827000000E+00 0.  1.
     999902    2    1    2    0    0  0.63417459286E-02 -0.22129263884E-01  0.10557285043E-01  0.10186045518E+01  0.10182896712E+01 0.  0.
     999903    2    3    3    0    0  0.42447020151E-01  0.72529517125E-01  0.95270967993E-01  0.12875047173E+00  0.20924776100E-01 0.  0.
         14    1    1    2    0    0 -0.63417459286E-02  0.22129263884E-01 -0.10557285043E-01  0.25325448248E-01  0.00000000000E+00 0. -1.
     999901    1    3    3    0    0 -0.36105274222E-01 -0.94658781009E-01 -0.84713682950E-01  0.88985408002E+00  0.88000000000E+00 0.  1.
        -11    1    4    4    0    0  0.89544240096E-02  0.22221902329E-01  0.41160935822E-01  0.47628546180E-01  0.51100000000E-03 0. -1.
         11    1    4    4    0    0  0.33492596141E-01  0.50307614796E-01  0.54110032171E-01  0.81121925552E-01  0.51100000000E-03 0.  1.
</event>
<event>
 8    1  0.1109294E+005  0.1043930E+01  0.7957747E-01            NaN
         13   -1    0    0    0    0  0.00000000000E+00  0.00000000000E+00  0.74505805969E-08  0.10566000000E+00  0.10566000000E+00 0.  1.
     999900   -1    0    0    0    0 -0.00000000000E+00 -0.00000000000E+00 -0.74505805969E-08  0.93827000000E+00  0.93827000000E+00 0.  1.
     999902    2    1    2    0    0 -0.20600380355E-01  0.11338186443E-01  0.89874003798E-02  0.10187565317E+01  0.10184454660E+01 0.  0.
     999903    2    3    3    0    0  0.80372120412E-01  0.56645061627E-01  0.80819144266E-01  0.12892061517E+00  0.20504882090E-01 0.  0.
         14    1    1    2    0    0  0.20600380355E-01 -0.11338186443E-01 -0.89874003798E-02  0.25173468338E-01  0.00000000000E+00 0. -1.
     999901    1    3    3    0    0 -0.10097250077E+00 -0.45306875184E-01 -0.71831743886E-01  0.88983591649E+00  0.88000000000E+00 0. -1.
        -11    1    4    4    0    0  0.35958036149E-01  0.29950913912E-01  0.26222791149E-01  0.53646374570E-01  0.51100000000E-03 0.  1.
         11    1    4    4    0    0  0.44414084263E-01  0.26694147715E-01  0.54596353117E-01  0.75274240600E-01  0.51100000000E-03 0. -1.
</event>
<event>
 8    1  0.1109294E+005  0.1043930E+01  0.7957747E-01            NaN
         13   -1    0    0    0    0  0.00000000000E+00  0.00000000000E+00  0.74505805969E-08  0.10566000000E+00  0.10566000000E+00 0. -1.
     999900   -1    0    0    0    0 -0.00000000000E+00 -0.00000000000E+00 -0.74505805969E-08  0.93827000000E+00  0.93827000000E+00 0. -1.
     999902    2    1    2    0    0 -0.51523197705E-02  0.92552298767E-02  0.21051696633E-01  0.10203635066E+01  0.10200913224E+01 0.  0.
     999903    2    3    3    0    0  0.11944828033E+00 -0.21350679243E-01 -0.39382706822E-01  0.12900816315E+00  0.19192847216E-01 0.  0.
         14    1    1    2    0    0  0.51523197705E-02 -0.92552298767E-02 -0.21051696633E-01  0.23566493380E-01  0.00000000000E+00 0.  1.
     999901    1    3    3    0    0 -0.12460060010E+00  0.30605909120E-01  0.60434403455E-01  0.89135534347E+00  0.88000000000E+00 0. -1.
        -11    1    4    4    0    0  0.30560697061E-01 -0.13012202304E-01 -0.15067911784E-01  0.36477070883E-01  0.51100000000E-03 0.  1.
         11    1    4    4    0    0  0.88887583267E-01 -0.83384769390E-02 -0.24314795038E-01  0.92531092263E-01  0.51100000000E-03 0. -1.
</event>
<event>
 8    1  0.1109294E+005  0.1043930E+01  0.7957747E-01            NaN
         13   -1    0    0    0    0  0.00000000000E+00  0.00000000000E+00  0.74505805969E-08  0.10566000000E+00  0.10566000000E+00 0.  1.
     999900   -1    0    0    0    0 -0.00000000000E+00 -0.00000000000E+00 -0.74505805969E-08  0.93827000000E+00  0.93827000000E+00 0. -1.
     999902    2    1    2    0    0 -0.24599316583E-01  0.49489610659E-02  0.54900308628E-02  0.10182442251E+01  0.10179202046E+01 0.  0.
     999903    2    3    3    0    0 -0.91965647371E-01 -0.71751598988E-01  0.54957284362E-01  0.13096286749E+00  0.22912819639E-01 0.  0.
         14    1    1    2    0    0  0.24599316583E-01 -0.49489610659E-02 -0.54900308628E-02  0.25685774873E-01  0.00000000000E+00 0.  1.
     999901    1    3    3    0    0  0.67366330788E-01  0.76700560054E-01 -0.49467253499E-01  0.88728135763E+00  0.88000000000E+00 0.  1.
        -11    1    4    4    0    0 -0.30929621691E-01 -0.31396445285E-01  0.10379517105E-01  0.45281053111E-01  0.51100000000E-03 0.  1.
         11    1    4    4    0    0 -0.61036025680E-01 -0.40355153702E-01  0.44577767257E-01  0.85681814382E-01  0.51100000000E-03 0. -1.
</event>
<event>
 8    1  0.1109294E+005  0.1043930E+01  0.7957747E-01            NaN
         13   -1    0    0    0    0  0.00000000000E+00  0.00000000000E+00  0.74505805969E-08  0.10566000000E+00  0.10566000000E+00 0. -1.
     999900   -1    0    0    0    0 -0.00000000000E+00 -0.00000000000E+00 -0.74505805969E-08  0.93827000000E+00  0.93827000000E+00 0.  1.
     999902    2    1    2    0    0 -0.12612378334E-01 -0.12982920697E-02 -0.20424212601E-01  0.10198903222E+01  0.10196069650E+01 0.  0.
     999903    2    3    3    0    0  0.39905546812E-01 -0.95635766177E-01 -0.78862055020E-01  0.13136757463E+00  0.17307902912E-01 0.  0.
         14    1    1    2    0    0  0.12612378334E-01  0.12982920697E-02  0.20424212601E-01  0.24039677824E-01  0.00000000000E+00 0. -1.
     999901    1    3    3    0    0 -0.52517925146E-01  0.94337474107E-01  0.58437842419E-01  0.88852274755E+00  0.88000000000E+00 0. -1.
        -11    1    4    4    0    0  0.13548487923E-01 -0.15229079727E-01 -0.13654843655E-01  0.24539809913E-01  0.51100000000E-03 0.  1.
         11    1    4    4    0    0  0.26357058889E-01 -0.80406686449E-01 -0.65207211365E-01  0.10682776471E+00  0.51100000000E-03 0. -1.
</event>
<event>
 8    1  0.1109294E+005  0.1043930E+01  0.7957747E-01            NaN
         13   -1    0    0    0    0  0.00000000000E+00  0.00000000000E+00  0.74505805969E-08  0.10566000000E+00  0.10566000000E+00 0. -1.
     999900   -1    0    0    0    0 -0.00000000000E+00 -0.00000000000E+00 -0.74505805969E-08  0.93827000000E+00  0.93827000000E+00 0.  1.
     999902    2    1    2    0    0 -0.12641700528E-01 -0.14186006951E-01 -0.10863581561E-01  0.10220422685E+01  0.10218078713E+01 0.  0.
     999903    2    3    3    0    0  0.85923519465E-01  0.83920586465E-01  0.44278942816E-01  0.12941653268E+00  0.19039383529E-01 0.  0.
         14    1    1    2    0    0  0.12641700528E-01  0.14186006951E-01  0.10863581561E-01  0.21887731490E-01  0.00000000000E+00 0. -1.
     999901    1    3    3    0    0 -0.98565219993E-01 -0.98106593416E-01 -0.55142524377E-01  0.89262573583E+00  0.88000000000E+00 0.  1.
        -11    1    4    4    0    0  0.57002321402E-01  0.67472577027E-01  0.32449407078E-01  0.94101213789E-01  0.51100000000E-03 0.  1.
         11    1    4    4    0    0  0.28921198063E-01  0.16448009438E-01  0.11829535738E-01  0.35315318895E-01  0.51100000000E-03 0. -1.
</event>
<event>
 8    1  0.1109294E+005  0.1043930E+01  0.7957747E-01            NaN
         13   -1    0    0    0    0  0.00000000000E+00  0.00000000000E+00  0.74505805969E-08  0.10566000000E+00  0.10566000000E+00 0.  1.
     999900   -1    0    0    0    0 -0.00000000000E+00 -0.00000000000E+00 -0.74505805969E-08  0.93827000000E+00  0.93827000000E+00 0.  1.
     999902    2    1    2    0    0  0.98030467354E-02  0.17004038550E-01  0.13450488904E-01  0.10201360364E+01  0.10198585098E+01 0.  0.
     999903    2    3    3    0    0  0.23612077485E-01  0.12910093918E+00  0.37023038954E-02  0.13286413243E+00  0.20361432469E-01 0.  0.
         14    1    1    2    0    0 -0.98030467354E-02 -0.17004038550E-01 -0.13450488904E-01  0.23793963605E-01  0.00000000000E+00 0. -1.
     999901    1    3    3    0    0 -0.13809030750E-01 -0.11209690063E+00  0.97481850085E-02  0.88727190397E+00  0.88000000000E+00 0.  1.
        -11    1    4    4    0    0  0.68175787283E-02  0.28423570832E-01 -0.75012944563E-02  0.30181273964E-01  0.51100000000E-03 0. -1.
         11    1    4    4    0    0  0.16794498757E-01  0.10067736834E+00  0.11203598352E-01  0.10268285846E+00  0.51100000000E-03 0.  1.
</event>
<event>
 8    1  0.1109294E+005  0.1043930E+01  0.7957747E-01            NaN
         13   -1    0    0    0    0  0.00000000000E+00  0.00000000000E+00  0.74505805969E-08  0.10566000000E+00  0.10566000000E+00 0. -1.
     999900   -1    0    0    0    0 -0.00000000000E+00 -0.00000000000E+00 -0.74505805969E-08  0.93827000000E+00  0.93827000000E+00 0.  1.
     999902    2    1    2    0    0  0.86402444099E-02 -0.18983804843E-01  0.11807158296E-01  0.10199623623E+01  0.10196807210E+01 0.  0.
     999903    2    3    3    0    0  0.12257902699E+00  0.25521715537E-01 -0.31266124831E-01  0.13045795240E+00  0.19097930804E-01 0.  0.
         14    1    1    2    0    0 -0.86402444099E-02  0.18983804843E-01 -0.11807158296E-01  0.23967637698E-01  0.00000000000E+00 0.  1.
     999901    1    3    3    0    0 -0.11393878258E+00 -0.44505520380E-01  0.43073283127E-01  0.88950440990E+00  0.88000000000E+00 0. -1.
        -11    1    4    4    0    0  0.23033126178E-01  0.12569172121E-01 -0.75363174113E-02  0.27305057965E-01  0.51100000000E-03 0.  1.
         11    1    4    4    0    0  0.99545900809E-01  0.12952543416E-01 -0.23729807420E-01  0.10315289443E+00  0.51100000000E-03 0. -1.
</event>
<event>
 8    1  0.1109294E+005  0.1043930E+01  0.7957747E-01            NaN
         13   -1    0    0    0    0  0.00000000000E+00  0.00000000000E+00  0.74505805969E-08  0.10566000000E+00  0.10566000000E+00 0.  1.
     999900   -1    0    0    0    0 -0.00000000000E+00 -0.00000000000E+00 -0.74505805969E-08  0.93827000000E+00  0.93827000000E+00 0. -1.
     999902    2    1    2    0    0  0.23044034063E-01  0.15437000730E-02  0.29344334850E-02  0.10206486466E+01  0.10203830841E+01 0.  0.
     999903    2    3    3    0    0  0.12172665256E+00  0.49818034582E-01  0.13315883244E-01  0.13375719606E+00  0.20358296510E-01 0.  0.
         14    1    1    2    0    0 -0.23044034063E-01 -0.15437000730E-02 -0.29344334850E-02  0.23281353391E-01  0.00000000000E+00 0.  1.
     999901    1    3    3    0    0 -0.98682618498E-01 -0.48274334509E-01 -0.10381449759E-01  0.88689145055E+00  0.88000000000E+00 0. -1.
        -11    1    4    4    0    0  0.24269930443E-01  0.83804788122E-02 -0.53252559956E-02  0.26227493613E-01  0.51100000000E-03 0. -1.
         11    1    4    4    0    0  0.97456722118E-01  0.41437555770E-01  0.18641139239E-01  0.10752970244E+00  0.51100000000E-03 0.  1.
</event>
<event>
 8    1  0.1109294E+005  0.1043930E+01  0.7957747E-01            NaN
         13   -1    0    0    0    0  0.00000000000E+00  0.00000000000E+00  0.74505805969E-08  0.10566000000E+00  0.10566000000E+00 0. -1.
     999900   -1    0    0    0    0 -0.00000000000E+00 -0.00000000000E+00 -0.74505805969E-08  0.93827000000E+00  0.93827000000E+00 0.  1.
     999902    2    1    2    0    0 -0.18439460836E-01  0.92845557988E-02 -0.12241871277E-01  0.10199283312E+01  0.10196458800E+01 0.  0.
     999903    2    3    3    0    0  0.40315104018E-01 -0.62524465967E-01 -0.10495336316E+00  0.13020699550E+00  0.20100666176E-01 0.  0.
         14    1    1    2    0    0  0.18439460836E-01 -0.92845557988E-02  0.12241871277E-01  0.24001668790E-01  0.00000000000E+00 0. -1.
     999901    1    3    3    0    0 -0.58754564854E-01  0.71809021766E-01  0.92711491885E-01  0.88972133571E+00  0.88000000000E+00 0. -1.
        -11    1    4    4    0    0  0.25825405364E-01 -0.24440635980E-01 -0.58027600272E-01  0.68057033168E-01  0.51100000000E-03 0.  1.
         11    1    4    4    0    0  0.14489698653E-01 -0.38083829987E-01 -0.46925762890E-01  0.62149962328E-01  0.51100000000E-03 0. -1.
</event>
<event>
 8    1  0.1109294E+005  0.1043930E+01  0.7957747E-01            NaN
         13   -1    0    0    0    0  0.00000000000E+00  0.00000000000E+00  0.74505805969E-08  0.10566000000E+00  0.10566000000E+00 0. -1.
     999900   -1    0    0    0    0 -0.00000000000E+00 -0.00000000000E+00 -0.74505805969E-08  0.93827000000E+00  0.93827000000E+00 0. -1.
     999902    2    1    2    0    0 -0.94148925109E-02 -0.83845049186E-02  0.20328766488E-01  0.10200093213E+01  0.10197287956E+01 0.  0.
     999903    2    3    3    0    0  0.34570207886E-01  0.62723948699E-01 -0.10398558589E+00  0.12734748192E+00  0.16582703793E-01 0.  0.
         14    1    1    2    0    0  0.94148925109E-02  0.83845049186E-02 -0.20328766488E-01  0.23920678725E-01  0.00000000000E+00 0.  1.
     999901    1    3    3    0    0 -0.43985100397E-01 -0.71108453618E-01  0.12431435238E+00  0.89266183935E+00  0.88000000000E+00 0.  1.
        -11    1    4    4    0    0  0.91863427049E-02  0.10610040073E-01 -0.31826958651E-01  0.34787616484E-01  0.51100000000E-03 0. -1.
         11    1    4    4    0    0  0.25383865181E-01  0.52113908625E-01 -0.72158627239E-01  0.92559865437E-01  0.51100000000E-03 0.  1.
</event>
<event>
 8    1  0.1109294E+005  0.1043930E+01  0.7957747E-01            NaN
         13   -1    0    0    0    0  0.00000000000E+00  0.00000000000E+00  0.74505805969E-08  0.10566000000E+00  0.10566000000E+00 0. -1.
     999900   -1    0    0    0    0 -0.00000000000E+00 -0.00000000000E+00 -0.74505805969E-08  0.93827000000E+00  0.93827000000E+00 0.  1.
     999902    2    1    2    0    0  0.16019490562E-01 -0.58152701890E-02  0.16145432057E-01  0.10204541311E+01  0.10201840605E+01 0.  0.
     999903    2    3    3    0    0  0.12501100865E+00 -0.22530892908E-01 -0.31547725331E-01  0.13229130799E+00  0.19244162172E-01 0.  0.
         14    1    1    2    0    0 -0.16019490562E-01  0.58152701890E-02 -0.16145432057E-01  0.23475868920E-01  0.00000000000E+00 0.  1.
     999901    1    3    3    0    0 -0.10899151809E+00  0.16715622719E-01  0.47693157388E-01  0.88816282309E+00  0.88000000000E+00 0. -1.
        -11    1    4    4    0    0  0.11287078108E+00 -0.22798085596E-01 -0.22982198861E-01  0.11742235099E+00  0.51100000000E-03 0. -1.
         11    1    4    4    0    0  0.12140227572E-01  0.26719268768E-03 -0.85655264698E-02  0.14868956995E-01  0.51100000000E-03 0.  1.
</event>
<event>
 8    1  0.1109294E+005  0.1043930E+01  0.7957747E-01            NaN
         13   -1    0    0    0    0  0.00000000000E+00  0.00000000000E+00  0.74505805969E-08  0.10566000000E+00  0.10566000000E+00 0.  1.
     999900   -1    0    0    0    0 -0.00000000000E+00 -0.00000000000E+00 -0.74505805969E-08  0.93827000000E+00  0.93827000000E+00 0.  1.
     999902    2    1    2    0    0  0.16378862789E-01  0.36627448679E-02  0.16726597187E-01  0.10202348127E+01  0.10199596125E+01 0.  0.
     999903    2    3    3    0    0  0.51259128032E-01  0.19815371287E-01 -0.11554350566E+00  0.12951997601E+00  0.20123999140E-01 0.  0.
         14    1    1    2    0    0 -0.16378862789E-01 -0.36627448679E-02 -0.16726597187E-01  0.23695187268E-01  0.00000000000E+00 0.  1.
     999901    1    3    3    0    0 -0.34880265243E-01 -0.16152626419E-01  0.13227010284E+00  0.89071483672E+00  0.88000000000E+00 0. -1.
        -11    1    4    4    0    0  0.23451175037E-01  0.17637932137E-01 -0.72630984785E-01  0.78336296392E-01  0.51100000000E-03 0.  1.
         11    1    4    4    0    0  0.27807952995E-01  0.21774391501E-02 -0.42912520872E-01  0.51183679621E-01  0.51100000000E-03 0. -1.
</event>
<event>
 8    1  0.1109294E+005  0.1043930E+01  0.7957747E-01            NaN
         13   -1    0    0    0    0  0.00000000000E+00  0.00000000000E+00  0.74505805969E-08  0.10566000000E+00  0.10566000000E+00 0. -1.
     999900   -1    0    0    0    0 -0.00000000000E+00 -0.00000000000E+00 -0.74505805969E-08  0.93827000000E+00  0.93827000000E+00 0.  1.
     999902    2    1    2    0    0 -0.77366911828E-02 -0.19992448921E-01 -0.60446689585E-02  0.10216568676E+01  0.10214140506E+01 0.  0.
     999903    2    3    3    0    0  0.74739045355E-01 -0.10729222417E+00 -0.15321562594E-01  0.13345105888E+00  0.21837778494E-01 0.  0.
         14    1    1    2    0    0  0.77366911828E-02  0.19992448921E-01  0.60446689585E-02  0.22273132405E-01  0.00000000000E+00 0.  1.
     999901    1    3    3    0    0 -0.82475736538E-01  0.87299775245E-01  0.92768936360E-02  0.88820580871E+00  0.88000000000E+00 0. -1.
        -11    1    4    4    0    0  0.96485358593E-02 -0.28859803728E-01 -0.37840662977E-03  0.30436603425E-01  0.51100000000E-03 0. -1.
         11    1    4    4    0    0  0.65090509496E-01 -0.78432420438E-01 -0.14943155965E-01  0.10301445546E+00  0.51100000000E-03 0.  1.
</event>
<event>
 8    1  0.1109294E+005  0.1043930E+01  0.7957747E-01            NaN
         13   -1    0    0    0    0  0.00000000000E+00  0.00000000000E+00  0.74505805969E-08  0.10566000000E+00  0.10566000000E+00 0. -1.
     999900   -1    0    0    0    0 -0.00000000000E+00 -0.00000000000E+00 -0.74505805969E-08  0.93827000000E+00  0.93827000000E+00 0.  1.
     999902    2    1    2    0    0  0.45422577724E-02  0.16811002645E-01 -0.16309851453E-01  0.10200709730E+01  0.10197919086E+01 0.  0.
     999903    2    3    3    0    0  0.70172759779E-01  0.63102403099E-01 -0.91904690906E-01  0.13318606709E+00  0.19645018845E-01 0.  0.
         14    1    1    2    0    0 -0.45422577724E-02 -0.16811002645E-01  0.16309851453E-01  0.23859027013E-01  0.00000000000E+00 0.  1.
     999901    1    3    3    0    0 -0.65630502007E-01 -0.46291400454E-01  0.75594839453E-01  0.88688490589E+00  0.88000000000E+00 0. -1.
        -11    1    4    4    0    0  0.41849262484E-01  0.31265775279E-01 -0.38676396120E-01  0.65000263170E-01  0.51100000000E-03 0. -1.
         11    1    4    4    0    0  0.28323497295E-01  0.31836627819E-01 -0.53228294786E-01  0.68185803924E-01  0.51100000000E-03 0.  1.
</event>
<event>
 8    1  0.1109294E+005  0.1043930E+01  0.7957747E-01            NaN
         13   -1    0    0    0    0  0.00000000000E+00  0.00000000000E+00  0.74505805969E-08  0.10566000000E+00  0.10566000000E+00 0.  1.
     999900   -1    0    0    0    0 -0.00000000000E+00 -0.00000000000E+00 -0.74505805969E-08  0.93827000000E+00  0.93827000000E+00 0.  1.
     999902    2    1    2    0    0  0.19027772584E-01  0.92439476617E-02 -0.16377188198E-02  0.10227123465E+01  0.10224922273E+01 0.  0.
     999903    2    3    3    0    0 -0.31596522890E-01  0.61326869786E-01  0.11192091506E+00  0.13244777154E+00  0.16024847601E-01 0.  0.
         14    1    1    2    0    0 -0.19027772584E-01 -0.92439476617E-02  0.16377188198E-02  0.21217653518E-01  0.00000000000E+00 0. -1.
     999901    1    3    3    0    0  0.50624295474E-01 -0.52082922124E-01 -0.11355863388E+00  0.89026457494E+00  0.88000000000E+00 0.  1.
        -11    1    4    4    0    0 -0.33415277291E-02  0.22111460725E-01  0.39051668580E-01  0.45004182504E-01  0.51100000000E-03 0.  1.
         11    1    4    4    0    0 -0.28254995161E-01  0.39215409060E-01  0.72869246483E-01  0.87443589035E-01  0.51100000000E-03 0. -1.
</event>
<event>
 8    1  0.1109294E+005  0.1043930E+01  0.7957747E-01            NaN
         13   -1    0    0    0    0  0.00000000000E+00  0.00000000000E+00  0.74505805969E-08  0.10566000000E+00  0.10566000000E+00 0. -1.
     999900   -1    0    0    0    0 -0.00000000000E+00 -0.00000000000E+00 -0.74505805969E-08  0.93827000000E+00  0.93827000000E+00 0.  1.
     999902    2    1    2    0    0 -0.16067441698E-01  0.13069943060E-01 -0.11463542949E-01  0.10202572538E+01  0.10199825808E+01 0.  0.
     999903    2    3    3    0    0  0.51094709391E-01 -0.33084834492E-01  0.11070374866E+00  0.12808806294E+00  0.21117677441E-01 0.  0.
         14    1    1    2    0    0  0.16067441698E-01 -0.13069943060E-01  0.11463542949E-01  0.23672746170E-01  0.00000000000E+00 0. -1.
     999901    1    3    3    0    0 -0.67162151088E-01  0.46154777552E-01 -0.12216729161E+00  0.89216919089E+00  0.88000000000E+00 0. -1.
        -11    1    4    4    0    0  0.40679380274E-01 -0.15232628738E-01  0.68901748862E-01  0.81452790468E-01  0.51100000000E-03 0.  1.
         11    1    4    4    0    0  0.10415329116E-01 -0.17852205754E-01  0.41801999795E-01  0.46635272475E-01  0.51100000000E-03 0. -1.
</event>
<event>
 8    1  0.1109294E+005  0.1043930E+01  0.7957747E-01            NaN
         13   -1    0    0    0    0  0.00000000000E+00  0.00000000000E+00  0.74505805969E-08  0.10566000000E+00  0.10566000000E+00 0. -1.
     999900   -1    0    0    0    0 -0.00000000000E+00 -0.00000000000E+00 -0.74505805969E-08  0.93827000000E+00  0.93827000000E+00 0. -1.
     999902    2    1    2    0    0 -0.75305083053E-03 -0.22089620439E-01 -0.88891968173E-02  0.10201069809E+01  0.10198287681E+01 0.  0.
     999903    2    3    3    0    0  0.81984946872E-01  0.62810218570E-01  0.73367309644E-01  0.12835606742E+00  0.20636444658E-01 0.  0.
         14    1    1    2    0    0  0.75305083053E-03  0.22089620439E-01  0.88891968173E-02  0.23823019052E-01  0.00000000000E+00 0. -1.
     999901    1    3    3    0    0 -0.82737997702E-01 -0.84899839009E-01 -0.82256506461E-01  0.89175091353E+00  0.88000000000E+00 0. -1.
        -11    1    4    4    0    0  0.31449122042E-01  0.12455540974E-01  0.26825329835E-01  0.43174613141E-01  0.51100000000E-03 0. -1.
         11    1    4    4    0    0  0.50535824830E-01  0.50354677596E-01  0.46541979809E-01  0.85181454277E-01  0.51100000000E-03 0.  1.
</event>
<event>
 7    1  0.1109294E+005  0.1043930E+01  0.7957747E-01            NaN
         13   -1    0    0    0    0  0.00000000000E+00  0.00000000000E+00  0.74505805969E-08  0.10566000000E+00  0.10566000000E+00 0. -1.
     999900   -1    0    0    0    0 -0.00000000000E+00 -0.00000000000E+00 -0.74505805969E-08  0.93827000000E+00  0.93827000000E+00 0. -1.
     999902    2    1    2    0    0 -0.66319331421E-02  0.18700357430E-01  0.12901299162E-01  0.10202629464E+01  0.10199884070E+01 0.  0.
         14    1    1    2    0    0  0.66319331421E-02 -0.18700357430E-01 -0.12901299162E-01  0.23667053583E-01  0.00000000000E+00 0.  1.
     999901    1    3    3    0    0 -0.76761029823E-01  0.45973516393E-01  0.10994057307E+00  0.89134322767E+00  0.88000000000E+00 0. -1.
        -11    1    3    3    0    0  0.52939959748E-01 -0.34295968036E-01 -0.58024261760E-01  0.85708394195E-01  0.51100000000E-03 0. -1.
         11    1    3    3    0    0  0.17189136932E-01  0.70228090730E-02 -0.39015012145E-01  0.43211324551E-01  0.51100000000E-03 0.  1.
</event>
<event>
 8    1  0.1109294E+005  0.1043930E+01  0.7957747E-01            NaN
         13   -1    0    0    0    0  0.00000000000E+00  0.00000000000E+00  0.74505805969E-08  0.10566000000E+00  0.10566000000E+00 0. -1.
     999900   -1    0    0    0    0 -0.00000000000E+00 -0.00000000000E+00 -0.74505805969E-08  0.93827000000E+00  0.93827000000E+00 0. -1.
     999902    2    1    2    0    0 -0.12523128435E-01  0.83678910110E-02 -0.12444093415E-01  0.10243927073E+01  0.10242063820E+01 0.  0.
     999903    2    3    3    0    0 -0.24538077511E-01  0.11337854311E+00  0.65443667871E-01  0.13465223984E+00  0.19787388466E-01 0.  0.
         14    1    1    2    0    0  0.12523128435E-01 -0.83678910110E-02  0.12444093415E-01  0.19537292716E-01  0.00000000000E+00 0. -1.
     999901    1    3    3    0    0  0.12014949077E-01 -0.10501065210E+00 -0.77887761286E-01  0.88974046745E+00  0.88000000000E+00 0. -1.
        -11    1    4    4    0    0 -0.24219805509E-01  0.83656081826E-01  0.55639690555E-01  0.10334880401E+00  0.51100000000E-03 0. -1.
         11    1    4    4    0    0 -0.31827200269E-03  0.29722461286E-01  0.98039773159E-02  0.31303435821E-01  0.51100000000E-03 0.  1.
</event>
<event>
 8    1  0.1109294E+005  0.1043930E+01  0.7957747E-01            NaN
         13   -1    0    0    0    0  0.00000000000E+00  0.00000000000E+00  0.74505805969E-08  0.10566000000E+00  0.10566000000E+00 0.  1.
     999900   -1    0    0    0    0 -0.00000000000E+00 -0.00000000000E+00 -0.74505805969E-08  0.93827000000E+00  0.93827000000E+00 0. -1.
     999902    2    1    2    0    0  0.10582934419E-01  0.22861581852E-01 -0.23085955627E-02  0.10186321732E+01  0.10183179878E+01 0.  0.
     999903    2    3    3    0    0  0.52482025390E-01  0.97093019943E-01 -0.69588317214E-01  0.13195726033E+00  0.19717179065E-01 0.  0.
         14    1    1    2    0    0 -0.10582934419E-01 -0.22861581852E-01  0.23085955627E-02  0.25297826768E-01  0.00000000000E+00 0. -1.
     999901    1    3    3    0    0 -0.41899090971E-01 -0.74231438091E-01  0.67279721652E-01  0.88667491290E+00  0.88000000000E+00 0.  1.
        -11    1    4    4    0    0  0.15449875014E-01  0.13064186848E-01 -0.11087742088E-01  0.23077494698E-01  0.51100000000E-03 0.  1.
         11    1    4    4    0    0  0.37032150376E-01  0.84028833095E-01 -0.58500575127E-01  0.10887976563E+00  0.51100000000E-03 0. -1.
</event>
<event>
 8    1  0.1109294E+005  0.1043930E+01  0.7957747E-01            NaN
         13   -1    0    0    0    0  0.00000000000E+00  0.00000000000E+00  0.74505805969E-08  0.10566000000E+00  0.10566000000E+00 0.  1.
     999900   -1    0    0    0    0 -0.00000000000E+00 -0.00000000000E+00 -0.74505805969E-08  0.93827000000E+00  0.93827000000E+00 0. -1.
     999902    2    1    2    0    0  0.80204172782E-02 -0.27810617435E-02  0.21772775560E-01  0.10205608932E+01  0.10202933017E+01 0.  0.
     999903    2    3    3    0    0 -0.74296102103E-01 -0.85585425803E-01 -0.59410566360E-01  0.12914443211E+00  0.17432528568E-01 0.  0.
         14    1    1    2    0    0 -0.80204172782E-02  0.27810617435E-02 -0.21772775560E-01  0.23369106815E-01  0.00000000000E+00 0. -1.
     999901    1    3    3    0    0  0.82316519381E-01  0.82804364059E-01  0.81183341920E-01  0.89141646108E+00  0.88000000000E+00 0.  1.
        -11    1    4    4    0    0 -0.12656711309E-01 -0.65216141329E-02 -0.97605587650E-02  0.17270015068E-01  0.51100000000E-03 0.  1.
         11    1    4    4    0    0 -0.61639390794E-01 -0.79063811670E-01 -0.49650007595E-01  0.11187441704E+00  0.51100000000E-03 0. -1.
</event>
<event>
 8    1  0.1109294E+005  0.1043930E+01  0.7957747E-01            NaN
         13   -1    0    0    0    0  0.00000000000E+00  0.00000000000E+00  0.74505805969E-08  0.10566000000E+00  0.10566000000E+00 0. -1.
     999900   -1    0    0    0    0 -0.00000000000E+00 -0.00000000000E+00 -0.74505805969E-08  0.93827000000E+00  0.93827000000E+00 0.  1.
     999902    2    1    2    0    0  0.19907255880E-01  0.10931965404E-01 -0.63337009210E-02  0.10203519918E+01  0.10200795384E+01 0.  0.
     999903    2    3    3    0    0 -0.35901168438E-01  0.53629893624E-01 -0.11247743143E+00  0.13119273449E+00  0.19882193460E-01 0.  0.
         14    1    1    2    0    0 -0.19907255880E-01 -0.10931965404E-01  0.63337009210E-02  0.23578008220E-01  0.00000000000E+00 0. -1.
     999901    1    3    3    0    0  0.55808424319E-01 -0.42697928220E-01  0.10614373051E+00  0.88915925729E+00  0.88000000000E+00 0. -1.
        -11    1    4    4    0    0 -0.24249805796E-01  0.24752608064E-01 -0.44349680137E-01  0.56284100209E-01  0.51100000000E-03 0.  1.
         11    1    4    4    0    0 -0.11651362642E-01  0.28877285561E-01 -0.68127751291E-01  0.74908634280E-01  0.51100000000E-03 0. -1.
</event>
<event>
 8    1  0.1109294E+005  0.1043930E+01  0.7957747E-01            NaN
         13   -1    0    0    0    0  0.00000000000E+00  0.00000000000E+00  0.74505805969E-08  0.10566000000E+00  0.10566000000E+00 0.  1.
     999900   -1    0    0    0    0 -0.00000000000E+00 -0.00000000000E+00 -0.74505805969E-08  0.93827000000E+00  0.93827000000E+00 0.  1.
     999902    2    1    2    0    0  0.84734521799E-02  0.93825419213E-02  0.33180341607E-01  0.10084227253E+01  0.10077974134E+01 0.  0.
     999903    2    3    3    0    0  0.22722723852E-01 -0.46187555714E-01 -0.10218601674E+00  0.11622592616E+00  0.20417429139E-01 0.  0.
         14    1    1    2    0    0 -0.84734521799E-02 -0.93825419213E-02 -0.33180341607E-01  0.35507274662E-01  0.00000000000E+00 0. -1.
     999901    1    3    3    0    0 -0.14249271672E-01  0.55570097635E-01  0.13536635834E+00  0.89219679918E+00  0.88000000000E+00 0. -1.
        -11    1    4    4    0    0  0.12231289448E-01 -0.19969882286E-01 -0.67773912018E-01  0.71707495503E-01  0.51100000000E-03 0. -1.
         11    1    4    4    0    0  0.10491434404E-01 -0.26217673428E-01 -0.34412104720E-01  0.44518430656E-01  0.51100000000E-03 0.  1.
</event>
<event>
 8    1  0.1109294E+005  0.1043930E+01  0.7957747E-01            NaN
         13   -1    0    0    0    0  0.00000000000E+00  0.00000000000E+00  0.74505805969E-08  0.10566000000E+00  0.10566000000E+00 0. -1.
     999900   -1    0    0    0    0 -0.00000000000E+00 -0.00000000000E+00 -0.74505805969E-08  0.93827000000E+00  0.93827000000E+00 0.  1.
     999902    2    1    2    0    0  0.11474814808E-01  0.15772270561E-01  0.14036301647E-01  0.10198997346E+01  0.10196166019E+01 0.  0.
     999903    2    3    3    0    0 -0.84494373686E-01 -0.79966552128E-01 -0.48749114825E-01  0.12730911404E+00  0.17239074127E-01 0.  0.
         14    1    1    2    0    0 -0.11474814808E-01 -0.15772270561E-01 -0.14036301647E-01  0.24030265447E-01  0.00000000000E+00 0.  1.
     999901    1    3    3    0    0  0.95969188495E-01  0.95738822689E-01  0.62785416473E-01  0.89259062052E+00  0.88000000000E+00 0.  1.
        -11    1    4    4    0    0 -0.47721058299E-01 -0.56360579829E-01 -0.28771907143E-01  0.79258426211E-01  0.51100000000E-03 0. -1.
         11    1    4    4    0    0 -0.36773315387E-01 -0.23605972300E-01 -0.19977207682E-01  0.48050687826E-01  0.51100000000E-03 0.  1.
</event>
<event>
 8    1  0.1109294E+005  0.1043930E+01  0.7957747E-01            NaN
         13   -1    0    0    0    0  0.00000000000E+00  0.00000000000E+00  0.74505805969E-08  0.10566000000E+00  0.10566000000E+00 0.  1.
     999900   -1    0    0    0    0 -0.00000000000E+00 -0.00000000000E+00 -0.74505805969E-08  0.93827000000E+00  0.93827000000E+00 0.  1.
     999902    2    1    2    0    0 -0.32409198945E-02 -0.11540144399E-01 -0.20042724527E-01  0.10205764285E+01  0.10203091968E+01 0.  0.
     999903    2    3    3    0    0  0.92106144406E-01 -0.70327275554E-01  0.55763146129E-01  0.13024305304E+00  0.20597496817E-01 0.  0.
         14    1    1    2    0    0  0.32409198945E-02  0.11540144399E-01  0.20042724527E-01  0.23353571482E-01  0.00000000000E+00 0. -1.
     999901    1    3    3    0    0 -0.95347064300E-01  0.58787131156E-01 -0.75805870657E-01  0.89033337548E+00  0.88000000000E+00 0.  1.
        -11    1    4    4    0    0  0.71880961593E-01 -0.62558169267E-01  0.39533499655E-01  0.10316761070E+00  0.51100000000E-03 0.  1.
         11    1    4    4    0    0  0.20225182813E-01 -0.77691062877E-02  0.16229646474E-01  0.27075442342E-01  0.51100000000E-03 0. -1.
</event>
<event>
 8    1  0.1109294E+005  0.1043930E+01  0.7957747E-01            NaN
         13   -1    0    0    0    0  0.00000000000E+00  0.00000000000E+00  0.74505805969E-08  0.10566000000E+00  0.10566000000E+00 0.  1.
     999900   -1    0    0    0    0 -0.00000000000E+00 -0.00000000000E+00 -0.74505805969E-08  0.93827000000E+00  0.93827000000E+00 0. -1.
     999902    2    1    2    0    0  0.75828983080E-02 -0.20867542879E-01 -0.81203962447E-02  0.10202890286E+01  0.10200151011E+01 0.  0.
     999903    2    3    3    0    0  0.90561487580E-01 -0.46164464432E-01 -0.83183708602E-01  0.13284332246E+00  0.19881602981E-01 0.  0.
         14    1    1    2    0    0 -0.75828983080E-02  0.20867542879E-01  0.81203962447E-02  0.23640971379E-01  0.00000000000E+00 0. -1.
     999901    1    3    3    0    0 -0.82978589272E-01  0.25296921553E-01  0.75063312357E-01  0.88744570616E+00  0.88000000000E+00 0.  1.
        -11    1    4    4    0    0  0.60634183809E-01 -0.39482637246E-01 -0.51991725650E-01  0.89099851555E-01  0.51100000000E-03 0.  1.
         11    1    4    4    0    0  0.29927303772E-01 -0.66818271862E-02 -0.31191982952E-01  0.43743470908E-01  0.51100000000E-03 0. -1.
</event>
<event>
 8    1  0.1109294E+005  0.1043930E+01  0.7957747E-01            NaN
         13   -1    0    0    0    0  0.00000000000E+00  0.00000000000E+00  0.74505805969E-08  0.10566000000E+00  0.10566000000E+00 0.  1.
     999900   -1    0    0    0    0 -0.00000000000E+00 -0.00000000000E+00 -0.74505805969E-08  0.93827000000E+00  0.93827000000E+00 0. -1.
     999902    2    1    2    0    0 -0.19123432336E-01 -0.50618048763E-02  0.14689377610E-01  0.10192904921E+01  0.10189926408E+01 0.  0.
     999903    2    3    3    0    0  0.44923362214E-01 -0.24318076537E-02  0.12106954006E+00  0.13056913663E+00  0.19142720514E-01 0.  0.
         14    1    1    2    0    0  0.19123432336E-01  0.50618048763E-02 -0.14689377610E-01  0.24639507858E-01  0.00000000000E+00 0.  1.
     999901    1    3    3    0    0 -0.64046794550E-01 -0.26299972226E-02 -0.10638016245E+00  0.88872135551E+00  0.88000000000E+00 0. -1.
        -11    1    4    4    0    0  0.17658318829E-02 -0.26401024137E-02  0.25539850579E-01  0.25741666449E-01  0.51100000000E-03 0. -1.
         11    1    4    4    0    0  0.43157530331E-01  0.20829476005E-03  0.95529689484E-01  0.10482747018E+00  0.51100000000E-03 0.  1.
</event>
<event>
 8    1  0.1109294E+005  0.1043930E+01  0.7957747E-01            NaN
         13   -1    0    0    0    0  0.00000000000E+00  0.00000000000E+00  0.74505805969E-08  0.10566000000E+00  0.10566000000E+00 0.  1.
     999900   -1    0    0    0    0 -0.00000000000E+00 -0.00000000000E+00 -0.74505805969E-08  0.93827000000E+00  0.93827000000E+00 0. -1.
     999902    2    1    2    0    0  0.22213028038E-01 -0.65899369141E-02 -0.43452439421E-02  0.10203561368E+01  0.10200837803E+01 0.  0.
     999903    2    3    3    0    0  0.57749401069E-01  0.80449141832E-01 -0.84539133952E-01  0.13172252552E+00  0.19922369679E-01 0.  0.
         14    1    1    2    0    0 -0.22213028038E-01  0.65899369141E-02  0.43452439421E-02  0.23573863241E-01  0.00000000000E+00 0. -1.
     999901    1    3    3    0    0 -0.35536373031E-01 -0.87039078746E-01  0.80193890010E-01  0.88863361124E+00  0.88000000000E+00 0.  1.
        -11    1    4    4    0    0  0.35083985067E-01  0.41628992130E-01 -0.34496469601E-01  0.64452513759E-01  0.51100000000E-03 0. -1.
         11    1    4    4    0    0  0.22665416003E-01  0.38820149701E-01 -0.50042664351E-01  0.67270011757E-01  0.51100000000E-03 0.  1.
</event>
<event>
 8    1  0.1109294E+005  0.1043930E+01  0.7957747E-01            NaN
         13   -1    0    0    0    0  0.00000000000E+00  0.00000000000E+00  0.74505805969E-08  0.10566000000E+00  0.10566000000E+00 0.  1.
     999900   -1    0    0    0    0 -0.00000000000E+00 -0.00000000000E+00 -0.74505805969E-08  0.93827000000E+00  0.93827000000E+00 0. -1.
     999902    2    1    2    0    0  0.24330105409E-01  0.16071865783E-02 -0.35592959857E-02  0.10192884565E+01  0.10189905554E+01 0.  0.
     999903    2    3    3    0    0  0.36227028145E-01  0.35588662820E-01 -0.11898752245E+00  0.13102050540E+00  0.20721772299E-01 0.  0.
         14    1    1    2    0    0 -0.24330105409E-01 -0.16071865783E-02  0.35592959857E-02  0.24641543495E-01  0.00000000000E+00 0.  1.
     999901    1    3    3    0    0 -0.11896922736E-01 -0.33981476242E-01  0.11542822646E+00  0.88826795111E+00  0.88000000000E+00 0.  1.
        -11    1    4    4    0    0  0.11476208419E-01  0.30094734634E-02 -0.44242290293E-01  0.45808314328E-01  0.51100000000E-03 0. -1.
         11    1    4    4    0    0  0.24750819726E-01  0.32579189357E-01 -0.74745232155E-01  0.85212191071E-01  0.51100000000E-03 0.  1.
</event>
<event>
 8    1  0.1109294E+005  0.1043930E+01  0.7957747E-01            NaN
         13   -1    0    0    0    0  0.00000000000E+00  0.00000000000E+00  0.74505805969E-08  0.10566000000E+00  0.10566000000E+00 0. -1.
     999900   -1    0    0    0    0 -0.00000000000E+00 -0.00000000000E+00 -0.74505805969E-08  0.93827000000E+00  0.93827000000E+00 0. -1.
     999902    2    1    2    0    0 -0.21813372183E-01  0.83394945651E-02  0.36552426531E-02  0.10202925049E+01  0.10200186588E+01 0.  0.
     999903    2    3    3    0    0 -0.55164226733E-01 -0.18345342503E-01  0.11671789678E+00  0.13203155012E+00  0.20727259722E-01 0.  0.
         14    1    1    2    0    0  0.21813372183E-01 -0.83394945651E-02 -0.36552426531E-02  0.23637495096E-01  0.00000000000E+00 0.  1.
     999901    1    3    3    0    0  0.33350854550E-01  0.26684837068E-01 -0.11306265413E+00  0.88826095478E+00  0.88000000000E+00 0. -1.
        -11    1    4    4    0    0 -0.29214649693E-01 -0.47617833150E-03  0.44490114044E-01  0.53229257661E-01  0.51100000000E-03 0.  1.
         11    1    4    4    0    0 -0.25949577040E-01 -0.17869164171E-01  0.72227782740E-01  0.78802292462E-01  0.51100000000E-03 0. -1.
</event>
<event>
 8    1  0.1109294E+005  0.1043930E+01  0.7957747E-01            NaN
         13   -1    0    0    0    0  0.00000000000E+00  0.00000000000E+00  0.74505805969E-08  0.10566000000E+00  0.10566000000E+00 0.  1.
     999900   -1    0    0    0    0 -0.00000000000E+00 -0.00000000000E+00 -0.74505805969E-08  0.93827000000E+00  0.93827000000E+00 0. -1.
     999902    2    1    2    0    0 -0.12933880788E-01 -0.76484459226E-02 -0.18205708606E-01  0.10203242417E+01  0.10200511391E+01 0.  0.
     999903    2    3    3    0    0  0.31061090677E-01  0.11540517651E+00  0.43226682917E-01  0.12855538702E+00  0.19359630611E-01 0.  0.
         14    1    1    2    0    0  0.12933880788E-01  0.76484459226E-02  0.18205708606E-01  0.23605758262E-01  0.00000000000E+00 0.  1.
     999901    1    3    3    0    0 -0.43994971465E-01 -0.12305362243E+00 -0.61432391523E-01  0.89176885471E+00  0.88000000000E+00 0. -1.
        -11    1    4    4    0    0  0.29222398679E-01  0.88271648848E-01  0.39784014814E-01  0.10113783432E+00  0.51100000000E-03 0.  1.
         11    1    4    4    0    0  0.18386919977E-02  0.27133527664E-01  0.34426681028E-02  0.27417552707E-01  0.51100000000E-03 0. -1.
</event>
<event>
 8    1  0.1109294E+005  0.1043930E+01  0.7957747E-01            NaN
         13   -1    0    0    0    0  0.00000000000E+00  0.00000000000E+00  0.74505805969E-08  0.10566000000E+00  0.10566000000E+00 0. -1.
     999900   -1    0    0    0    0 -0.00000000000E+00 -0.00000000000E+00 -0.74505805969E-08  0.93827000000E+00  0.93827000000E+00 0.  1.
     999902    2    1    2    0    0  0.91613564345E-02 -0.19705039061E-01 -0.10129070215E-01  0.10199546568E+01  0.10196728323E+01 0.  0.
     999903    2    3    3    0    0  0.81885636201E-01 -0.89746162898E-01  0.47985753813E-01  0.13227683653E+00  0.20854202055E-01 0.  0.
         14    1    1    2    0    0 -0.91613564345E-02  0.19705039061E-01  0.10129070215E-01  0.23975343158E-01  0.00000000000E+00 0. -1.
     999901    1    3    3    0    0 -0.72724279767E-01  0.70041123836E-01 -0.58114824028E-01  0.88767782031E+00  0.88000000000E+00 0. -1.
        -11    1    4    4    0    0  0.10374976482E-01 -0.56071543271E-02 -0.17953854103E-03  0.11805662698E-01  0.51100000000E-03 0.  1.
         11    1    4    4    0    0  0.71510659719E-01 -0.84139008570E-01  0.48165292354E-01  0.12047117384E+00  0.51100000000E-03 0. -1.
</event>
<event>
 8    1  0.1109294E+005  0.1043930E+01  0.7957747E-01            NaN
         13   -1    0    0    0    0  0.00000000000E+00  0.00000000000E+00  0.74505805969E-08  0.10566000000E+00  0.10566000000E+00 0. -1.
     999900   -1    0    0    0    0 -0.00000000000E+00 -0.00000000000E+00 -0.74505805969E-08  0.93827000000E+00  0.93827000000E+00 0.  1.
     999902    2    1    2    0    0  0.77415690177E-02  0.11520022818E-01 -0.18905101363E-01  0.10204769474E+01  0.10202074076E+01 0.  0.
     999903    2    3    3    0    0 -0.10665552862E+00  0.54372261897E-01 -0.49900656832E-01  0.13149790675E+00  0.21676698958E-01 0.  0.
         14    1    1    2    0    0 -0.77415690177E-02 -0.11520022818E-01  0.18905101363E-01  0.23453052555E-01  0.00000000000E+00 0. -1.
     999901    1    3    3    0    0  0.11439709764E+00 -0.42852239079E-01  0.30995555469E-01  0.88897904070E+00  0.88000000000E+00 0.  1.
        -11    1    4    4    0    0 -0.91432975550E-01  0.51791424660E-01 -0.37117175357E-01  0.11144633917E+00  0.51100000000E-03 0. -1.
         11    1    4    4    0    0 -0.15222553069E-01  0.25808372372E-02 -0.12783481475E-01  0.20051567580E-01  0.51100000000E-03 0.  1.
</event>
<event>
 8    1  0.1109294E+005  0.1043930E+01  0.7957747E-01            NaN
         13   -1    0    0    0    0  0.00000000000E+00  0.00000000000E+00  0.74505805969E-08  0.10566000000E+00  0.10566000000E+00 0.  1.
     999900   -1    0    0    0    0 -0.00000000000E+00 -0.00000000000E+00 -0.74505805969E-08  0.93827000000E+00  0.93827000000E+00 0. -1.
     999902    2    1    2    0    0 -0.29256392650E-03 -0.86517197684E-02  0.21193921130E-01  0.10210363297E+01  0.10207796365E+01 0.  0.
     999903    2    3    3    0    0  0.33235294039E-01 -0.11962760028E+00 -0.37182111501E-01  0.13151537741E+00  0.22325715225E-01 0.  0.
         14    1    1    2    0    0  0.29256392650E-03  0.86517197684E-02 -0.21193921130E-01  0.22893670336E-01  0.00000000000E+00 0. -1.
     999901    1    3    3    0    0 -0.33527857965E-01  0.11097588051E+00  0.58376032631E-01  0.88952095226E+00  0.88000000000E+00 0. -1.
        -11    1    4    4    0    0  0.10787919187E-01 -0.36461693714E-01 -0.88716123204E-03  0.38037908525E-01  0.51100000000E-03 0. -1.
         11    1    4    4    0    0  0.22447374851E-01 -0.83165906567E-01 -0.36294950269E-01  0.93477468884E-01  0.51100000000E-03 0.  1.
</event>
<event>
 8    1  0.1109294E+005  0.1043930E+01  0.7957747E-01            NaN
         13   -1    0    0    0    0  0.00000000000E+00  0.00000000000E+00  0.74505805969E-08  0.10566000000E+00  0.10566000000E+00 0. -1.
     999900   -1    0    0    0    0 -0.00000000000E+00 -0.00000000000E+00 -0.74505805969E-08  0.93827000000E+00  0.93827000000E+00 0.  1.
     999902    2    1    2    0    0  0.76836137087E-02  0.16872073969E-01 -0.13876963871E-01  0.10207723895E+01  0.10205096747E+01 0.  0.
     999903    2    3    3    0    0 -0.70258259064E-01 -0.99049710502E-01  0.36512971728E-01  0.12833082764E+00  0.19711319139E-01 0.  0.
         14    1    1    2    0    0 -0.76836137087E-02 -0.16872073969E-01  0.13876963871E-01  0.23157610540E-01  0.00000000000E+00 0. -1.
     999901    1    3    3    0    0  0.77941872773E-01  0.11592178447E+00 -0.50389935598E-01  0.89244156182E+00  0.88000000000E+00 0.  1.
        -11    1    4    4    0    0 -0.40174484850E-01 -0.45583230441E-01  0.10366203093E-01  0.61640404103E-01  0.51100000000E-03 0.  1.
         11    1    4    4    0    0 -0.30083774215E-01 -0.53466480061E-01  0.26146768635E-01  0.66690423542E-01  0.51100000000E-03 0. -1.
</event>
<event>
 8    1  0.1109294E+005  0.1043930E+01  0.7957747E-01            NaN
         13   -1    0    0    0    0  0.00000000000E+00  0.00000000000E+00  0.74505805969E-08  0.10566000000E+00  0.10566000000E+00 0.  1.
     999900   -1    0    0    0    0 -0.00000000000E+00 -0.00000000000E+00 -0.74505805969E-08  0.93827000000E+00  0.93827000000E+00 0.  1.
     999902    2    1    2    0    0  0.27783228050E-02  0.13379831742E-01  0.19268910192E-01  0.10203073440E+01  0.10200338457E+01 0.  0.
     999903    2    3    3    0    0 -0.11939437213E+00 -0.45859299392E-01 -0.50160234094E-02  0.12956316075E+00  0.20083841642E-01 0.  0.
         14    1    1    2    0    0 -0.27783228050E-02 -0.13379831742E-01 -0.19268910192E-01  0.23622655970E-01  0.00000000000E+00 0. -1.
     999901    1    3    3    0    0  0.12217269494E+00  0.59239131134E-01  0.24284933602E-01  0.89074418328E+00  0.88000000000E+00 0. -1.
        -11    1    4    4    0    0 -0.24048466284E-01 -0.55080171923E-02  0.61422540021E-02  0.25429419758E-01  0.51100000000E-03 0.  1.
         11    1    4    4    0    0 -0.95345905850E-01 -0.40351282200E-01 -0.11158277412E-01  0.10413374099E+00  0.51100000000E-03 0. -1.
</event>
<event>
 8    1  0.1109294E+005  0.1043930E+01  0.7957747E-01            NaN
         13   -1    0    0    0    0  0.00000000000E+00  0.00000000000E+00  0.74505805969E-08  0.10566000000E+00  0.10566000000E+00 0.  1.
     999900   -1    0    0    0    0 -0.00000000000E+00 -0.00000000000E+00 -0.74505805969E-08  0.93827000000E+00  0.93827000000E+00 0.  1.
     999902    2    1    2    0    0  0.15038871651E-01 -0.14366727280E-01  0.52510217242E-02  0.10224790387E+01  0.10222540001E+01 0.  0.
     999903    2    3    3    0    0  0.10280001452E+00  0.81147016429E-01  0.13483551340E-01  0.13293271160E+00  0.18347163162E-01 0.  0.
         14    1    1    2    0    0 -0.15038871651E-01  0.14366727280E-01 -0.52510217242E-02  0.21450961340E-01  0.00000000000E+00 0.  1.
     999901    1    3    3    0    0 -0.87761142873E-01 -0.95513743709E-01 -0.82325296157E-02  0.88954632706E+00  0.88000000000E+00 0. -1.
        -11    1    4    4    0    0  0.88661896828E-01  0.74868446773E-01  0.16350760687E-01  0.11719140228E+00  0.51100000000E-03 0.  1.
         11    1    4    4    0    0  0.14138117696E-01  0.62785696557E-02 -0.28672093471E-02  0.15741309328E-01  0.51100000000E-03 0. -1.
</event>
<event>
 8    1  0.1109294E+005  0.1043930E+01  0.7957747E-01            NaN
         13   -1    0    0    0    0  0.00000000000E+00  0.00000000000E+00  0.74505805969E-08  0.10566000000E+00  0.10566000000E+00 0.  1.
     999900   -1    0    0    0    0 -0.00000000000E+00 -0.00000000000E+00 -0.74505805969E-08  0.93827000000E+00  0.93827000000E+00 0. -1.
     999902    2    1    2    0    0 -0.69952531136E-02  0.28546435569E-01 -0.10437751012E-02  0.10145204435E+01  0.10140940825E+01 0.  0.
     999903    2    3    3    0    0  0.92389421380E-02 -0.68889149598E-01 -0.10012205282E+00  0.12346839813E+00  0.19721736533E-01 0.  0.
         14    1    1    2    0    0  0.69952531136E-02 -0.28546435569E-01  0.10437751012E-02  0.29409556547E-01  0.00000000000E+00 0.  1.
     999901    1    3    3    0    0 -0.16234195252E-01  0.97435585167E-01  0.99078277722E-01  0.89105204532E+00  0.88000000000E+00 0.  1.
        -11    1    4    4    0    0  0.10158066577E-01 -0.68927069429E-01 -0.92658116656E-01  0.11593064703E+00  0.51100000000E-03 0.  1.
         11    1    4    4    0    0 -0.91912443927E-03  0.37919830385E-04 -0.74639361672E-02  0.75377511074E-02  0.51100000000E-03 0. -1.
</event>
<event>
 8    1  0.1109294E+005  0.1043930E+01  0.7957747E-01            NaN
         13   -1    0    0    0    0  0.00000000000E+00  0.00000000000E+00  0.74505805969E-08  0.10566000000E+00  0.10566000000E+00 0. -1.
     999900   -1    0    0    0    0 -0.00000000000E+00 -0.00000000000E+00 -0.74505805969E-08  0.93827000000E+00  0.93827000000E+00 0. -1.
     999902    2    1    2    0    0 -0.10442565006E-01  0.92357154349E-02  0.19563447326E-01  0.10199076339E+01  0.10196246895E+01 0.  0.
     999903    2    3    3    0    0  0.10059703684E-01  0.12922094206E+00  0.87899952490E-02  0.13146356421E+00  0.20153292366E-01 0.  0.
         14    1    1    2    0    0  0.10442565006E-01 -0.92357154349E-02 -0.19563447326E-01  0.24022366136E-01  0.00000000000E+00 0.  1.
     999901    1    3    3    0    0 -0.20502268690E-01 -0.11998522663E+00  0.10773452077E-01  0.88844406965E+00  0.88000000000E+00 0.  1.
        -11    1    4    4    0    0 -0.14558587196E-02  0.51342817134E-01 -0.47346103026E-02  0.51583738248E-01  0.51100000000E-03 0. -1.
         11    1    4    4    0    0  0.11515562403E-01  0.77878124928E-01  0.13524605552E-01  0.79879825964E-01  0.51100000000E-03 0.  1.
</event>
<event>
 7    1  0.1109294E+005  0.1043930E+01  0.7957747E-01            NaN
         13   -1    0    0    0    0  0.00000000000E+00  0.00000000000E+00  0.74505805969E-08  0.10566000000E+00  0.10566000000E+00 0. -1.
     999900   -1    0    0    0    0 -0.00000000000E+00 -0.00000000000E+00 -0.74505805969E-08  0.93827000000E+00  0.93827000000E+00 0. -1.
     999903    2    1    2    0    0  0.48640929274E-01  0.73279396429E-01  0.78170675087E-01  0.11927664005E+00  0.19505191034E-01 0.  0.
         14    1    1    2    0    0 -0.22766503482E-01 -0.26684736373E-01 -0.21673149757E-01  0.41232441797E-01  0.00000000000E+00 0.  1.
     999901    1    1    2    0    0 -0.25874425792E-01 -0.46594660056E-01 -0.56497525330E-01  0.88342091815E+00  0.88000000000E+00 0. -1.
        -11    1    3    3    0    0  0.11606540789E-01  0.32353428280E-01  0.23897346892E-01  0.41866459368E-01  0.51100000000E-03 0. -1.
         11    1    3    3    0    0  0.37034388485E-01  0.40925968149E-01  0.54273328195E-01  0.77410180685E-01  0.51100000000E-03 0.  1.
</event>
<event>
 8    1  0.1109294E+005  0.1043930E+01  0.7957747E-01            NaN
         13   -1    0    0    0    0  0.00000000000E+00  0.00000000000E+00  0.74505805969E-08  0.10566000000E+00  0.10566000000E+00 0.  1.
     999900   -1    0    0    0    0 -0.00000000000E+00 -0.00000000000E+00 -0.74505805969E-08  0.93827000000E+00  0.93827000000E+00 0.  1.
     999902    2    1    2    0    0 -0.51318203759E-02  0.19029022276E-01  0.11693696637E-01  0.10210131544E+01  0.10207559354E+01 0.  0.
     999903    2    3    3    0    0 -0.54567382979E-01 -0.30709013812E-01 -0.11177745023E+00  0.12963059281E+00  0.19729404351E-01 0.  0.
         14    1    1    2    0    0  0.51318203759E-02 -0.19029022276E-01 -0.11693696637E-01  0.22916845555E-01  0.00000000000E+00 0. -1.
     999901    1    3    3    0    0  0.49435562604E-01  0.49738036087E-01  0.12347114687E+00  0.89138256164E+00  0.88000000000E+00 0. -1.
        -11    1    4    4    0    0 -0.29101640792E-01 -0.55424819708E-02 -0.55851957882E-01  0.63224417146E-01  0.51100000000E-03 0.  1.
         11    1    4    4    0    0 -0.25465742187E-01 -0.25166531841E-01 -0.55925492352E-01  0.66406175660E-01  0.51100000000E-03 0. -1.
</event>
<event>
 8    1  0.1109294E+005  0.1043930E+01  0.7957747E-01            NaN
         13   -1    0    0    0    0  0.00000000000E+00  0.00000000000E+00  0.74505805969E-08  0.10566000000E+00  0.10566000000E+00 0.  1.
     999900   -1    0    0    0    0 -0.00000000000E+00 -0.00000000000E+00 -0.74505805969E-08  0.93827000000E+00  0.93827000000E+00 0.  1.
     999902    2    1    2    0    0 -0.13606267872E-01  0.80728136955E-02 -0.30729065907E-01  0.10093673563E+01  0.10087754377E+01 0.  0.
     999903    2    3    3    0    0  0.16315627533E-01  0.25061351450E-01  0.11159185313E+00  0.11726916989E+00  0.20125741812E-01 0.  0.
         14    1    1    2    0    0  0.13606267872E-01 -0.80728136955E-02  0.30729065907E-01  0.34562643676E-01  0.00000000000E+00 0.  1.
     999901    1    3    3    0    0 -0.29921895405E-01 -0.16988537755E-01 -0.14232091904E+00  0.89209818643E+00  0.88000000000E+00 0.  1.
        -11    1    4    4    0    0  0.41607324445E-02  0.20946865919E-01  0.50333774543E-01  0.54679364179E-01  0.51100000000E-03 0. -1.
         11    1    4    4    0    0  0.12154895088E-01  0.41144855316E-02  0.61258078589E-01  0.62589805713E-01  0.51100000000E-03 0.  1.
</event>
<event>
 8    1  0.1109294E+005  0.1043930E+01  0.7957747E-01            NaN
         13   -1    0    0    0    0  0.00000000000E+00  0.00000000000E+00  0.74505805969E-08  0.10566000000E+00  0.10566000000E+00 0. -1.
     999900   -1    0    0    0    0 -0.00000000000E+00 -0.00000000000E+00 -0.74505805969E-08  0.93827000000E+00  0.93827000000E+00 0. -1.
     999902    2    1    2    0    0 -0.82326225516E-02  0.18004677238E-01  0.13043328099E-01  0.10202219236E+01  0.10199464205E+01 0.  0.
     999903    2    3    3    0    0 -0.12985215023E+00 -0.34747867292E-02  0.42485322036E-02  0.13155436752E+00  0.20367781548E-01 0.  0.
         14    1    1    2    0    0  0.82326225516E-02 -0.18004677238E-01 -0.13043328099E-01  0.23708076354E-01  0.00000000000E+00 0.  1.
     999901    1    3    3    0    0  0.12161952768E+00  0.21479463967E-01  0.87947958954E-02  0.88866755613E+00  0.88000000000E+00 0. -1.
        -11    1    4    4    0    0 -0.90350361639E-02 -0.26883520026E-02 -0.44183699627E-02  0.10423158307E-01  0.51100000000E-03 0. -1.
         11    1    4    4    0    0 -0.12081711406E+00 -0.78643472664E-03  0.86669021662E-02  0.12113120921E+00  0.51100000000E-03 0.  1.
</event>
<event>
 8    1  0.1109294E+005  0.1043930E+01  0.7957747E-01            NaN
         13   -1    0    0    0    0  0.00000000000E+00  0.00000000000E+00  0.74505805969E-08  0.10566000000E+00  0.10566000000E+00 0. -1.
     999900   -1    0    0    0    0 -0.00000000000E+00 -0.00000000000E+00 -0.74505805969E-08  0.93827000000E+00  0.93827000000E+00 0. -1.
     999902    2    1    2    0    0  0.70485605856E-02 -0.20759524528E-01 -0.68509625417E-02  0.10209609828E+01  0.10207025779E+01 0.  0.
     999903    2    3    3    0    0  0.51593721888E-01 -0.79993142528E-01  0.90129155289E-01  0.13253651431E+00  0.19540931465E-01 0.  0.
         14    1    1    2    0    0 -0.70485605856E-02  0.20759524528E-01  0.68509625417E-02  0.22969017234E-01  0.00000000000E+00 0.  1.
     999901    1    3    3    0    0 -0.44545161302E-01  0.59233618000E-01 -0.96980117831E-01  0.88842446846E+00  0.88000000000E+00 0. -1.
        -11    1    4    4    0    0  0.32312322050E-01 -0.32674427943E-01  0.39417158376E-01  0.60544842002E-01  0.51100000000E-03 0. -1.
         11    1    4    4    0    0  0.19281399838E-01 -0.47318714586E-01  0.50711996913E-01  0.71991672307E-01  0.51100000000E-03 0.  1.
</event>
<event>
 8    1  0.1109294E+005  0.1043930E+01  0.7957747E-01            NaN
         13   -1    0    0    0    0  0.00000000000E+00  0.00000000000E+00  0.74505805969E-08  0.10566000000E+00  0.10566000000E+00 0.  1.
     999900   -1    0    0    0    0 -0.00000000000E+00 -0.00000000000E+00 -0.74505805969E-08  0.93827000000E+00  0.93827000000E+00 0.  1.
     999902    2    1    2    0    0  0.23411727974E-01 -0.40634536240E-02 -0.29329663715E-02  0.10199879250E+01  0.10197068913E+01 0.  0.
     999903    2    3    3    0    0  0.52740950205E-01 -0.10868243825E+00 -0.47904220791E-01  0.13216601218E+00  0.24074056401E-01 0.  0.
         14    1    1    2    0    0 -0.23411727974E-01  0.40634536240E-02  0.29329663715E-02  0.23942074969E-01  0.00000000000E+00 0.  1.
     999901    1    3    3    0    0 -0.29329222230E-01  0.10461898463E+00  0.44971254419E-01  0.88782191286E+00  0.88000000000E+00 0. -1.
        -11    1    4    4    0    0  0.11979001799E-01 -0.51637049715E-01 -0.18688266438E-01  0.56208485221E-01  0.51100000000E-03 0.  1.
         11    1    4    4    0    0  0.40761948405E-01 -0.57045388538E-01 -0.29215954353E-01  0.75957526955E-01  0.51100000000E-03 0. -1.
</event>
<event>
 8    1  0.1109294E+005  0.1043930E+01  0.7957747E-01            NaN
         13   -1    0    0    0    0  0.00000000000E+00  0.00000000000E+00  0.74505805969E-08  0.10566000000E+00  0.10566000000E+00 0. -1.
     999900   -1    0    0    0    0 -0.00000000000E+00 -0.00000000000E+00 -0.74505805969E-08  0.93827000000E+00  0.93827000000E+00 0.  1.
     999902    2    1    2    0    0 -0.15446320955E-01 -0.15066086476E-01  0.12363080884E-01  0.10190619168E+01  0.10187584447E+01 0.  0.
     999903    2    3    3    0    0  0.35250462222E-01 -0.73844169558E-01  0.10081115653E+00  0.13122854902E+00  0.19039073812E-01 0.  0.
         14    1    1    2    0    0  0.15446320955E-01  0.15066086476E-01 -0.12363080884E-01  0.24868083193E-01  0.00000000000E+00 0.  1.
     999901    1    3    3    0    0 -0.50696783177E-01  0.58778083082E-01 -0.88448075648E-01  0.88783336779E+00  0.88000000000E+00 0. -1.
        -11    1    4    4    0    0  0.95191669980E-02 -0.27857910822E-01  0.49993520963E-01  0.58019746595E-01  0.51100000000E-03 0. -1.
         11    1    4    4    0    0  0.25731295224E-01 -0.45986258735E-01  0.50817635569E-01  0.73208802423E-01  0.51100000000E-03 0.  1.
</event>
<event>
 8    1  0.1109294E+005  0.1043930E+01  0.7957747E-01            NaN
         13   -1    0    0    0    0  0.00000000000E+00  0.00000000000E+00  0.74505805969E-08  0.10566000000E+00  0.10566000000E+00 0. -1.
     999900   -1    0    0    0    0 -0.00000000000E+00 -0.00000000000E+00 -0.74505805969E-08  0.93827000000E+00  0.93827000000E+00 0.  1.
     999902    2    1    2    0    0 -0.12899974266E-01 -0.13867484571E-01  0.14880845635E-01  0.10198435716E+01  0.10195590981E+01 0.  0.
     999903    2    3    3    0    0 -0.77454427111E-01  0.47113888540E-01 -0.89856150686E-01  0.12919445799E+00  0.19954282399E-01 0.  0.
         14    1    1    2    0    0  0.12899974266E-01  0.13867484571E-01 -0.14880845635E-01  0.24086428361E-01  0.00000000000E+00 0. -1.
     999901    1    3    3    0    0  0.64554452845E-01 -0.60981373111E-01  0.10473699632E+00  0.89064911365E+00  0.88000000000E+00 0.  1.
        -11    1    4    4    0    0 -0.58687272086E-01  0.24929864277E-01 -0.61392834464E-01  0.88515734660E-01  0.51100000000E-03 0. -1.
         11    1    4    4    0    0 -0.18767155025E-01  0.22184024263E-01 -0.28463316223E-01  0.40678723328E-01  0.51100000000E-03 0.  1.
</event>
<event>
 8    1  0.1109294E+005  0.1043930E+01  0.7957747E-01            NaN
         13   -1    0    0    0    0  0.00000000000E+00  0.00000000000E+00  0.74505805969E-08  0.10566000000E+00  0.10566000000E+00 0. -1.
     999900   -1    0    0    0    0 -0.00000000000E+00 -0.00000000000E+00 -0.74505805969E-08  0.93827000000E+00  0.93827000000E+00 0. -1.
     999902    2    1    2    0    0 -0.13220016840E-01 -0.15531306911E-01  0.12713208136E-01  0.10198963569E+01  0.10196131437E+01 0.  0.
     999903    2    3    3    0    0  0.55688943244E-01 -0.47239359796E-01  0.10759506673E+00  0.13155159697E+00  0.19907505332E-01 0.  0.
         14    1    1    2    0    0  0.13220016840E-01  0.15531306911E-01 -0.12713208136E-01  0.24033643102E-01  0.00000000000E+00 0.  1.
     999901    1    3    3    0    0 -0.68908960084E-01  0.31708052885E-01 -0.94881858591E-01  0.88834475993E+00  0.88000000000E+00 0. -1.
        -11    1    4    4    0    0  0.25550645210E-01 -0.12002883491E-01  0.51874894860E-01  0.59060735862E-01  0.51100000000E-03 0. -1.
         11    1    4    4    0    0  0.30138298034E-01 -0.35236476305E-01  0.55720171867E-01  0.72490861111E-01  0.51100000000E-03 0.  1.
</event>
<event>
 8    1  0.1109294E+005  0.1043930E+01  0.7957747E-01            NaN
         13   -1    0    0    0    0  0.00000000000E+00  0.00000000000E+00  0.74505805969E-08  0.10566000000E+00  0.10566000000E+00 0.  1.
     999900   -1    0    0    0    0 -0.00000000000E+00 -0.00000000000E+00 -0.74505805969E-08  0.93827000000E+00  0.93827000000E+00 0.  1.
     999902    2    1    2    0    0  0.58408902432E-02 -0.88459507518E-02 -0.24756300449E-01  0.10169996963E+01  0.10166430746E+01 0.  0.
     999903    2    3    3    0    0  0.25070083876E-01 -0.12217318859E+00 -0.28562310945E-01  0.12951600046E+00  0.20094567758E-01 0.  0.
         14    1    1    2    0    0 -0.58408902432E-02  0.88459507518E-02  0.24756300449E-01  0.26930303665E-01  0.00000000000E+00 0.  1.
     999901    1    3    3    0    0 -0.19229193633E-01  0.11332723784E+00  0.38060104959E-02  0.88748369587E+00  0.88000000000E+00 0.  1.
        -11    1    4    4    0    0  0.14294373546E-01 -0.10496808385E+00 -0.25667537938E-01  0.10900326310E+00  0.51100000000E-03 0.  1.
         11    1    4    4    0    0  0.10775710330E-01 -0.17205104743E-01 -0.28947730071E-02  0.20512737363E-01  0.51100000000E-03 0. -1.
</event>
<event>
 8    1  0.1109294E+005  0.1043930E+01  0.7957747E-01            NaN
         13   -1    0    0    0    0  0.00000000000E+00  0.00000000000E+00  0.74505805969E-08  0.10566000000E+00  0.10566000000E+00 0. -1.
     999900   -1    0    0    0    0 -0.00000000000E+00 -0.00000000000E+00 -0.74505805969E-08  0.93827000000E+00  0.93827000000E+00 0.  1.
     999902    2    1    2    0    0  0.63211027321E-02  0.90393780990E-02  0.21374699827E-01  0.10198770482E+01  0.10195933743E+01 0.  0.
     999903    2    3    3    0    0 -0.12479888516E+00 -0.33506477276E-02 -0.19676804423E-01  0.12912950264E+00  0.26481375387E-01 0.  0.
         14    1    1    2    0    0 -0.63211027321E-02 -0.90393780990E-02 -0.21374699827E-01  0.24052951770E-01  0.00000000000E+00 0.  1.
     999901    1    3    3    0    0  0.13111998790E+00  0.12390025827E-01  0.41051504250E-01  0.89074754559E+00  0.88000000000E+00 0. -1.
        -11    1    4    4    0    0 -0.72888767119E-01 -0.13159581787E-01 -0.47068852060E-02  0.74218345807E-01  0.51100000000E-03 0.  1.
         11    1    4    4    0    0 -0.51910118045E-01  0.98089340597E-02 -0.14969919217E-01  0.54911156837E-01  0.51100000000E-03 0. -1.
</event>
<event>
 8    1  0.1109294E+005  0.1043930E+01  0.7957747E-01            NaN
         13   -1    0    0    0    0  0.00000000000E+00  0.00000000000E+00  0.74505805969E-08  0.10566000000E+00  0.10566000000E+00 0.  1.
     999900   -1    0    0    0    0 -0.00000000000E+00 -0.00000000000E+00 -0.74505805969E-08  0.93827000000E+00  0.93827000000E+00 0.  1.
     999902    2    1    2    0    0  0.35519215426E-02 -0.17804232382E-01 -0.16460736827E-01  0.10194236193E+01  0.10191290168E+01 0.  0.
     999903    2    3    3    0    0  0.41295587435E-01 -0.28502482052E-01 -0.12038595379E+00  0.13244025556E+00  0.23020130280E-01 0.  0.
         14    1    1    2    0    0 -0.35519215426E-02  0.17804232382E-01  0.16460736827E-01  0.24506380684E-01  0.00000000000E+00 0.  1.
     999901    1    3    3    0    0 -0.37743665892E-01  0.10698249670E-01  0.10392521696E+00  0.88698336376E+00  0.88000000000E+00 0. -1.
        -11    1    4    4    0    0  0.26456795437E-01 -0.51304839120E-02 -0.49979219347E-01  0.56784393785E-01  0.51100000000E-03 0. -1.
         11    1    4    4    0    0  0.14838791998E-01 -0.23371998140E-01 -0.70406734442E-01  0.75655861775E-01  0.51100000000E-03 0.  1.
</event>
<event>
 8    1  0.1109294E+005  0.1043930E+01  0.7957747E-01            NaN
         13   -1    0    0    0    0  0.00000000000E+00  0.00000000000E+00  0.74505805969E-08  0.10566000000E+00  0.10566000000E+00 0. -1.
     999900   -1    0    0    0    0 -0.00000000000E+00 -0.00000000000E+00 -0.74505805969E-08  0.93827000000E+00  0.93827000000E+00 0.  1.
     999902    2    1    2    0    0  0.72164411426E-02 -0.32646510253E-02 -0.23059196954E-01  0.10195484182E+01  0.10192568447E+01 0.  0.
     999903    2    3    3    0    0  0.10612438128E+00  0.36863958543E-01 -0.66409031106E-01  0.13203937930E+00  0.20072432158E-01 0.  0.
         14    1    1    2    0    0 -0.72164411426E-02  0.32646510253E-02  0.23059196954E-01  0.24381581845E-01  0.00000000000E+00 0. -1.
     999901    1    3    3    0    0 -0.98907940135E-01 -0.40128609568E-01  0.43349834151E-01  0.88750903885E+00  0.88000000000E+00 0. -1.
        -11    1    4    4    0    0  0.15522732998E-01  0.22107743773E-02 -0.25267838937E-02  0.15889887379E-01  0.51100000000E-03 0.  1.
         11    1    4    4    0    0  0.90601648279E-01  0.34653184165E-01 -0.63882247212E-01  0.11614949192E+00  0.51100000000E-03 0. -1.
</event>
<event>
 8    1  0.1109294E+005  0.1043930E+01  0.7957747E-01            NaN
         13   -1    0    0    0    0  0.00000000000E+00  0.00000000000E+00  0.74505805969E-08  0.10566000000E+00  0.10566000000E+00 0.  1.
     999900   -1    0    0    0    0 -0.00000000000E+00 -0.00000000000E+00 -0.74505805969E-08  0.93827000000E+00  0.93827000000E+00 0. -1.
     999902    2    1    2    0    0 -0.17197432491E-01  0.12702419958E-01  0.10396730212E-01  0.10201561666E+01  0.10198791149E+01 0.  0.
     999903    2    3    3    0    0 -0.98179779486E-03  0.86958700131E-01 -0.95305441289E-01  0.13057767592E+00  0.20115239365E-01 0.  0.
         14    1    1    2    0    0  0.17197432491E-01 -0.12702419958E-01 -0.10396730212E-01  0.23773833435E-01  0.00000000000E+00 0. -1.
     999901    1    3    3    0    0 -0.16215634696E-01 -0.74256280173E-01  0.10570217150E+00  0.88957849064E+00  0.88000000000E+00 0.  1.
        -11    1    4    4    0    0  0.64358264418E-02  0.13784593178E-01 -0.21843035425E-01  0.26623564537E-01  0.51100000000E-03 0. -1.
         11    1    4    4    0    0 -0.74176242366E-02  0.73174106953E-01 -0.73462405864E-01  0.10395411139E+00  0.51100000000E-03 0.  1.
</event>
<event>
 8    1  0.1109294E+005  0.1043930E+01  0.7957747E-01            NaN
         13   -1    0    0    0    0  0.00000000000E+00  0.00000000000E+00  0.74505805969E-08  0.10566000000E+00  0.10566000000E+00 0. -1.
     999900   -1    0    0    0    0 -0.00000000000E+00 -0.00000000000E+00 -0.74505805969E-08  0.93827000000E+00  0.93827000000E+00 0.  1.
     999902    2    1    2    0    0  0.18998418589E-01 -0.93341810127E-02 -0.10728386777E-01  0.10201988996E+01  0.10199228547E+01 0.  0.
     999903    2    3    3    0    0 -0.44037632208E-03 -0.61353454067E-01  0.11211650078E+00  0.12993223284E+00  0.23405878062E-01 0.  0.
         14    1    1    2    0    0 -0.18998418589E-01  0.93341810127E-02  0.10728386777E-01  0.23731100415E-01  0.00000000000E+00 0. -1.
     999901    1    3    3    0    0  0.19438794911E-01  0.52019273054E-01 -0.12284488755E+00  0.89026666674E+00  0.88000000000E+00 0.  1.
        -11    1    4    4    0    0  0.94101532692E-02 -0.48697239833E-01  0.86111952561E-01  0.99375558599E-01  0.51100000000E-03 0. -1.
         11    1    4    4    0    0 -0.98505295913E-02 -0.12656214233E-01  0.26004548215E-01  0.30556674243E-01  0.51100000000E-03 0.  1.
</event>
<event>
 8    1  0.1109294E+005  0.1043930E+01  0.7957747E-01            NaN
         13   -1    0    0    0    0  0.00000000000E+00  0.00000000000E+00  0.74505805969E-08  0.10566000000E+00  0.10566000000E+00 0. -1.
     999900   -1    0    0    0    0 -0.00000000000E+00 -0.00000000000E+00 -0.74505805969E-08  0.93827000000E+00  0.93827000000E+00 0. -1.
     999902    2    1    2    0    0 -0.57986448074E-02 -0.24401219336E-01 -0.42728933775E-02  0.10184878813E+01  0.10181700560E+01 0.  0.
     999903    2    3    3    0    0  0.28246457522E-01  0.22710246274E-02 -0.12449975992E+00  0.12926070164E+00  0.20127564520E-01 0.  0.
         14    1    1    2    0    0  0.57986448074E-02  0.24401219336E-01  0.42728933775E-02  0.25442118711E-01  0.00000000000E+00 0. -1.
     999901    1    3    3    0    0 -0.34045102329E-01 -0.26672243964E-01  0.12022686654E+00  0.88922717965E+00  0.88000000000E+00 0.  1.
        -11    1    4    4    0    0  0.27599293539E-01  0.81355694531E-02 -0.10029978985E+00  0.10434662170E+00  0.51100000000E-03 0.  1.
         11    1    4    4    0    0  0.64716398272E-03 -0.58645448258E-02 -0.24199970062E-01  0.24914079940E-01  0.51100000000E-03 0. -1.
</event>
<event>
 8    1  0.1109294E+005  0.1043930E+01  0.7957747E-01            NaN
         13   -1    0    0    0    0  0.00000000000E+00  0.00000000000E+00  0.74505805969E-08  0.10566000000E+00  0.10566000000E+00 0.  1.
     999900   -1    0    0    0    0 -0.00000000000E+00 -0.00000000000E+00 -0.74505805969E-08  0.93827000000E+00  0.93827000000E+00 0.  1.
     999902    2    1    2    0    0  0.78208723799E-02 -0.17421973559E-01  0.13631339105E-01  0.10204671653E+01  0.10201973980E+01 0.  0.
     999903    2    3    3    0    0  0.98393454632E-01 -0.85799393914E-01 -0.13469159899E-01  0.13276603240E+00  0.20064724750E-01 0.  0.
         14    1    1    2    0    0 -0.78208723799E-02  0.17421973559E-01 -0.13631339105E-01  0.23462834724E-01  0.00000000000E+00 0. -1.
     999901    1    3    3    0    0 -0.90572582252E-01  0.68377420355E-01  0.27100499004E-01  0.88770113288E+00  0.88000000000E+00 0.  1.
        -11    1    4    4    0    0  0.25125931152E-01 -0.11703665652E-01 -0.54510557468E-02  0.28253554390E-01  0.51100000000E-03 0.  1.
         11    1    4    4    0    0  0.73267523481E-01 -0.74095728263E-01 -0.80181041524E-02  0.10451247801E+00  0.51100000000E-03 0. -1.
</event>
<event>
 8    1  0.1109294E+005  0.1043930E+01  0.7957747E-01            NaN
         13   -1    0    0    0    0  0.00000000000E+00  0.00000000000E+00  0.74505805969E-08  0.10566000000E+00  0.10566000000E+00 0.  1.
     999900   -1    0    0    0    0 -0.00000000000E+00 -0.00000000000E+00 -0.74505805969E-08  0.93827000000E+00  0.93827000000E+00 0. -1.
     999902    2    1    2    0    0  0.72487683521E-02 -0.22925507166E-01 -0.94470892260E-03  0.10198672488E+01  0.10195833409E+01 0.  0.
     999903    2    3    3    0    0  0.11140771786E+00  0.39586086661E-01  0.50544932261E-01  0.13003132611E+00  0.19355044211E-01 0.  0.
         14    1    1    2    0    0 -0.72487683521E-02  0.22925507166E-01  0.94470892260E-03  0.24062751222E-01  0.00000000000E+00 0. -1.
     999901    1    3    3    0    0 -0.10415894951E+00 -0.62511593827E-01 -0.51489641184E-01  0.88983592267E+00  0.88000000000E+00 0. -1.
        -11    1    4    4    0    0  0.54976254456E-01  0.94560006949E-02  0.21744437676E-01  0.59873919147E-01  0.51100000000E-03 0. -1.
         11    1    4    4    0    0  0.56431463402E-01  0.30130085966E-01  0.28800494585E-01  0.70157406961E-01  0.51100000000E-03 0.  1.
</event>
<event>
 8    1  0.1109294E+005  0.1043930E+01  0.7957747E-01            NaN
         13   -1    0    0    0    0  0.00000000000E+00  0.00000000000E+00  0.74505805969E-08  0.10566000000E+00  0.10566000000E+00 0.  1.
     999900   -1    0    0    0    0 -0.00000000000E+00 -0.00000000000E+00 -0.74505805969E-08  0.93827000000E+00  0.93827000000E+00 0. -1.
     999902    2    1    2    0    0 -0.16738064312E-01  0.89476737506E-02  0.15204323785E-01  0.10196113832E+01  0.10193213319E+01 0.  0.
     999903    2    3    3    0    0  0.10067720028E+00 -0.65984109939E-01  0.39717031505E-01  0.12831906895E+00  0.19963452690E-01 0.  0.
         14    1    1    2    0    0  0.16738064312E-01 -0.89476737506E-02 -0.15204323785E-01  0.24318616824E-01  0.00000000000E+00 0. -1.
     999901    1    3    3    0    0 -0.11741526459E+00  0.74931783690E-01 -0.24512707720E-01  0.89129231423E+00  0.88000000000E+00 0.  1.
        -11    1    4    4    0    0  0.71726988515E-01 -0.35750534011E-01  0.26913368087E-01  0.84542605036E-01  0.51100000000E-03 0. -1.
         11    1    4    4    0    0  0.28950211763E-01 -0.30233575928E-01  0.12803663418E-01  0.43776463910E-01  0.51100000000E-03 0.  1.
</event>
<event>
 8    1  0.1109294E+005  0.1043930E+01  0.7957747E-01            NaN
         13   -1    0    0    0    0  0.00000000000E+00  0.00000000000E+00  0.74505805969E-08  0.10566000000E+00  0.10566000000E+00 0. -1.
     999900   -1    0    0    0    0 -0.00000000000E+00 -0.00000000000E+00 -0.74505805969E-08  0.93827000000E+00  0.93827000000E+00 0. -1.
     999902    2    1    2    0    0  0.16899718068E-01 -0.13452824027E-01 -0.79273260350E-02  0.10209208400E+01  0.10206615208E+01 0.  0.
     999903    2    3    3    0    0  0.55757275134E-01 -0.11840844081E+00 -0.18735869368E-01  0.13376672948E+00  0.20324185831E-01 0.  0.
         14    1    1    2    0    0 -0.16899718068E-01  0.13452824027E-01  0.79273260350E-02  0.23009159983E-01  0.00000000000E+00 0. -1.
     999901    1    3    3    0    0 -0.38857557066E-01  0.10495561678E+00  0.10808543333E-01  0.88715411054E+00  0.88000000000E+00 0. -1.
        -11    1    4    4    0    0  0.40218544168E-01 -0.72887166330E-01 -0.35526313423E-02  0.83324381913E-01  0.51100000000E-03 0.  1.
         11    1    4    4    0    0  0.15538730966E-01 -0.45521274477E-01 -0.15183238026E-01  0.50442347566E-01  0.51100000000E-03 0. -1.
</event>
<event>
 8    1  0.1109294E+005  0.1043930E+01  0.7957747E-01            NaN
         13   -1    0    0    0    0  0.00000000000E+00  0.00000000000E+00  0.74505805969E-08  0.10566000000E+00  0.10566000000E+00 0.  1.
     999900   -1    0    0    0    0 -0.00000000000E+00 -0.00000000000E+00 -0.74505805969E-08  0.93827000000E+00  0.93827000000E+00 0. -1.
     999902    2    1    2    0    0 -0.98258573599E-02 -0.10519656246E-01 -0.19304191680E-01  0.10198496666E+01  0.10195653388E+01 0.  0.
     999903    2    3    3    0    0  0.10820902353E+00 -0.16744275655E-01 -0.68728679825E-01  0.13057256747E+00  0.18330313825E-01 0.  0.
         14    1    1    2    0    0  0.98258573599E-02  0.10519656246E-01  0.19304191680E-01  0.24080333404E-01  0.00000000000E+00 0.  1.
     999901    1    3    3    0    0 -0.11803488089E+00  0.62246194083E-02  0.49424488145E-01  0.88927709912E+00  0.88000000000E+00 0.  1.
        -11    1    4    4    0    0  0.12929107188E-01 -0.82032154774E-02 -0.10663785858E-01  0.18666333509E-01  0.51100000000E-03 0.  1.
         11    1    4    4    0    0  0.95279916346E-01 -0.85410601772E-02 -0.58064893967E-01  0.11190623396E+00  0.51100000000E-03 0. -1.
</event>
<event>
 8    1  0.1109294E+005  0.1043930E+01  0.7957747E-01            NaN
         13   -1    0    0    0    0  0.00000000000E+00  0.00000000000E+00  0.74505805969E-08  0.10566000000E+00  0.10566000000E+00 0. -1.
     999900   -1    0    0    0    0 -0.00000000000E+00 -0.00000000000E+00 -0.74505805969E-08  0.93827000000E+00  0.93827000000E+00 0.  1.
     999902    2    1    2    0    0 -0.29651735976E-02  0.21089420043E-01  0.80440133558E-02  0.10211646306E+01  0.10209108388E+01 0.  0.
     999903    2    3    3    0    0  0.63009456549E-02  0.11003712578E+00  0.73900726920E-01  0.13418398706E+00  0.19903617229E-01 0.  0.
         14    1    1    2    0    0  0.29651735976E-02 -0.21089420043E-01 -0.80440133558E-02  0.22765369382E-01  0.00000000000E+00 0.  1.
     999901    1    3    3    0    0 -0.92661192525E-02 -0.88947705735E-01 -0.65856713564E-01  0.88698064356E+00  0.88000000000E+00 0.  1.
        -11    1    4    4    0    0  0.11564930231E-01  0.70857476066E-01  0.40522598400E-01  0.82443141788E-01  0.51100000000E-03 0.  1.
         11    1    4    4    0    0 -0.52639845763E-02  0.39179649712E-01  0.33378128520E-01  0.51740845274E-01  0.51100000000E-03 0. -1.
</event>
<event>
 8    1  0.1109294E+005  0.1043930E+01  0.7957747E-01            NaN
         13   -1    0    0    0    0  0.00000000000E+00  0.00000000000E+00  0.74505805969E-08  0.10566000000E+00  0.10566000000E+00 0.  1.
     999900   -1    0    0    0    0 -0.00000000000E+00 -0.00000000000E+00 -0.74505805969E-08  0.93827000000E+00  0.93827000000E+00 0.  1.
     999902    2    1    2    0    0 -0.17606999764E-01  0.14718226792E-01 -0.91700255367E-02  0.10192172096E+01  0.10189175621E+01 0.  0.
     999903    2    3    3    0    0 -0.77320784092E-01  0.19773933749E-01  0.10041300514E+00  0.13039791593E+00  0.23480476300E-01 0.  0.
         14    1    1    2    0    0  0.17606999764E-01 -0.14718226792E-01  0.91700255367E-02  0.24712790391E-01  0.00000000000E+00 0.  1.
     999901    1    3    3    0    0  0.59713784329E-01 -0.50557069572E-02 -0.10958303068E+00  0.88881929368E+00  0.88000000000E+00 0.  1.
        -11    1    4    4    0    0 -0.27119101682E-01  0.29792688503E-02  0.18864837774E-01  0.33173256460E-01  0.51100000000E-03 0. -1.
         11    1    4    4    0    0 -0.50201682410E-01  0.16794664899E-01  0.81548167369E-01  0.97224659465E-01  0.51100000000E-03 0.  1.
</event>
<event>
 8    1  0.1109294E+005  0.1043930E+01  0.7957747E-01            NaN
         13   -1    0    0    0    0  0.00000000000E+00  0.00000000000E+00  0.74505805969E-08  0.10566000000E+00  0.10566000000E+00 0. -1.
     999900   -1    0    0    0    0 -0.00000000000E+00 -0.00000000000E+00 -0.74505805969E-08  0.93827000000E+00  0.93827000000E+00 0. -1.
     999902    2    1    2    0    0  0.17500140580E-01  0.88038281589E-02  0.12969975375E-01  0.10204356907E+01  0.10201651906E+01 0.  0.
     999903    2    3    3    0    0 -0.73948079517E-01  0.57510351153E-01  0.89601846068E-01  0.13104964064E+00  0.19229106586E-01 0.  0.
         14    1    1    2    0    0 -0.17500140580E-01 -0.88038281589E-02 -0.12969975375E-01  0.23494309349E-01  0.00000000000E+00 0.  1.
     999901    1    3    3    0    0  0.91448220097E-01 -0.48706522994E-01 -0.76631870693E-01  0.88938605001E+00  0.88000000000E+00 0. -1.
        -11    1    4    4    0    0 -0.69431172885E-01  0.57632574056E-01  0.80718187393E-01  0.12106976608E+00  0.51100000000E-03 0. -1.
         11    1    4    4    0    0 -0.45169066321E-02 -0.12222290225E-03  0.88836586745E-02  0.99798745687E-02  0.51100000000E-03 0.  1.
</event>
<event>
 8    1  0.1109294E+005  0.1043930E+01  0.7957747E-01            NaN
         13   -1    0    0    0    0  0.00000000000E+00  0.00000000000E+00  0.74505805969E-08  0.10566000000E+00  0.10566000000E+00 0.  1.
     999900   -1    0    0    0    0 -0.00000000000E+00 -0.00000000000E+00 -0.74505805969E-08  0.93827000000E+00  0.93827000000E+00 0. -1.
     999902    2    1    2    0    0  0.62987112761E-02  0.94211370347E-02 -0.20063872901E-01  0.10208867671E+01  0.10206266706E+01 0.  0.
     999903    2    3    3    0    0 -0.61217606868E-01  0.11259723601E+00 -0.26439289205E-01  0.13226738483E+00  0.19232579817E-01 0.  0.
         14    1    1    2    0    0 -0.62987112761E-02 -0.94211370347E-02  0.20063872901E-01  0.23043232902E-01  0.00000000000E+00 0.  1.
     999901    1    3    3    0    0  0.67516318145E-01 -0.10317609898E+00  0.63754163039E-02  0.88861938227E+00  0.88000000000E+00 0.  1.
        -11    1    4    4    0    0 -0.20198960754E-01  0.57210953451E-01 -0.12210399577E-01  0.61890598552E-01  0.51100000000E-03 0.  1.
         11    1    4    4    0    0 -0.41018646115E-01  0.55386282563E-01 -0.14228889628E-01  0.70376786274E-01  0.51100000000E-03 0. -1.
</event>
<event>
 8    1  0.1109294E+005  0.1043930E+01  0.7957747E-01            NaN
         13   -1    0    0    0    0  0.00000000000E+00  0.00000000000E+00  0.74505805969E-08  0.10566000000E+00  0.10566000000E+00 0.  1.
     999900   -1    0    0    0    0 -0.00000000000E+00 -0.00000000000E+00 -0.74505805969E-08  0.93827000000E+00  0.93827000000E+00 0. -1.
     999902    2    1    2    0    0  0.18436392336E-01  0.12434886533E-01  0.16611634883E-01  0.10161725978E+01  0.10157934215E+01 0.  0.
     999903    2    3    3    0    0 -0.16027785234E-01  0.12491452666E+00  0.12670015041E-01  0.12833534615E+00  0.21187329238E-01 0.  0.
         14    1    1    2    0    0 -0.18436392336E-01 -0.12434886533E-01 -0.16611634883E-01  0.27757402237E-01  0.00000000000E+00 0.  1.
     999901    1    3    3    0    0  0.34464177569E-01 -0.11247964013E+00  0.39416198421E-02  0.88783725161E+00  0.88000000000E+00 0.  1.
        -11    1    4    4    0    0  0.18960572378E-02  0.52604232051E-01 -0.69609128215E-03  0.52645473944E-01  0.51100000000E-03 0.  1.
         11    1    4    4    0    0 -0.17923842472E-01  0.72310294612E-01  0.13366106323E-01  0.75689872209E-01  0.51100000000E-03 0. -1.
</event>
<event>
 8    1  0.1109294E+005  0.1043930E+01  0.7957747E-01            NaN
         13   -1    0    0    0    0  0.00000000000E+00  0.00000000000E+00  0.74505805969E-08  0.10566000000E+00  0.10566000000E+00 0.  1.
     999900   -1    0    0    0    0 -0.00000000000E+00 -0.00000000000E+00 -0.74505805969E-08  0.93827000000E+00  0.93827000000E+00 0. -1.
     999902    2    1    2    0    0  0.18191098736E-01  0.42077519125E-02 -0.14535220447E-01  0.10202679231E+01  0.10199935005E+01 0.  0.
     999903    2    3    3    0    0 -0.11218452250E+00 -0.26191254371E-01  0.51147524001E-01  0.12772317627E+00  0.20634719525E-01 0.  0.
         14    1    1    2    0    0 -0.18191098736E-01 -0.42077519125E-02  0.14535220447E-01  0.23662076891E-01  0.00000000000E+00 0.  1.
     999901    1    3    3    0    0  0.13037562124E+00  0.30399006284E-01 -0.65682744448E-01  0.89254474684E+00  0.88000000000E+00 0. -1.
        -11    1    4    4    0    0 -0.44412176410E-01 -0.34088423012E-02  0.27791541662E-01  0.52504214386E-01  0.51100000000E-03 0. -1.
         11    1    4    4    0    0 -0.67772346092E-01 -0.22782412070E-01  0.23355982339E-01  0.75218961882E-01  0.51100000000E-03 0.  1.
</event>
<event>
 8    1  0.1109294E+005  0.1043930E+01  0.7957747E-01            NaN
         13   -1    0    0    0    0  0.00000000000E+00  0.00000000000E+00  0.74505805969E-08  0.10566000000E+00  0.10566000000E+00 0.  1.
     999900   -1    0    0    0    0 -0.00000000000E+00 -0.00000000000E+00 -0.74505805969E-08  0.93827000000E+00  0.93827000000E+00 0.  1.
     999902    2    1    2    0    0 -0.36213939174E-02 -0.20122841641E-02  0.23756333284E-01  0.10198151259E+01  0.10195299720E+01 0.  0.
     999903    2    3    3    0    0 -0.45904589629E-01  0.53457504262E-01 -0.10475684964E+00  0.12774987927E+00  0.19521731392E-01 0.  0.
         14    1    1    2    0    0  0.36213939174E-02  0.20122841641E-02 -0.23756333284E-01  0.24114874094E-01  0.00000000000E+00 0. -1.
     999901    1    3    3    0    0  0.42283195712E-01 -0.55469788426E-01  0.12851318292E+00  0.89206524663E+00  0.88000000000E+00 0. -1.
        -11    1    4    4    0    0 -0.21855896452E-01  0.34448459302E-01 -0.72873838792E-01  0.83517866707E-01  0.51100000000E-03 0. -1.
         11    1    4    4    0    0 -0.24048693177E-01  0.19009044960E-01 -0.31883010848E-01  0.44232012565E-01  0.51100000000E-03 0.  1.
</event>
<event>
 8    1  0.1109294E+005  0.1043930E+01  0.7957747E-01            NaN
         13   -1    0    0    0    0  0.00000000000E+00  0.00000000000E+00  0.74505805969E-08  0.10566000000E+00  0.10566000000E+00 0. -1.
     999900   -1    0    0    0    0 -0.00000000000E+00 -0.00000000000E+00 -0.74505805969E-08  0.93827000000E+00  0.93827000000E+00 0. -1.
     999902    2    1    2    0    0  0.17033329482E-01 -0.40379752843E-02 -0.16377367699E-01  0.10199579803E+01  0.10196762348E+01 0.  0.
     999903    2    3    3    0    0  0.10343958148E+00  0.75295154379E-01  0.22108431487E-01  0.13134054706E+00  0.19810332375E-01 0.  0.
         14    1    1    2    0    0 -0.17033329482E-01  0.40379752843E-02  0.16377367699E-01  0.23972019740E-01  0.00000000000E+00 0. -1.
     999901    1    3    3    0    0 -0.86406252002E-01 -0.79333129663E-01 -0.38485799186E-01  0.88861743320E+00  0.88000000000E+00 0. -1.
        -11    1    4    4    0    0  0.69641976573E-01  0.38827565684E-01  0.12959469461E-01  0.80782385008E-01  0.51100000000E-03 0. -1.
         11    1    4    4    0    0  0.33797604912E-01  0.36467588695E-01  0.91489620254E-02  0.50558162053E-01  0.51100000000E-03 0.  1.
</event>
<event>
 8    1  0.1109294E+005  0.1043930E+01  0.7957747E-01            NaN
         13   -1    0    0    0    0  0.00000000000E+00  0.00000000000E+00  0.74505805969E-08  0.10566000000E+00  0.10566000000E+00 0. -1.
     999900   -1    0    0    0    0 -0.00000000000E+00 -0.00000000000E+00 -0.74505805969E-08  0.93827000000E+00  0.93827000000E+00 0.  1.
     999902    2    1    2    0    0 -0.23727597393E-01  0.81909386729E-03  0.27536488717E-02  0.10200291135E+01  0.10197490574E+01 0.  0.
     999903    2    3    3    0    0 -0.64561369185E-01  0.97251113526E-01  0.58424621310E-01  0.13207315261E+00  0.20098054409E-01 0.  0.
         14    1    1    2    0    0  0.23727597393E-01 -0.81909386729E-03 -0.27536488717E-02  0.23900886488E-01  0.00000000000E+00 0. -1.
     999901    1    3    3    0    0  0.40833771792E-01 -0.96432019659E-01 -0.55670972438E-01  0.88795596090E+00  0.88000000000E+00 0.  1.
        -11    1    4    4    0    0 -0.19039689534E-01  0.44814214297E-01  0.28829133282E-01  0.56588016641E-01  0.51100000000E-03 0. -1.
         11    1    4    4    0    0 -0.45521679652E-01  0.52436899229E-01  0.29595488028E-01  0.75485135966E-01  0.51100000000E-03 0.  1.
</event>
<event>
 8    1  0.1109294E+005  0.1043930E+01  0.7957747E-01            NaN
         13   -1    0    0    0    0  0.00000000000E+00  0.00000000000E+00  0.74505805969E-08  0.10566000000E+00  0.10566000000E+00 0. -1.
     999900   -1    0    0    0    0 -0.00000000000E+00 -0.00000000000E+00 -0.74505805969E-08  0.93827000000E+00  0.93827000000E+00 0. -1.
     999902    2    1    2    0    0 -0.10851664525E-01 -0.10657021432E-01  0.16005574057E-01  0.10218503911E+01  0.10216118209E+01 0.  0.
     999903    2    3    3    0    0 -0.69246548654E-01  0.14198037612E-01  0.11260655671E+00  0.13429223170E+00  0.18907620372E-01 0.  0.
         14    1    1    2    0    0  0.10851664525E-01  0.10657021432E-01 -0.16005574057E-01  0.22079608910E-01  0.00000000000E+00 0.  1.
     999901    1    3    3    0    0  0.58394884129E-01 -0.24855059044E-01 -0.96600982652E-01  0.88755815939E+00  0.88000000000E+00 0. -1.
        -11    1    4    4    0    0 -0.50652209916E-02  0.22940549120E-02  0.21502177131E-01  0.22215397679E-01  0.51100000000E-03 0.  1.
         11    1    4    4    0    0 -0.64181327662E-01  0.11903982700E-01  0.91104379578E-01  0.11207683402E+00  0.51100000000E-03 0. -1.
</event>
<event>
 8    1  0.1109294E+005  0.1043930E+01  0.7957747E-01            NaN
         13   -1    0    0    0    0  0.00000000000E+00  0.00000000000E+00  0.74505805969E-08  0.10566000000E+00  0.10566000000E+00 0.  1.
     999900   -1    0    0    0    0 -0.00000000000E+00 -0.00000000000E+00 -0.74505805969E-08  0.93827000000E+00  0.93827000000E+00 0.  1.
     999902    2    1    2    0    0 -0.40802944658E-02  0.13629597831E-01 -0.18283229751E-01  0.10207634027E+01  0.10205004817E+01 0.  0.
     999903    2    3    3    0    0  0.95466703560E-01 -0.41373867181E-01 -0.77907671094E-01  0.13144340407E+00  0.19546735871E-01 0.  0.
         14    1    1    2    0    0  0.40802944658E-02 -0.13629597831E-01  0.18283229751E-01  0.23166597292E-01  0.00000000000E+00 0.  1.
     999901    1    3    3    0    0 -0.99546998026E-01  0.55003465012E-01  0.59624441343E-01  0.88931999864E+00  0.88000000000E+00 0. -1.
        -11    1    4    4    0    0  0.47073054302E-01 -0.12520180240E-01 -0.44258033806E-01  0.65815363191E-01  0.51100000000E-03 0. -1.
         11    1    4    4    0    0  0.48393649258E-01 -0.28853686940E-01 -0.33649637287E-01  0.65628040875E-01  0.51100000000E-03 0.  1.
</event>
<event>
 8    1  0.1109294E+005  0.1043930E+01  0.7957747E-01            NaN
         13   -1    0    0    0    0  0.00000000000E+00  0.00000000000E+00  0.74505805969E-08  0.10566000000E+00  0.10566000000E+00 0. -1.
     999900   -1    0    0    0    0 -0.00000000000E+00 -0.00000000000E+00 -0.74505805969E-08  0.93827000000E+00  0.93827000000E+00 0.  1.
     999902    2    1    2    0    0 -0.23362130885E-01  0.79010848639E-02 -0.15128303388E-03  0.10192674943E+01  0.10189690799E+01 0.  0.
     999903    2    3    3    0    0  0.84059004813E-01 -0.74032252544E-01  0.56845795173E-01  0.12713463473E+00  0.19623460771E-01 0.  0.
         14    1    1    2    0    0  0.23362130885E-01 -0.79010848639E-02  0.15128303388E-03  0.24662505713E-01  0.00000000000E+00 0. -1.
     999901    1    3    3    0    0 -0.10742113570E+00  0.81933337407E-01 -0.56997078207E-01  0.89213285955E+00  0.88000000000E+00 0. -1.
        -11    1    4    4    0    0  0.38645426967E-01 -0.40013968661E-01  0.37886194179E-01  0.67306846189E-01  0.51100000000E-03 0.  1.
         11    1    4    4    0    0  0.45413577846E-01 -0.34018283883E-01  0.18959600994E-01  0.59827788543E-01  0.51100000000E-03 0. -1.
</event>
<event>
 8    1  0.1109294E+005  0.1043930E+01  0.7957747E-01            NaN
         13   -1    0    0    0    0  0.00000000000E+00  0.00000000000E+00  0.74505805969E-08  0.10566000000E+00  0.10566000000E+00 0. -1.
     999900   -1    0    0    0    0 -0.00000000000E+00 -0.00000000000E+00 -0.74505805969E-08  0.93827000000E+00  0.93827000000E+00 0.  1.
     999902    2    1    2    0    0 -0.13116191168E-01  0.15240506450E-02  0.20845397773E-01  0.10192543478E+01  0.10189556113E+01 0.  0.
     999903    2    3    3    0    0 -0.23992880019E-02  0.42250805990E-01  0.12397230149E+00  0.13223198122E+00  0.18035468672E-01 0.  0.
         14    1    1    2    0    0  0.13116191168E-01 -0.15240506450E-02 -0.20845397773E-01  0.24675652159E-01  0.00000000000E+00 0.  1.
     999901    1    3    3    0    0 -0.10716903166E-01 -0.40726755345E-01 -0.10312690372E+00  0.88702236662E+00  0.88000000000E+00 0.  1.
        -11    1    4    4    0    0  0.74211631920E-02  0.15164008460E-01  0.53237543779E-01  0.55852645455E-01  0.51100000000E-03 0.  1.
         11    1    4    4    0    0 -0.98204511939E-02  0.27086797529E-01  0.70734757715E-01  0.76379335766E-01  0.51100000000E-03 0. -1.
</event>
<event>
 8    1  0.1109294E+005  0.1043930E+01  0.7957747E-01            NaN
         13   -1    0    0    0    0  0.00000000000E+00  0.00000000000E+00  0.74505805969E-08  0.10566000000E+00  0.10566000000E+00 0.  1.
     999900   -1    0    0    0    0 -0.00000000000E+00 -0.00000000000E+00 -0.74505805969E-08  0.93827000000E+00  0.93827000000E+00 0. -1.
     999902    2    1    2    0    0 -0.54511493833E-02 -0.19580784996E-01  0.12641597803E-01  0.10199939985E+01  0.10197131091E+01 0.  0.
     999903    2    3    3    0    0 -0.12500258603E+00 -0.35277486675E-01  0.79088093729E-02  0.13175904554E+00  0.20682099422E-01 0.  0.
         14    1    1    2    0    0  0.54511493833E-02  0.19580784996E-01 -0.12641597803E-01  0.23936001455E-01  0.00000000000E+00 0. -1.
     999901    1    3    3    0    0  0.11955143665E+00  0.15696701679E-01  0.47327884304E-02  0.88823495300E+00  0.88000000000E+00 0. -1.
        -11    1    4    4    0    0 -0.55875900646E-01 -0.16725963119E-01  0.13813903361E-01  0.59941297636E-01  0.51100000000E-03 0.  1.
         11    1    4    4    0    0 -0.69126685384E-01 -0.18551523556E-01 -0.59050939881E-02  0.71817747907E-01  0.51100000000E-03 0. -1.
</event>
<event>
 8    1  0.1109294E+005  0.1043930E+01  0.7957747E-01            NaN
         13   -1    0    0    0    0  0.00000000000E+00  0.00000000000E+00  0.74505805969E-08  0.10566000000E+00  0.10566000000E+00 0.  1.
     999900   -1    0    0    0    0 -0.00000000000E+00 -0.00000000000E+00 -0.74505805969E-08  0.93827000000E+00  0.93827000000E+00 0.  1.
     999902    2    1    2    0    0 -0.27423618025E-01 -0.37691823417E-02  0.52111680325E-02  0.10157623264E+01  0.10153716984E+01 0.  0.
     999903    2    3    3    0    0  0.64906269763E-01 -0.10484820226E+00 -0.57971466582E-02  0.12510921808E+00  0.20316007679E-01 0.  0.
         14    1    1    2    0    0  0.27423618025E-01  0.37691823417E-02 -0.52111680325E-02  0.28167673552E-01  0.00000000000E+00 0.  1.
     999901    1    3    3    0    0 -0.92329887788E-01  0.10107901992E+00  0.11008314691E-01  0.89065310836E+00  0.88000000000E+00 0.  1.
        -11    1    4    4    0    0  0.38712029322E-01 -0.79917766623E-01 -0.47585829401E-02  0.88929049634E-01  0.51100000000E-03 0. -1.
         11    1    4    4    0    0  0.26194240441E-01 -0.24930435639E-01 -0.10385637181E-02  0.36180168450E-01  0.51100000000E-03 0.  1.
</event>
<event>
 8    1  0.1109294E+005  0.1043930E+01  0.7957747E-01            NaN
         13   -1    0    0    0    0  0.00000000000E+00  0.00000000000E+00  0.74505805969E-08  0.10566000000E+00  0.10566000000E+00 0.  1.
     999900   -1    0    0    0    0 -0.00000000000E+00 -0.00000000000E+00 -0.74505805969E-08  0.93827000000E+00  0.93827000000E+00 0.  1.
     999902    2    1    2    0    0  0.10332840850E-01 -0.12227325464E-01  0.17119767469E-01  0.10204915375E+01  0.10202223368E+01 0.  0.
     999903    2    3    3    0    0 -0.57657488603E-01  0.11093796169E+00  0.26247078714E-01  0.12927008312E+00  0.19754187265E-01 0.  0.
         14    1    1    2    0    0 -0.10332840850E-01  0.12227325464E-01 -0.17119767469E-01  0.23438462539E-01  0.00000000000E+00 0. -1.
     999901    1    3    3    0    0  0.67990329453E-01 -0.12316528715E+00 -0.91273112455E-02  0.89122145434E+00  0.88000000000E+00 0.  1.
        -11    1    4    4    0    0 -0.23334083279E-01  0.34882282849E-01  0.17124014533E-01  0.45329307230E-01  0.51100000000E-03 0.  1.
         11    1    4    4    0    0 -0.34323405324E-01  0.76055678840E-01  0.91230641808E-02  0.83940775895E-01  0.51100000000E-03 0. -1.
</event>
<event>
 8    1  0.1109294E+005  0.1043930E+01  0.7957747E-01            NaN
         13   -1    0    0    0    0  0.00000000000E+00  0.00000000000E+00  0.74505805969E-08  0.10566000000E+00  0.10566000000E+00 0.  1.
     999900   -1    0    0    0    0 -0.00000000000E+00 -0.00000000000E+00 -0.74505805969E-08  0.93827000000E+00  0.93827000000E+00 0. -1.
     999902    2    1    2    0    0 -0.84744892680E-04  0.21599570153E-01 -0.15215266616E-01  0.10175093083E+01  0.10171662300E+01 0.  0.
     999903    2    3    3    0    0  0.60056843816E-01  0.83324170280E-01 -0.78801138418E-01  0.13101616108E+00  0.20146295082E-01 0.  0.
         14    1    1    2    0    0  0.84744892680E-04 -0.21599570153E-01  0.15215266616E-01  0.26420691714E-01  0.00000000000E+00 0.  1.
     999901    1    3    3    0    0 -0.60141588709E-01 -0.61724600128E-01  0.63585871802E-01  0.88649314721E+00  0.88000000000E+00 0.  1.
        -11    1    4    4    0    0  0.53739952319E-01  0.68861904313E-01 -0.57805962088E-01  0.10474604868E+00  0.51100000000E-03 0.  1.
         11    1    4    4    0    0  0.63168914976E-02  0.14462265968E-01 -0.20995176330E-01  0.26270112395E-01  0.51100000000E-03 0. -1.
</event>
<event>
 8    1  0.1109294E+005  0.1043930E+01  0.7957747E-01            NaN
         13   -1    0    0    0    0  0.00000000000E+00  0.00000000000E+00  0.74505805969E-08  0.10566000000E+00  0.10566000000E+00 0.  1.
     999900   -1    0    0    0    0 -0.00000000000E+00 -0.00000000000E+00 -0.74505805969E-08  0.93827000000E+00  0.93827000000E+00 0. -1.
     999902    2    1    2    0    0 -0.21096173655E-01 -0.39207795307E-02 -0.88161375100E-02  0.10207320403E+01  0.10204683987E+01 0.  0.
     999903    2    3    3    0    0 -0.84478306302E-01 -0.72942877508E-01  0.68289812412E-01  0.13240401963E+00  0.20250390592E-01 0.  0.
         14    1    1    2    0    0  0.21096173655E-01  0.39207795307E-02  0.88161375100E-02  0.23197959730E-01  0.00000000000E+00 0. -1.
     999901    1    3    3    0    0  0.63382132647E-01  0.69022097977E-01 -0.77105949922E-01  0.88832802064E+00  0.88000000000E+00 0. -1.
        -11    1    4    4    0    0 -0.52255539973E-01 -0.47360610316E-01  0.54077119853E-01  0.88872182824E-01  0.51100000000E-03 0. -1.
         11    1    4    4    0    0 -0.32222766329E-01 -0.25582267192E-01  0.14212692559E-01  0.43531836802E-01  0.51100000000E-03 0.  1.
</event>
<event>
 8    1  0.1109294E+005  0.1043930E+01  0.7957747E-01            NaN
         13   -1    0    0    0    0  0.00000000000E+00  0.00000000000E+00  0.74505805969E-08  0.10566000000E+00  0.10566000000E+00 0.  1.
     999900   -1    0    0    0    0 -0.00000000000E+00 -0.00000000000E+00 -0.74505805969E-08  0.93827000000E+00  0.93827000000E+00 0.  1.
     999902    2    1    2    0    0  0.58480878478E-02  0.19857840778E-01 -0.11060848289E-01  0.10204592451E+01  0.10201892935E+01 0.  0.
     999903    2    3    3    0    0 -0.68295234918E-01 -0.32958191916E-01  0.10184561082E+00  0.12858782266E+00  0.20293303437E-01 0.  0.
         14    1    1    2    0    0 -0.58480878478E-02 -0.19857840778E-01  0.11060848289E-01  0.23470754924E-01  0.00000000000E+00 0. -1.
     999901    1    3    3    0    0  0.74143322766E-01  0.52816032694E-01 -0.11290645911E+00  0.89187142242E+00  0.88000000000E+00 0.  1.
        -11    1    4    4    0    0 -0.12965529772E-01  0.86669184490E-03  0.11394742058E-01  0.17290384165E-01  0.51100000000E-03 0.  1.
         11    1    4    4    0    0 -0.55329705146E-01 -0.33824883761E-01  0.90450868766E-01  0.11129743849E+00  0.51100000000E-03 0. -1.
</event>
<event>
 8    1  0.1109294E+005  0.1043930E+01  0.7957747E-01            NaN
         13   -1    0    0    0    0  0.00000000000E+00  0.00000000000E+00  0.74505805969E-08  0.10566000000E+00  0.10566000000E+00 0.  1.
     999900   -1    0    0    0    0 -0.00000000000E+00 -0.00000000000E+00 -0.74505805969E-08  0.93827000000E+00  0.93827000000E+00 0. -1.
     999902    2    1    2    0    0  0.34298194818E-02 -0.29956504830E-03  0.24791854771E-01  0.10189002284E+01  0.10185927479E+01 0.  0.
     999903    2    3    3    0    0 -0.85736763587E-02  0.11597879550E+00  0.55984392519E-01  0.13062227901E+00  0.20083292471E-01 0.  0.
         14    1    1    2    0    0 -0.34298194818E-02  0.29956504830E-03 -0.24791854771E-01  0.25029771551E-01  0.00000000000E+00 0. -1.
     999901    1    3    3    0    0  0.12003495840E-01 -0.11627836055E+00 -0.31192537748E-01  0.88827794944E+00  0.88000000000E+00 0. -1.
        -11    1    4    4    0    0  0.37179590504E-02  0.77238524966E-01  0.35067913094E-01  0.84909555459E-01  0.51100000000E-03 0. -1.
         11    1    4    4    0    0 -0.12291635409E-01  0.38740270535E-01  0.20916479424E-01  0.45712723554E-01  0.51100000000E-03 0.  1.
</event>
<event>
 8    1  0.1109294E+005  0.1043930E+01  0.7957747E-01            NaN
         13   -1    0    0    0    0  0.00000000000E+00  0.00000000000E+00  0.74505805969E-08  0.10566000000E+00  0.10566000000E+00 0. -1.
     999900   -1    0    0    0    0 -0.00000000000E+00 -0.00000000000E+00 -0.74505805969E-08  0.93827000000E+00  0.93827000000E+00 0. -1.
     999902    2    1    2    0    0  0.38282161385E-02  0.75988293861E-02  0.22831430056E-01  0.10195646220E+01  0.10192734406E+01 0.  0.
     999903    2    3    3    0    0  0.89960780169E-01 -0.53047085533E-01  0.77513061133E-01  0.13159681495E+00  0.20062696866E-01 0.  0.
         14    1    1    2    0    0 -0.38282161385E-02 -0.75988293861E-02 -0.22831430056E-01  0.24365378003E-01  0.00000000000E+00 0.  1.
     999901    1    3    3    0    0 -0.86132564030E-01  0.60645914919E-01 -0.54681631077E-01  0.88796780705E+00  0.88000000000E+00 0. -1.
        -11    1    4    4    0    0  0.36184984500E-01 -0.27632288813E-01  0.44031341659E-01  0.63339692592E-01  0.51100000000E-03 0. -1.
         11    1    4    4    0    0  0.53775795668E-01 -0.25414796719E-01  0.33481719474E-01  0.68257122353E-01  0.51100000000E-03 0.  1.
</event>
<event>
 8    1  0.1109294E+005  0.1043930E+01  0.7957747E-01            NaN
         13   -1    0    0    0    0  0.00000000000E+00  0.00000000000E+00  0.74505805969E-08  0.10566000000E+00  0.10566000000E+00 0.  1.
     999900   -1    0    0    0    0 -0.00000000000E+00 -0.00000000000E+00 -0.74505805969E-08  0.93827000000E+00  0.93827000000E+00 0.  1.
     999902    2    1    2    0    0 -0.13421449430E-01 -0.24426632107E-02  0.19041938664E-01  0.10205057105E+01  0.10202368391E+01 0.  0.
     999903    2    3    3    0    0  0.73433891174E-02 -0.12412706233E+00 -0.33254274667E-01  0.13035226005E+00  0.20601260882E-01 0.  0.
         14    1    1    2    0    0  0.13421449430E-01  0.24426632108E-02 -0.19041938664E-01  0.23424289455E-01  0.00000000000E+00 0. -1.
     999901    1    3    3    0    0 -0.20764838548E-01  0.12168439912E+00  0.52296213331E-01  0.89015345050E+00  0.88000000000E+00 0.  1.
        -11    1    4    4    0    0 -0.30497079506E-02 -0.15168039949E-01 -0.10075520728E-01  0.18470175782E-01  0.51100000000E-03 0. -1.
         11    1    4    4    0    0  0.10393097068E-01 -0.10895902238E+00 -0.23178753940E-01  0.11188208426E+00  0.51100000000E-03 0.  1.
</event>
<event>
 8    1  0.1109294E+005  0.1043930E+01  0.7957747E-01            NaN
         13   -1    0    0    0    0  0.00000000000E+00  0.00000000000E+00  0.74505805969E-08  0.10566000000E+00  0.10566000000E+00 0.  1.
     999900   -1    0    0    0    0 -0.00000000000E+00 -0.00000000000E+00 -0.74505805969E-08  0.93827000000E+00  0.93827000000E+00 0.  1.
     999902    2    1    2    0    0  0.10402177648E-01 -0.66981210522E-02  0.27521537264E-01  0.10137554223E+01  0.10133062475E+01 0.  0.
     999903    2    3    3    0    0 -0.41021672186E-01 -0.39381363255E-01 -0.10576584443E+00  0.12163540080E+00  0.19367176352E-01 0.  0.
         14    1    1    2    0    0 -0.10402177648E-01  0.66981210522E-02 -0.27521537264E-01  0.30174577691E-01  0.00000000000E+00 0. -1.
     999901    1    3    3    0    0  0.51423849834E-01  0.32683242202E-01  0.13328738169E+00  0.89212002151E+00  0.88000000000E+00 0. -1.
        -11    1    4    4    0    0 -0.12375283369E-01 -0.12824682884E-01 -0.16918472735E-01  0.24578770722E-01  0.51100000000E-03 0.  1.
         11    1    4    4    0    0 -0.28646388817E-01 -0.26556680371E-01 -0.88847371695E-01  0.97056630081E-01  0.51100000000E-03 0. -1.
</event>
<event>
 8    1  0.1109294E+005  0.1043930E+01  0.7957747E-01            NaN
         13   -1    0    0    0    0  0.00000000000E+00  0.00000000000E+00  0.74505805969E-08  0.10566000000E+00  0.10566000000E+00 0.  1.
     999900   -1    0    0    0    0 -0.00000000000E+00 -0.00000000000E+00 -0.74505805969E-08  0.93827000000E+00  0.93827000000E+00 0. -1.
     999902    2    1    2    0    0  0.31569931606E-02 -0.22503822125E-01  0.32309107389E-02  0.10209772790E+01  0.10207192449E+01 0.  0.
     999903    2    3    3    0    0  0.13179169465E-01  0.87838044091E-01  0.92188564627E-01  0.12957992899E+00  0.20075209884E-01 0.  0.
         14    1    1    2    0    0 -0.31569931606E-02  0.22503822125E-01 -0.32309107389E-02  0.22952720977E-01  0.00000000000E+00 0.  1.
     999901    1    3    3    0    0 -0.10022176304E-01 -0.11034186622E+00 -0.88957653888E-01  0.89139735003E+00  0.88000000000E+00 0. -1.
        -11    1    4    4    0    0  0.12340196556E-01  0.27784330884E-01  0.38167044399E-01  0.48797888201E-01  0.51100000000E-03 0. -1.
         11    1    4    4    0    0  0.83897290855E-03  0.60053713207E-01  0.54021520228E-01  0.80782040790E-01  0.51100000000E-03 0.  1.
</event>
<event>
 8    1  0.1109294E+005  0.1043930E+01  0.7957747E-01            NaN
         13   -1    0    0    0    0  0.00000000000E+00  0.00000000000E+00  0.74505805969E-08  0.10566000000E+00  0.10566000000E+00 0.  1.
     999900   -1    0    0    0    0 -0.00000000000E+00 -0.00000000000E+00 -0.74505805969E-08  0.93827000000E+00  0.93827000000E+00 0.  1.
     999902    2    1    2    0    0 -0.87600460182E-02  0.93457346091E-02  0.15953799092E-01  0.10234701645E+01  0.10232656414E+01 0.  0.
     999903    2    3    3    0    0  0.31170544497E-01  0.12149957181E+00  0.46624919599E-01  0.13492435655E+00  0.17232239228E-01 0.  0.
         14    1    1    2    0    0  0.87600460182E-02 -0.93457346091E-02 -0.15953799092E-01  0.20459835461E-01  0.00000000000E+00 0. -1.
     999901    1    3    3    0    0 -0.39930590515E-01 -0.11215383720E+00 -0.30671120507E-01  0.88854580799E+00  0.88000000000E+00 0.  1.
        -11    1    4    4    0    0  0.22783079661E-01  0.62287390291E-01  0.18637592946E-01  0.68894184805E-01  0.51100000000E-03 0. -1.
         11    1    4    4    0    0  0.83874648354E-02  0.59212181520E-01  0.27987326654E-01  0.66030171747E-01  0.51100000000E-03 0.  1.
</event>
<event>
 8    1  0.1109294E+005  0.1043930E+01  0.7957747E-01            NaN
         13   -1    0    0    0    0  0.00000000000E+00  0.00000000000E+00  0.74505805969E-08  0.10566000000E+00  0.10566000000E+00 0. -1.
     999900   -1    0    0    0    0 -0.00000000000E+00 -0.00000000000E+00 -0.74505805969E-08  0.93827000000E+00  0.93827000000E+00 0. -1.
     999902    2    1    2    0    0  0.58191495858E-03 -0.23812834279E-01  0.12800991650E-02  0.10200756848E+01  0.10197967319E+01 0.  0.
     999903    2    3    3    0    0  0.95483449949E-02  0.85131695030E-01  0.93579595819E-01  0.12852170187E+00  0.20545332982E-01 0.  0.
         14    1    1    2    0    0 -0.58191495858E-03  0.23812834279E-01 -0.12800991650E-02  0.23854315234E-01  0.00000000000E+00 0.  1.
     999901    1    3    3    0    0 -0.89664300363E-02 -0.10894452931E+00 -0.92299496654E-01  0.89155398290E+00  0.88000000000E+00 0. -1.
        -11    1    4    4    0    0  0.12623768823E-01  0.27163096646E-01  0.34554596955E-01  0.45732643160E-01  0.51100000000E-03 0.  1.
         11    1    4    4    0    0 -0.30754238280E-02  0.57968598384E-01  0.59024998864E-01  0.82789058711E-01  0.51100000000E-03 0. -1.
</event>
<event>
 8    1  0.1109294E+005  0.1043930E+01  0.7957747E-01            NaN
         13   -1    0    0    0    0  0.00000000000E+00  0.00000000000E+00  0.74505805969E-08  0.10566000000E+00  0.10566000000E+00 0.  1.
     999900   -1    0    0    0    0 -0.00000000000E+00 -0.00000000000E+00 -0.74505805969E-08  0.93827000000E+00  0.93827000000E+00 0.  1.
     999902    2    1    2    0    0  0.56445643161E-02  0.23428628441E-02 -0.22461678342E-01  0.10206517461E+01  0.10203862551E+01 0.  0.
     999903    2    3    3    0    0  0.52787524049E-02  0.22976768252E-01  0.12459435712E+00  0.12821050461E+00  0.18930994668E-01 0.  0.
         14    1    1    2    0    0 -0.56445643161E-02 -0.23428628441E-02  0.22461678342E-01  0.23278253941E-01  0.00000000000E+00 0.  1.
     999901    1    3    3    0    0  0.36581191121E-03 -0.20633905407E-01 -0.14705603547E+00  0.89244124145E+00  0.88000000000E+00 0.  1.
        -11    1    4    4    0    0  0.51571431052E-02 -0.17201027106E-02  0.19322564916E-01  0.20079280721E-01  0.51100000000E-03 0.  1.
         11    1    4    4    0    0  0.12160929965E-03  0.24696870962E-01  0.10527179221E+00  0.10813122389E+00  0.51100000000E-03 0. -1.
</event>
<event>
 8    1  0.1109294E+005  0.1043930E+01  0.7957747E-01            NaN
         13   -1    0    0    0    0  0.00000000000E+00  0.00000000000E+00  0.74505805969E-08  0.10566000000E+00  0.10566000000E+00 0.  1.
     999900   -1    0    0    0    0 -0.00000000000E+00 -0.00000000000E+00 -0.74505805969E-08  0.93827000000E+00  0.93827000000E+00 0. -1.
     999902    2    1    2    0    0 -0.10883252993E-01 -0.15759077290E-01  0.11668949510E-01  0.10215032727E+01  0.10212570578E+01 0.  0.
     999903    2    3    3    0    0  0.41229330734E-01 -0.10107327271E+00  0.74490706121E-01  0.13361769091E+00  0.19727084348E-01 0.  0.
         14    1    1    2    0    0  0.10883252993E-01  0.15759077290E-01 -0.11668949510E-01  0.22426727256E-01  0.00000000000E+00 0.  1.
     999901    1    3    3    0    0 -0.52112583727E-01  0.85314195420E-01 -0.62821756612E-01  0.88788558183E+00  0.88000000000E+00 0. -1.
        -11    1    4    4    0    0 -0.14446293285E-02 -0.92593389036E-02  0.37583597574E-02  0.10109831843E-01  0.51100000000E-03 0.  1.
         11    1    4    4    0    0  0.42673960063E-01 -0.91813933807E-01  0.70732346364E-01  0.12350785907E+00  0.51100000000E-03 0. -1.
</event>
<event>
 8    1  0.1109294E+005  0.1043930E+01  0.7957747E-01            NaN
         13   -1    0    0    0    0  0.00000000000E+00  0.00000000000E+00  0.74505805969E-08  0.10566000000E+00  0.10566000000E+00 0. -1.
     999900   -1    0    0    0    0 -0.00000000000E+00 -0.00000000000E+00 -0.74505805969E-08  0.93827000000E+00  0.93827000000E+00 0.  1.
     999902    2    1    2    0    0 -0.20060338590E-01 -0.32337001607E-02  0.12519766086E-01  0.10200633173E+01  0.10197840716E+01 0.  0.
     999903    2    3    3    0    0 -0.94005240635E-01 -0.89228950194E-01 -0.17557265511E-01  0.13227524607E+00  0.19740626382E-01 0.  0.
         14    1    1    2    0    0  0.20060338590E-01  0.32337001607E-02 -0.12519766086E-01  0.23866682717E-01  0.00000000000E+00 0.  1.
     999901    1    3    3    0    0  0.73944902046E-01  0.85995250033E-01  0.30077031596E-01  0.88778807122E+00  0.88000000000E+00 0. -1.
        -11    1    4    4    0    0 -0.18474778413E-01 -0.11339024505E-01  0.28646734371E-02  0.21871405740E-01  0.51100000000E-03 0. -1.
         11    1    4    4    0    0 -0.75530462222E-01 -0.77889925688E-01 -0.20421938948E-01  0.11040384033E+00  0.51100000000E-03 0.  1.
</event>
<event>
 8    1  0.1109294E+005  0.1043930E+01  0.7957747E-01            NaN
         13   -1    0    0    0    0  0.00000000000E+00  0.00000000000E+00  0.74505805969E-08  0.10566000000E+00  0.10566000000E+00 0. -1.
     999900   -1    0    0    0    0 -0.00000000000E+00 -0.00000000000E+00 -0.74505805969E-08  0.93827000000E+00  0.93827000000E+00 0.  1.
     999902    2    1    2    0    0  0.15952263236E-01 -0.14597409416E-01 -0.96521434957E-02  0.10202504109E+01  0.10199755772E+01 0.  0.
     999903    2    3    3    0    0  0.52708210726E-01  0.11585072662E+00  0.12001636268E-01  0.12961209936E+00  0.21347381350E-01 0.  0.
         14    1    1    2    0    0 -0.15952263236E-01  0.14597409416E-01  0.96521434957E-02  0.23679589060E-01  0.00000000000E+00 0.  1.
     999901    1    3    3    0    0 -0.36755947490E-01 -0.13044813604E+00 -0.21653779764E-01  0.89063831158E+00  0.88000000000E+00 0. -1.
        -11    1    4    4    0    0  0.19825230729E-01  0.36803214545E-01  0.13656234374E-01  0.43980339160E-01  0.51100000000E-03 0.  1.
         11    1    4    4    0    0  0.32882979997E-01  0.79047512079E-01 -0.16545981060E-02  0.85631760202E-01  0.51100000000E-03 0. -1.
</event>
<event>
 8    1  0.1109294E+005  0.1043930E+01  0.7957747E-01            NaN
         13   -1    0    0    0    0  0.00000000000E+00  0.00000000000E+00  0.74505805969E-08  0.10566000000E+00  0.10566000000E+00 0. -1.
     999900   -1    0    0    0    0 -0.00000000000E+00 -0.00000000000E+00 -0.74505805969E-08  0.93827000000E+00  0.93827000000E+00 0.  1.
     999902    2    1    2    0    0 -0.24076264021E-01 -0.52742439488E-02  0.40677344453E-02  0.10189493955E+01  0.10186431367E+01 0.  0.
     999903    2    3    3    0    0 -0.17000897871E-01 -0.10596252135E+00 -0.70654811896E-01  0.13003339892E+00  0.19987394344E-01 0.  0.
         14    1    1    2    0    0  0.24076264021E-01  0.52742439488E-02 -0.40677344453E-02  0.24980604516E-01  0.00000000000E+00 0. -1.
     999901    1    3    3    0    0 -0.70753661509E-02  0.10068827740E+00  0.74722546341E-01  0.88891599656E+00  0.88000000000E+00 0.  1.
        -11    1    4    4    0    0  0.43597617342E-02 -0.11662289086E-01 -0.86709306461E-02  0.15180996949E-01  0.51100000000E-03 0. -1.
         11    1    4    4    0    0 -0.21360659605E-01 -0.94300232261E-01 -0.61983881250E-01  0.11485240197E+00  0.51100000000E-03 0.  1.
</event>
<event>
 8    1  0.1214962E+005  0.1043930E+01  0.7957747E-01            NaN
         13   -1    0    0    0    0  0.00000000000E+00  0.00000000000E+00  0.74505805969E-08  0.10566000000E+00  0.10566000000E+00 0. -1.
     999900   -1    0    0    0    0 -0.00000000000E+00 -0.00000000000E+00 -0.74505805969E-08  0.93827000000E+00  0.93827000000E+00 0. -1.
     999902    2    1    2    0    0  0.13613924480E-01  0.82686084083E-03  0.18058865234E-01  0.10212993736E+01  0.10210486106E+01 0.  0.
     999903    2    3    3    0    0 -0.40172717321E-01  0.43103306075E-01  0.11768248416E+00  0.13303974593E+00  0.19459309029E-01 0.  0.
         14    1    1    2    0    0 -0.13613924480E-01 -0.82686084083E-03 -0.18058865234E-01  0.22630626419E-01  0.00000000000E+00 0.  1.
     999901    1    3    3    0    0  0.53786641801E-01 -0.42276445235E-01 -0.99623618929E-01  0.88825962765E+00  0.88000000000E+00 0. -1.
        -11    1    4    4    0    0 -0.23477008203E-01  0.33685842063E-01  0.64052545256E-01  0.76084791808E-01  0.51100000000E-03 0. -1.
         11    1    4    4    0    0 -0.16695709118E-01  0.94174640122E-02  0.53629938907E-01  0.56954954127E-01  0.51100000000E-03 0.  1.
</event>
<event>
 8    1  0.1109294E+005  0.1043930E+01  0.7957747E-01            NaN
         13   -1    0    0    0    0  0.00000000000E+00  0.00000000000E+00  0.74505805969E-08  0.10566000000E+00  0.10566000000E+00 0.  1.
     999900   -1    0    0    0    0 -0.00000000000E+00 -0.00000000000E+00 -0.74505805969E-08  0.93827000000E+00  0.93827000000E+00 0.  1.
     999902    2    1    2    0    0 -0.12480019104E-01  0.21867964851E-01  0.28739167543E-02  0.10185879764E+01  0.10182726783E+01 0.  0.
     999903    2    3    3    0    0 -0.10191009584E+00 -0.75688477287E-01 -0.25099312554E-02  0.12867563022E+00  0.20897483840E-01 0.  0.
         14    1    1    2    0    0  0.12480019104E-01 -0.21867964851E-01 -0.28739167543E-02  0.25342023618E-01  0.00000000000E+00 0.  1.
     999901    1    3    3    0    0  0.89430076734E-01  0.97556442138E-01  0.53838480097E-02  0.88991234616E+00  0.88000000000E+00 0.  1.
        -11    1    4    4    0    0 -0.65185421965E-02 -0.73150971950E-02  0.51107673555E-02  0.11062689696E-01  0.51100000000E-03 0. -1.
         11    1    4    4    0    0 -0.95391553641E-01 -0.68373380092E-01 -0.76206986109E-02  0.11761294053E+00  0.51100000000E-03 0.  1.
</event>
<event>
 8    1  0.1109294E+005  0.1043930E+01  0.7957747E-01            NaN
         13   -1    0    0    0    0  0.00000000000E+00  0.00000000000E+00  0.74505805969E-08  0.10566000000E+00  0.10566000000E+00 0. -1.
     999900   -1    0    0    0    0 -0.00000000000E+00 -0.00000000000E+00 -0.74505805969E-08  0.93827000000E+00  0.93827000000E+00 0.  1.
     999902    2    1    2    0    0 -0.42815043235E-02  0.14268662246E-02 -0.23537600389E-01  0.10199636515E+01  0.10196820409E+01 0.  0.
     999903    2    3    3    0    0  0.21195651302E-01 -0.12491904509E+00 -0.23725502970E-01  0.13057486699E+00  0.20805598723E-01 0.  0.
         14    1    1    2    0    0  0.42815043235E-02 -0.14268662246E-02  0.23537600389E-01  0.23966348461E-01  0.00000000000E+00 0. -1.
     999901    1    3    3    0    0 -0.25477155625E-01  0.12634591132E+00  0.18790258077E-03  0.88938878454E+00  0.88000000000E+00 0. -1.
        -11    1    4    4    0    0  0.22790482444E-01 -0.74452564671E-01 -0.12745000530E-01  0.78900485648E-01  0.51100000000E-03 0.  1.
         11    1    4    4    0    0 -0.15948311418E-02 -0.50466480423E-01 -0.10980502440E-01  0.51674381346E-01  0.51100000000E-03 0. -1.
</event>
<event>
 7    1  0.1109294E+005  0.1043930E+01  0.7957747E-01            NaN
         13   -1    0    0    0    0  0.00000000000E+00  0.00000000000E+00  0.74505805969E-08  0.10566000000E+00  0.10566000000E+00 0.  1.
     999900   -1    0    0    0    0 -0.00000000000E+00 -0.00000000000E+00 -0.74505805969E-08  0.93827000000E+00  0.93827000000E+00 0.  1.
     999902    2    1    2    0    0  0.10034370211E-02  0.22211742215E-01  0.87099455117E-02  0.10200504789E+01  0.10197709291E+01 0.  0.
         14    1    1    2    0    0 -0.10034370211E-02 -0.22211742215E-01 -0.87099455117E-02  0.23879521119E-01  0.00000000000E+00 0. -1.
     999901    1    3    3    0    0 -0.82618687605E-01  0.26139060687E-01 -0.65257438553E-01  0.88666094496E+00  0.88000000000E+00 0.  1.
        -11    1    3    3    0    0  0.55048310725E-01  0.28663765338E-01  0.63506075326E-01  0.88798708782E-01  0.51100000000E-03 0.  1.
         11    1    3    3    0    0  0.28573813901E-01 -0.32591083811E-01  0.10461308738E-01  0.44590825136E-01  0.51100000000E-03 0. -1.
</event>
<event>
 8    1  0.1109294E+005  0.1043930E+01  0.7957747E-01            NaN
         13   -1    0    0    0    0  0.00000000000E+00  0.00000000000E+00  0.74505805969E-08  0.10566000000E+00  0.10566000000E+00 0. -1.
     999900   -1    0    0    0    0 -0.00000000000E+00 -0.00000000000E+00 -0.74505805969E-08  0.93827000000E+00  0.93827000000E+00 0.  1.
     999902    2    1    2    0    0  0.21586557020E-01 -0.96661611006E-03  0.34659125493E-02  0.10220456142E+01  0.10218112894E+01 0.  0.
     999903    2    3    3    0    0  0.34041866078E-01 -0.10768503563E+00 -0.67116484259E-01  0.13270550464E+00  0.18740676561E-01 0.  0.
         14    1    1    2    0    0 -0.21586557020E-01  0.96661611006E-03 -0.34659125493E-02  0.21884385769E-01  0.00000000000E+00 0.  1.
     999901    1    3    3    0    0 -0.12455309057E-01  0.10671841952E+00  0.70582396808E-01  0.88934010959E+00  0.88000000000E+00 0.  1.
        -11    1    4    4    0    0  0.88933285053E-02 -0.43495858214E-01 -0.17305835540E-01  0.47652219658E-01  0.51100000000E-03 0.  1.
         11    1    4    4    0    0  0.25148537573E-01 -0.64189177415E-01 -0.49810648719E-01  0.85053284981E-01  0.51100000000E-03 0. -1.
</event>
<event>
 8    1  0.1109294E+005  0.1043930E+01  0.7957747E-01            NaN
         13   -1    0    0    0    0  0.00000000000E+00  0.00000000000E+00  0.74505805969E-08  0.10566000000E+00  0.10566000000E+00 0.  1.
     999900   -1    0    0    0    0 -0.00000000000E+00 -0.00000000000E+00 -0.74505805969E-08  0.93827000000E+00  0.93827000000E+00 0.  1.
     999902    2    1    2    0    0 -0.20853126688E-01  0.62173799631E-02  0.27185706741E-01  0.10091080047E+01  0.10085070123E+01 0.  0.
     999903    2    3    3    0    0  0.34286415125E-01 -0.10600625231E+00  0.40464674782E-01  0.12016996202E+00  0.19762238651E-01 0.  0.
         14    1    1    2    0    0  0.20853126688E-01 -0.62173799631E-02 -0.27185706741E-01  0.34821995309E-01  0.00000000000E+00 0. -1.
     999901    1    3    3    0    0 -0.55139541814E-01  0.11222363227E+00 -0.13278968041E-01  0.88893804267E+00  0.88000000000E+00 0.  1.
        -11    1    4    4    0    0  0.31204748752E-01 -0.73527991963E-01  0.34462228126E-01  0.86994300015E-01  0.51100000000E-03 0. -1.
         11    1    4    4    0    0  0.30816663733E-02 -0.32478260346E-01  0.60024466564E-02  0.33175662007E-01  0.51100000000E-03 0.  1.
</event>
<event>
 8    1  0.1109294E+005  0.1043930E+01  0.7957747E-01            NaN
         13   -1    0    0    0    0  0.00000000000E+00  0.00000000000E+00  0.74505805969E-08  0.10566000000E+00  0.10566000000E+00 0.  1.
     999900   -1    0    0    0    0 -0.00000000000E+00 -0.00000000000E+00 -0.74505805969E-08  0.93827000000E+00  0.93827000000E+00 0.  1.
     999902    2    1    2    0    0 -0.82071259881E-02 -0.71213035401E-02 -0.21369240869E-01  0.10199567996E+01  0.10196750261E+01 0.  0.
     999903    2    3    3    0    0  0.42871204880E-01  0.11044966941E+00 -0.50058889302E-01  0.13020682042E+00  0.20269533881E-01 0.  0.
         14    1    1    2    0    0  0.82071259881E-02  0.71213035401E-02  0.21369240869E-01  0.23973200379E-01  0.00000000000E+00 0.  1.
     999901    1    3    3    0    0 -0.51078330868E-01 -0.11757097295E+00  0.28689648433E-01  0.88974997920E+00  0.88000000000E+00 0. -1.
        -11    1    4    4    0    0  0.16271088292E-01  0.69293136981E-01 -0.30580220663E-01  0.77470627748E-01  0.51100000000E-03 0.  1.
         11    1    4    4    0    0  0.26600116588E-01  0.41156532432E-01 -0.19478668639E-01  0.52736192669E-01  0.51100000000E-03 0. -1.
</event>
<event>
 8    1  0.1109294E+005  0.1043930E+01  0.7957747E-01            NaN
         13   -1    0    0    0    0  0.00000000000E+00  0.00000000000E+00  0.74505805969E-08  0.10566000000E+00  0.10566000000E+00 0. -1.
     999900   -1    0    0    0    0 -0.00000000000E+00 -0.00000000000E+00 -0.74505805969E-08  0.93827000000E+00  0.93827000000E+00 0.  1.
     999902    2    1    2    0    0  0.15311544186E-01 -0.19047812368E-01  0.55541937049E-03  0.10194847340E+01  0.10191916168E+01 0.  0.
     999903    2    3    3    0    0 -0.15988173225E-01 -0.34312275590E-01 -0.12290065361E+00  0.13018496554E+00  0.20263283440E-01 0.  0.
         14    1    1    2    0    0 -0.15311544186E-01  0.19047812368E-01 -0.55541937049E-03  0.24445266046E-01  0.00000000000E+00 0.  1.
     999901    1    3    3    0    0  0.31299717410E-01  0.15264463222E-01  0.12345607298E+00  0.88929976841E+00  0.88000000000E+00 0. -1.
        -11    1    4    4    0    0 -0.79528617114E-02 -0.14664032689E-01 -0.25354655678E-01  0.30354596845E-01  0.51100000000E-03 0. -1.
         11    1    4    4    0    0 -0.80353115135E-02 -0.19648242901E-01 -0.97545997931E-01  0.99830368694E-01  0.51100000000E-03 0.  1.
</event>
<event>
 8    1  0.1109294E+005  0.1043930E+01  0.7957747E-01            NaN
         13   -1    0    0    0    0  0.00000000000E+00  0.00000000000E+00  0.74505805969E-08  0.10566000000E+00  0.10566000000E+00 0.  1.
     999900   -1    0    0    0    0 -0.00000000000E+00 -0.00000000000E+00 -0.74505805969E-08  0.93827000000E+00  0.93827000000E+00 0.  1.
     999902    2    1    2    0    0  0.16347837118E-01 -0.13328804254E-01  0.21780161574E-01  0.10136102995E+01  0.10131567277E+01 0.  0.
     999903    2    3    3    0    0 -0.34372136043E-01 -0.73607706748E-01 -0.90174407683E-01  0.12302628473E+00  0.20112302288E-01 0.  0.
         14    1    1    2    0    0 -0.16347837118E-01  0.13328804254E-01 -0.21780161574E-01  0.30319700518E-01  0.00000000000E+00 0. -1.
     999901    1    3    3    0    0  0.50719973161E-01  0.60278902495E-01  0.11195456926E+00  0.89058401476E+00  0.88000000000E+00 0. -1.
        -11    1    4    4    0    0 -0.14599264259E-01 -0.41746278729E-01 -0.35434159281E-01  0.56672136624E-01  0.51100000000E-03 0.  1.
         11    1    4    4    0    0 -0.19772871784E-01 -0.31861428019E-01 -0.54740248402E-01  0.66354148101E-01  0.51100000000E-03 0. -1.
</event>
<event>
 8    1  0.1109294E+005  0.1043930E+01  0.7957747E-01            NaN
         13   -1    0    0    0    0  0.00000000000E+00  0.00000000000E+00  0.74505805969E-08  0.10566000000E+00  0.10566000000E+00 0.  1.
     999900   -1    0    0    0    0 -0.00000000000E+00 -0.00000000000E+00 -0.74505805969E-08  0.93827000000E+00  0.93827000000E+00 0.  1.
     999902    2    1    2    0    0  0.62756108525E-03 -0.24911565416E-01  0.14791037144E-02  0.10189666735E+01  0.10186608434E+01 0.  0.
     999903    2    3    3    0    0 -0.11509268205E+00 -0.48660780803E-01 -0.32183178103E-01  0.13043510445E+00  0.19062068855E-01 0.  0.
         14    1    1    2    0    0 -0.62756108525E-03  0.24911565416E-01 -0.14791037144E-02  0.24963326545E-01  0.00000000000E+00 0. -1.
     999901    1    3    3    0    0  0.11572024314E+00  0.23749215387E-01  0.33662281817E-01  0.88853156901E+00  0.88000000000E+00 0. -1.
        -11    1    4    4    0    0 -0.52385707386E-01 -0.27646733323E-01 -0.69225280807E-02  0.59638802116E-01  0.51100000000E-03 0. -1.
         11    1    4    4    0    0 -0.62706974668E-01 -0.21014047480E-01 -0.25260650022E-01  0.70796302333E-01  0.51100000000E-03 0.  1.
</event>
<event>
 8    1  0.1109294E+005  0.1043930E+01  0.7957747E-01            NaN
         13   -1    0    0    0    0  0.00000000000E+00  0.00000000000E+00  0.74505805969E-08  0.10566000000E+00  0.10566000000E+00 0.  1.
     999900   -1    0    0    0    0 -0.00000000000E+00 -0.00000000000E+00 -0.74505805969E-08  0.93827000000E+00  0.93827000000E+00 0.  1.
     999902    2    1    2    0    0  0.21849308892E-01 -0.72423863942E-02  0.10095838468E-01  0.10187949565E+01  0.10184848516E+01 0.  0.
     999903    2    3    3    0    0 -0.31504227101E-01  0.58515408735E-01 -0.10647572260E+00  0.12707772758E+00  0.19877121466E-01 0.  0.
         14    1    1    2    0    0 -0.21849308892E-01  0.72423863942E-02 -0.10095838468E-01  0.25135043547E-01  0.00000000000E+00 0. -1.
     999901    1    3    3    0    0  0.53353535993E-01 -0.65757795129E-01  0.11657156107E+00  0.89171722888E+00  0.88000000000E+00 0. -1.
        -11    1    4    4    0    0 -0.19108510545E-01  0.30822808645E-01 -0.39947706487E-01  0.53956103293E-01  0.51100000000E-03 0. -1.
         11    1    4    4    0    0 -0.12395716556E-01  0.27692600090E-01 -0.66528016115E-01  0.73121624284E-01  0.51100000000E-03 0.  1.
</event>
<event>
 8    1  0.1109294E+005  0.1043930E+01  0.7957747E-01            NaN
         13   -1    0    0    0    0  0.00000000000E+00  0.00000000000E+00  0.74505805969E-08  0.10566000000E+00  0.10566000000E+00 0. -1.
     999900   -1    0    0    0    0 -0.00000000000E+00 -0.00000000000E+00 -0.74505805969E-08  0.93827000000E+00  0.93827000000E+00 0.  1.
     999902    2    1    2    0    0  0.16749059482E-01 -0.14267618043E-01 -0.89970977767E-02  0.10201593524E+01  0.10198823759E+01 0.  0.
     999903    2    3    3    0    0  0.11085156574E+00 -0.10960849395E-01  0.67424934398E-01  0.13184266148E+00  0.20691924989E-01 0.  0.
         14    1    1    2    0    0 -0.16749059482E-01  0.14267618043E-01  0.89970977767E-02  0.23770647584E-01  0.00000000000E+00 0. -1.
     999901    1    3    3    0    0 -0.94102506258E-01 -0.33067686479E-02 -0.76422032174E-01  0.88831669094E+00  0.88000000000E+00 0.  1.
        -11    1    4    4    0    0  0.58948122870E-01 -0.14106502917E-01  0.29059562503E-01  0.67220487267E-01  0.51100000000E-03 0. -1.
         11    1    4    4    0    0  0.51903442870E-01  0.31456535219E-02  0.38365371894E-01  0.64622174209E-01  0.51100000000E-03 0.  1.
</event>
<event>
 8    1  0.1109294E+005  0.1043930E+01  0.7957747E-01            NaN
         13   -1    0    0    0    0  0.00000000000E+00  0.00000000000E+00  0.74505805969E-08  0.10566000000E+00  0.10566000000E+00 0.  1.
     999900   -1    0    0    0    0 -0.00000000000E+00 -0.00000000000E+00 -0.74505805969E-08  0.93827000000E+00  0.93827000000E+00 0. -1.
     999902    2    1    2    0    0  0.20513698541E-01 -0.36239957350E-02  0.11671227618E-01  0.10200519195E+01  0.10197724039E+01 0.  0.
     999903    2    3    3    0    0 -0.14840093756E-03 -0.93054561153E-01  0.90904016763E-01  0.13173745760E+00  0.20785670505E-01 0.  0.
         14    1    1    2    0    0 -0.20513698541E-01  0.36239957350E-02 -0.11671227618E-01  0.23878080472E-01  0.00000000000E+00 0. -1.
     999901    1    3    3    0    0  0.20662099479E-01  0.89430565418E-01 -0.79232789145E-01  0.88831446192E+00  0.88000000000E+00 0.  1.
        -11    1    4    4    0    0 -0.75865619933E-02 -0.46499396794E-01  0.55334478442E-01  0.72676787564E-01  0.51100000000E-03 0. -1.
         11    1    4    4    0    0  0.74381610557E-02 -0.46555164359E-01  0.35569538321E-01  0.59060670041E-01  0.51100000000E-03 0.  1.
</event>
<event>
 8    1  0.1109294E+005  0.1043930E+01  0.7957747E-01            NaN
         13   -1    0    0    0    0  0.00000000000E+00  0.00000000000E+00  0.74505805969E-08  0.10566000000E+00  0.10566000000E+00 0.  1.
     999900   -1    0    0    0    0 -0.00000000000E+00 -0.00000000000E+00 -0.74505805969E-08  0.93827000000E+00  0.93827000000E+00 0. -1.
     999902    2    1    2    0    0 -0.12296436408E-02  0.15321448025E-02 -0.22837166772E-01  0.10210084888E+01  0.10207511638E+01 0.  0.
     999903    2    3    3    0    0  0.50249676551E-01  0.29948294659E-01  0.11291432033E+00  0.12865986618E+00  0.19539372653E-01 0.  0.
         14    1    1    2    0    0  0.12296436408E-02 -0.15321448025E-02  0.22837166772E-01  0.22921511236E-01  0.00000000000E+00 0.  1.
     999901    1    3    3    0    0 -0.51479320192E-01 -0.28416149857E-01 -0.13575148710E+00  0.89234862259E+00  0.88000000000E+00 0. -1.
        -11    1    4    4    0    0  0.43469153292E-01  0.16318751379E-01  0.84092015147E-01  0.96060382401E-01  0.51100000000E-03 0.  1.
         11    1    4    4    0    0  0.67805232590E-02  0.13629543280E-01  0.28822305180E-01  0.32599483778E-01  0.51100000000E-03 0. -1.
</event>
<event>
 8    1  0.1109294E+005  0.1043930E+01  0.7957747E-01            NaN
         13   -1    0    0    0    0  0.00000000000E+00  0.00000000000E+00  0.74505805969E-08  0.10566000000E+00  0.10566000000E+00 0.  1.
     999900   -1    0    0    0    0 -0.00000000000E+00 -0.00000000000E+00 -0.74505805969E-08  0.93827000000E+00  0.93827000000E+00 0. -1.
     999902    2    1    2    0    0 -0.94493688585E-02 -0.13081910953E-01  0.17065083757E-01  0.10204428961E+01  0.10201725639E+01 0.  0.
     999903    2    3    3    0    0 -0.99481257131E-01 -0.71142455210E-01 -0.44268561578E-01  0.13182679015E+00  0.21466895514E-01 0.  0.
         14    1    1    2    0    0  0.94493688585E-02  0.13081910953E-01 -0.17065083757E-01  0.23487103900E-01  0.00000000000E+00 0.  1.
     999901    1    3    3    0    0  0.90031888273E-01  0.58060544258E-01  0.61333645335E-01  0.88861610595E+00  0.88000000000E+00 0. -1.
        -11    1    4    4    0    0 -0.47535083012E-01 -0.39235212750E-01 -0.32696195509E-01  0.69773120600E-01  0.51100000000E-03 0. -1.
         11    1    4    4    0    0 -0.51946174120E-01 -0.31907242460E-01 -0.11572366069E-01  0.62053669549E-01  0.51100000000E-03 0.  1.
</event>
<event>
 8    1  0.1109294E+005  0.1043930E+01  0.7957747E-01            NaN
         13   -1    0    0    0    0  0.00000000000E+00  0.00000000000E+00  0.74505805969E-08  0.10566000000E+00  0.10566000000E+00 0. -1.
     999900   -1    0    0    0    0 -0.00000000000E+00 -0.00000000000E+00 -0.74505805969E-08  0.93827000000E+00  0.93827000000E+00 0.  1.
     999902    2    1    2    0    0  0.19337518210E-02 -0.20150973188E-01  0.12913823356E-01  0.10199181706E+01  0.10196354774E+01 0.  0.
     999903    2    3    3    0    0 -0.84487114508E-01 -0.42057626550E-01  0.90352605193E-01  0.13203009629E+00  0.19011485825E-01 0.  0.
         14    1    1    2    0    0 -0.19337518210E-02  0.20150973188E-01 -0.12913823356E-01  0.24011829380E-01  0.00000000000E+00 0.  1.
     999901    1    3    3    0    0  0.86420866329E-01  0.21906653362E-01 -0.77438781837E-01  0.88788807433E+00  0.88000000000E+00 0.  1.
        -11    1    4    4    0    0 -0.56619777184E-01 -0.37773417048E-01  0.64636053267E-01  0.93865386095E-01  0.51100000000E-03 0.  1.
         11    1    4    4    0    0 -0.27867337324E-01 -0.42842095021E-02  0.25716551926E-01  0.38164710199E-01  0.51100000000E-03 0. -1.
</event>
<event>
 8    1  0.1109294E+005  0.1043930E+01  0.7957747E-01            NaN
         13   -1    0    0    0    0  0.00000000000E+00  0.00000000000E+00  0.74505805969E-08  0.10566000000E+00  0.10566000000E+00 0.  1.
     999900   -1    0    0    0    0 -0.00000000000E+00 -0.00000000000E+00 -0.74505805969E-08  0.93827000000E+00  0.93827000000E+00 0.  1.
     999902    2    1    2    0    0  0.12322477089E-02  0.23056786056E-01 -0.10722868557E-01  0.10184719222E+01  0.10181536930E+01 0.  0.
     999903    2    3    3    0    0 -0.15762323883E-02  0.96054509545E-01 -0.88267151297E-01  0.13204670197E+00  0.20403141658E-01 0.  0.
         14    1    1    2    0    0 -0.12322477089E-02 -0.23056786056E-01  0.10722868557E-01  0.25458077849E-01  0.00000000000E+00 0.  1.
     999901    1    3    3    0    0  0.28084800972E-02 -0.72997723488E-01  0.77544282740E-01  0.88642522019E+00  0.88000000000E+00 0. -1.
        -11    1    4    4    0    0 -0.64510757487E-02  0.69354136694E-01 -0.52919217831E-01  0.87477525066E-01  0.51100000000E-03 0. -1.
         11    1    4    4    0    0  0.48748433604E-02  0.26700372850E-01 -0.35347933467E-01  0.44569176900E-01  0.51100000000E-03 0.  1.
</event>
<event>
 8    1  0.1109294E+005  0.1043930E+01  0.7957747E-01            NaN
         13   -1    0    0    0    0  0.00000000000E+00  0.00000000000E+00  0.74505805969E-08  0.10566000000E+00  0.10566000000E+00 0. -1.
     999900   -1    0    0    0    0 -0.00000000000E+00 -0.00000000000E+00 -0.74505805969E-08  0.93827000000E+00  0.93827000000E+00 0.  1.
     999902    2    1    2    0    0  0.11879298652E-01  0.18990174245E-01  0.10322235714E-02  0.10215065761E+01  0.10212604345E+01 0.  0.
     999903    2    3    3    0    0 -0.40260166597E-02  0.33869811975E-01  0.12639442600E+00  0.13235525912E+00  0.19467683945E-01 0.  0.
         14    1    1    2    0    0 -0.11879298652E-01 -0.18990174245E-01 -0.10322235714E-02  0.22423423910E-01  0.00000000000E+00 0. -1.
     999901    1    3    3    0    0  0.15905315312E-01 -0.14879637730E-01 -0.12536220243E+00  0.88915131697E+00  0.88000000000E+00 0.  1.
        -11    1    4    4    0    0  0.57920898515E-02  0.35788463704E-02  0.32424736488E-01  0.33135797916E-01  0.51100000000E-03 0. -1.
         11    1    4    4    0    0 -0.98181065112E-02  0.30290965604E-01  0.93969689515E-01  0.99219461203E-01  0.51100000000E-03 0.  1.
</event>
<event>
 8    1  0.1109294E+005  0.1043930E+01  0.7957747E-01            NaN
         13   -1    0    0    0    0  0.00000000000E+00  0.00000000000E+00  0.74505805969E-08  0.10566000000E+00  0.10566000000E+00 0.  1.
     999900   -1    0    0    0    0 -0.00000000000E+00 -0.00000000000E+00 -0.74505805969E-08  0.93827000000E+00  0.93827000000E+00 0. -1.
     999902    2    1    2    0    0 -0.14774431735E-01 -0.10395117876E-01 -0.16381597054E-01  0.10195435482E+01  0.10192518568E+01 0.  0.
     999903    2    3    3    0    0 -0.11584435887E+00  0.53542868194E-01  0.19518896013E-01  0.13072858342E+00  0.20548017067E-01 0.  0.
         14    1    1    2    0    0  0.14774431735E-01  0.10395117876E-01  0.16381597054E-01  0.24386451787E-01  0.00000000000E+00 0.  1.
     999901    1    3    3    0    0  0.10106992714E+00 -0.63937986069E-01 -0.35900493067E-01  0.88881496479E+00  0.88000000000E+00 0. -1.
        -11    1    4    4    0    0 -0.91715498843E-01  0.42401040617E-01  0.68327418584E-02  0.10127452027E+00  0.51100000000E-03 0. -1.
         11    1    4    4    0    0 -0.24128860028E-01  0.11141827576E-01  0.12686154154E-01  0.29454063153E-01  0.51100000000E-03 0.  1.
</event>
<event>
 8    1  0.1109294E+005  0.1043930E+01  0.7957747E-01            NaN
         13   -1    0    0    0    0  0.00000000000E+00  0.00000000000E+00  0.74505805969E-08  0.10566000000E+00  0.10566000000E+00 0. -1.
     999900   -1    0    0    0    0 -0.00000000000E+00 -0.00000000000E+00 -0.74505805969E-08  0.93827000000E+00  0.93827000000E+00 0. -1.
     999902    2    1    2    0    0  0.12156217046E-01 -0.16797685601E-01  0.11954943722E-01  0.10199955785E+01  0.10197147266E+01 0.  0.
     999903    2    3    3    0    0 -0.77492421062E-01 -0.49264165465E-01 -0.88536654055E-01  0.12915916709E+00  0.20280976557E-01 0.  0.
         14    1    1    2    0    0 -0.12156217046E-01  0.16797685601E-01 -0.11954943722E-01  0.23934421527E-01  0.00000000000E+00 0. -1.
     999901    1    3    3    0    0  0.89648638108E-01  0.32466479863E-01  0.10049159778E+00  0.89083641139E+00  0.88000000000E+00 0. -1.
        -11    1    4    4    0    0 -0.58868999249E-01 -0.26625847790E-01 -0.57995003783E-01  0.86822672315E-01  0.51100000000E-03 0. -1.
         11    1    4    4    0    0 -0.18623421813E-01 -0.22638317674E-01 -0.30541650272E-01  0.42336494770E-01  0.51100000000E-03 0.  1.
</event>
<event>
 8    1  0.1109294E+005  0.1043930E+01  0.7957747E-01            NaN
         13   -1    0    0    0    0  0.00000000000E+00  0.00000000000E+00  0.74505805969E-08  0.10566000000E+00  0.10566000000E+00 0. -1.
     999900   -1    0    0    0    0 -0.00000000000E+00 -0.00000000000E+00 -0.74505805969E-08  0.93827000000E+00  0.93827000000E+00 0.  1.
     999902    2    1    2    0    0 -0.26207266091E-02  0.24303918502E-01  0.19823481911E-02  0.10194049441E+01  0.10191098870E+01 0.  0.
     999903    2    3    3    0    0  0.95847488403E-01  0.83135594015E-01 -0.27624046806E-01  0.13146705549E+00  0.20548252745E-01 0.  0.
         14    1    1    2    0    0  0.26207266091E-02 -0.24303918502E-01 -0.19823481911E-02  0.24525055900E-01  0.00000000000E+00 0. -1.
     999901    1    3    3    0    0 -0.98468215012E-01 -0.58831675513E-01  0.29606394997E-01  0.88793788861E+00  0.88000000000E+00 0.  1.
        -11    1    4    4    0    0  0.25001350315E-01  0.15165846339E-01  0.79435694774E-03  0.29256837435E-01  0.51100000000E-03 0.  1.
         11    1    4    4    0    0  0.70846138089E-01  0.67969747676E-01 -0.28418403754E-01  0.10221021805E+00  0.51100000000E-03 0. -1.
</event>
<event>
 8    1  0.1109294E+005  0.1043930E+01  0.7957747E-01            NaN
         13   -1    0    0    0    0  0.00000000000E+00  0.00000000000E+00  0.74505805969E-08  0.10566000000E+00  0.10566000000E+00 0. -1.
     999900   -1    0    0    0    0 -0.00000000000E+00 -0.00000000000E+00 -0.74505805969E-08  0.93827000000E+00  0.93827000000E+00 0.  1.
     999902    2    1    2    0    0 -0.11320469278E-02  0.11224608979E-01 -0.21109371310E-01  0.10199951105E+01  0.10197142475E+01 0.  0.
     999903    2    3    3    0    0  0.51179158695E-02 -0.10744402379E+00  0.65876086697E-01  0.12775759936E+00  0.20296159348E-01 0.  0.
         14    1    1    2    0    0  0.11320469278E-02 -0.11224608979E-01  0.21109371310E-01  0.23934889473E-01  0.00000000000E+00 0. -1.
     999901    1    3    3    0    0 -0.62499627974E-02  0.11866863277E+00 -0.86985458007E-01  0.89223751117E+00  0.88000000000E+00 0.  1.
        -11    1    4    4    0    0  0.57332816299E-02 -0.86820550501E-01  0.61787489250E-01  0.10671754053E+00  0.51100000000E-03 0.  1.
         11    1    4    4    0    0 -0.61536576039E-03 -0.20623473285E-01  0.40885974471E-02  0.21040058827E-01  0.51100000000E-03 0. -1.
</event>
<event>
 8    1  0.1109294E+005  0.1043930E+01  0.7957747E-01            NaN
         13   -1    0    0    0    0  0.00000000000E+00  0.00000000000E+00  0.74505805969E-08  0.10566000000E+00  0.10566000000E+00 0. -1.
     999900   -1    0    0    0    0 -0.00000000000E+00 -0.00000000000E+00 -0.74505805969E-08  0.93827000000E+00  0.93827000000E+00 0.  1.
     999902    2    1    2    0    0  0.13648259955E-01  0.92757465926E-02 -0.18941966399E-01  0.10188080461E+01  0.10184982682E+01 0.  0.
     999903    2    3    3    0    0  0.85892992645E-01 -0.23202654598E-01  0.90311666651E-01  0.12852129218E+00  0.21108198507E-01 0.  0.
         14    1    1    2    0    0 -0.13648259955E-01 -0.92757465926E-02  0.18941966399E-01  0.25121953859E-01  0.00000000000E+00 0. -1.
     999901    1    3    3    0    0 -0.72244732690E-01  0.32478401191E-01 -0.10925363305E+00  0.89028675396E+00  0.88000000000E+00 0.  1.
        -11    1    4    4    0    0  0.32557663726E-01 -0.19132260319E-01  0.33412753464E-01  0.50425371265E-01  0.51100000000E-03 0. -1.
         11    1    4    4    0    0  0.53335328919E-01 -0.40703942787E-02  0.56898913187E-01  0.78095920914E-01  0.51100000000E-03 0.  1.
</event>
<event>
 8    1  0.1109294E+005  0.1043930E+01  0.7957747E-01            NaN
         13   -1    0    0    0    0  0.00000000000E+00  0.00000000000E+00  0.74505805969E-08  0.10566000000E+00  0.10566000000E+00 0. -1.
     999900   -1    0    0    0    0 -0.00000000000E+00 -0.00000000000E+00 -0.74505805969E-08  0.93827000000E+00  0.93827000000E+00 0. -1.
     999902    2    1    2    0    0  0.29530490471E-02  0.92701355858E-02 -0.21829781212E-01  0.10200303084E+01  0.10197502806E+01 0.  0.
     999903    2    3    3    0    0  0.15838664323E-01 -0.10423289038E+00 -0.76051605135E-01  0.13099207399E+00  0.16115771227E-01 0.  0.
         14    1    1    2    0    0 -0.29530490471E-02 -0.92701355858E-02  0.21829781212E-01  0.23899691634E-01  0.00000000000E+00 0. -1.
     999901    1    3    3    0    0 -0.12885615276E-01  0.11350302596E+00  0.54221823923E-01  0.88903823437E+00  0.88000000000E+00 0.  1.
        -11    1    4    4    0    0  0.72639380848E-02 -0.52222743909E-01 -0.47873505249E-01  0.71218771428E-01  0.51100000000E-03 0. -1.
         11    1    4    4    0    0  0.85747262386E-02 -0.52010146467E-01 -0.28178099886E-01  0.59773302567E-01  0.51100000000E-03 0.  1.
</event>
<event>
 8    1  0.1109294E+005  0.1043930E+01  0.7957747E-01            NaN
         13   -1    0    0    0    0  0.00000000000E+00  0.00000000000E+00  0.74505805969E-08  0.10566000000E+00  0.10566000000E+00 0.  1.
     999900   -1    0    0    0    0 -0.00000000000E+00 -0.00000000000E+00 -0.74505805969E-08  0.93827000000E+00  0.93827000000E+00 0. -1.
     999902    2    1    2    0    0 -0.74041274162E-02  0.49946298471E-02  0.22189244538E-01  0.10200107608E+01  0.10197302693E+01 0.  0.
     999903    2    3    3    0    0  0.84733366759E-03  0.92361613921E-01  0.93296197975E-01  0.13279191783E+00  0.19953124672E-01 0.  0.
         14    1    1    2    0    0  0.74041274162E-02 -0.49946298471E-02 -0.22189244538E-01  0.23919239187E-01  0.00000000000E+00 0. -1.
     999901    1    3    3    0    0 -0.82514610838E-02 -0.87366984074E-01 -0.71106953437E-01  0.88721884298E+00  0.88000000000E+00 0. -1.
        -11    1    4    4    0    0 -0.78880053020E-03  0.33746995159E-01  0.48055837891E-01  0.58729094706E-01  0.51100000000E-03 0. -1.
         11    1    4    4    0    0  0.16361341978E-02  0.58614618762E-01  0.45240360083E-01  0.74062823125E-01  0.51100000000E-03 0.  1.
</event>
<event>
 8    1  0.1109294E+005  0.1043930E+01  0.7957747E-01            NaN
         13   -1    0    0    0    0  0.00000000000E+00  0.00000000000E+00  0.74505805969E-08  0.10566000000E+00  0.10566000000E+00 0.  1.
     999900   -1    0    0    0    0 -0.00000000000E+00 -0.00000000000E+00 -0.74505805969E-08  0.93827000000E+00  0.93827000000E+00 0. -1.
     999902    2    1    2    0    0 -0.32556454081E-02  0.23582868537E-01 -0.12441035275E-03  0.10201231440E+01  0.10198453130E+01 0.  0.
     999903    2    3    3    0    0 -0.10427984274E-01 -0.73054751849E-02 -0.12806697148E+00  0.13030584185E+00  0.20404666429E-01 0.  0.
         14    1    1    2    0    0  0.32556454081E-02 -0.23582868537E-01  0.12441035275E-03  0.23806856016E-01  0.00000000000E+00 0. -1.
     999901    1    3    3    0    0  0.71723388661E-02  0.30888343722E-01  0.12794256113E+00  0.88981730213E+00  0.88000000000E+00 0.  1.
        -11    1    4    4    0    0 -0.80472343572E-02 -0.76698285723E-02 -0.26928729874E-01  0.29137636568E-01  0.51100000000E-03 0. -1.
         11    1    4    4    0    0 -0.23807499170E-02  0.36435338740E-03 -0.10113824161E+00  0.10116820529E+00  0.51100000000E-03 0.  1.
</event>
<event>
 8    1  0.1109294E+005  0.1043930E+01  0.7957747E-01            NaN
         13   -1    0    0    0    0  0.00000000000E+00  0.00000000000E+00  0.74505805969E-08  0.10566000000E+00  0.10566000000E+00 0. -1.
     999900   -1    0    0    0    0 -0.00000000000E+00 -0.00000000000E+00 -0.74505805969E-08  0.93827000000E+00  0.93827000000E+00 0.  1.
     999902    2    1    2    0    0  0.11879838431E-01 -0.17683159356E-03 -0.20725963453E-01  0.10200400985E+01  0.10197603028E+01 0.  0.
     999903    2    3    3    0    0  0.20204407145E-01  0.11918932963E+00  0.42208673360E-01  0.12971524356E+00  0.20740249264E-01 0.  0.
         14    1    1    2    0    0 -0.11879838431E-01  0.17683159356E-03  0.20725963453E-01  0.23889901457E-01  0.00000000000E+00 0. -1.
     999901    1    3    3    0    0 -0.83245687137E-02 -0.11936616122E+00 -0.62934636813E-01  0.89032485498E+00  0.88000000000E+00 0.  1.
        -11    1    4    4    0    0  0.99858992376E-02  0.77244371681E-01  0.36990615739E-01  0.86226317988E-01  0.51100000000E-03 0. -1.
         11    1    4    4    0    0  0.10218507907E-01  0.41944957948E-01  0.52180576218E-02  0.43488925573E-01  0.51100000000E-03 0.  1.
</event>
<event>
 8    1  0.1109294E+005  0.1043930E+01  0.7957747E-01            NaN
         13   -1    0    0    0    0  0.00000000000E+00  0.00000000000E+00  0.74505805969E-08  0.10566000000E+00  0.10566000000E+00 0.  1.
     999900   -1    0    0    0    0 -0.00000000000E+00 -0.00000000000E+00 -0.74505805969E-08  0.93827000000E+00  0.93827000000E+00 0. -1.
     999902    2    1    2    0    0  0.43918356842E-03  0.24033997339E-01 -0.29180176082E-02  0.10197155263E+01  0.10194279836E+01 0.  0.
     999903    2    3    3    0    0  0.57250488304E-01  0.11654190054E+00  0.19064617928E-01  0.13277219509E+00  0.20133632059E-01 0.  0.
         14    1    1    2    0    0 -0.43918356842E-03 -0.24033997339E-01  0.29180176082E-02  0.24214473710E-01  0.00000000000E+00 0.  1.
     999901    1    3    3    0    0 -0.56811304736E-01 -0.92507903198E-01 -0.21982635536E-01  0.88694333120E+00  0.88000000000E+00 0.  1.
        -11    1    4    4    0    0  0.52233725499E-01  0.10377537883E+00  0.10640451453E-01  0.11666692616E+00  0.51100000000E-03 0.  1.
         11    1    4    4    0    0  0.50167628054E-02  0.12766521707E-01  0.84241664750E-02  0.16105268931E-01  0.51100000000E-03 0. -1.
</event>
<event>
 8    1  0.1109294E+005  0.1043930E+01  0.7957747E-01            NaN
         13   -1    0    0    0    0  0.00000000000E+00  0.00000000000E+00  0.74505805969E-08  0.10566000000E+00  0.10566000000E+00 0. -1.
     999900   -1    0    0    0    0 -0.00000000000E+00 -0.00000000000E+00 -0.74505805969E-08  0.93827000000E+00  0.93827000000E+00 0.  1.
     999902    2    1    2    0    0  0.13864978776E-01 -0.16399047413E-01 -0.93136983861E-02  0.10205224933E+01  0.10202540115E+01 0.  0.
     999903    2    3    3    0    0  0.79455231679E-01 -0.10285525031E-01  0.10176879264E+00  0.13109639954E+00  0.20259638502E-01 0.  0.
         14    1    1    2    0    0 -0.13864978776E-01  0.16399047413E-01  0.93136983861E-02  0.23407506705E-01  0.00000000000E+00 0. -1.
     999901    1    3    3    0    0 -0.65590252903E-01 -0.61135223817E-02 -0.11108249102E+00  0.88942609375E+00  0.88000000000E+00 0.  1.
        -11    1    4    4    0    0  0.35600707400E-01  0.19903885622E-02  0.32821761680E-01  0.48465463732E-01  0.51100000000E-03 0.  1.
         11    1    4    4    0    0  0.43854524280E-01 -0.12275913594E-01  0.68947030958E-01  0.82630935813E-01  0.51100000000E-03 0. -1.
</event>
<event>
 8    1  0.1109294E+005  0.1043930E+01  0.7957747E-01            NaN
         13   -1    0    0    0    0  0.00000000000E+00  0.00000000000E+00  0.74505805969E-08  0.10566000000E+00  0.10566000000E+00 0. -1.
     999900   -1    0    0    0    0 -0.00000000000E+00 -0.00000000000E+00 -0.74505805969E-08  0.93827000000E+00  0.93827000000E+00 0.  1.
     999902    2    1    2    0    0  0.66352017678E-04 -0.22236400826E-01 -0.83597927889E-02  0.10201739890E+01  0.10198973574E+01 0.  0.
     999903    2    3    3    0    0 -0.74657679294E-01  0.56279025019E-01 -0.87823440717E-01  0.12997017844E+00  0.20933055429E-01 0.  0.
         14    1    1    2    0    0 -0.66352017678E-04  0.22236400826E-01  0.83597927889E-02  0.23756011024E-01  0.00000000000E+00 0. -1.
     999901    1    3    3    0    0  0.74724031312E-01 -0.78515425845E-01  0.79463647928E-01  0.89020381054E+00  0.88000000000E+00 0. -1.
        -11    1    4    4    0    0 -0.61061811586E-01  0.51976066683E-01 -0.81586515729E-01  0.11439701487E+00  0.51100000000E-03 0.  1.
         11    1    4    4    0    0 -0.13595867708E-01  0.43029583355E-02 -0.62369249882E-02  0.15573163567E-01  0.51100000000E-03 0. -1.
</event>
<event>
 8    1  0.1109294E+005  0.1043930E+01  0.7957747E-01            NaN
         13   -1    0    0    0    0  0.00000000000E+00  0.00000000000E+00  0.74505805969E-08  0.10566000000E+00  0.10566000000E+00 0.  1.
     999900   -1    0    0    0    0 -0.00000000000E+00 -0.00000000000E+00 -0.74505805969E-08  0.93827000000E+00  0.93827000000E+00 0. -1.
     999902    2    1    2    0    0  0.14087886849E-01  0.14350245619E-01  0.11875362373E-01  0.10205757212E+01  0.10203084732E+01 0.  0.
     999903    2    3    3    0    0  0.15924337696E-01  0.10602273855E+00  0.76855542490E-01  0.13342880988E+00  0.20051615286E-01 0.  0.
         14    1    1    2    0    0 -0.14087886849E-01 -0.14350245619E-01 -0.11875362373E-01  0.23354278766E-01  0.00000000000E+00 0. -1.
     999901    1    3    3    0    0 -0.18364508474E-02 -0.91672492927E-01 -0.64980180117E-01  0.88714691135E+00  0.88000000000E+00 0. -1.
        -11    1    4    4    0    0  0.67759095467E-02  0.92403615364E-01  0.65660551064E-01  0.11356016101E+00  0.51100000000E-03 0.  1.
         11    1    4    4    0    0  0.91484281496E-02  0.13619123182E-01  0.11194991426E-01  0.19868648869E-01  0.51100000000E-03 0. -1.
</event>
<event>
 7    1  0.1109294E+005  0.1043930E+01  0.7957747E-01            NaN
         13   -1    0    0    0    0  0.00000000000E+00  0.00000000000E+00  0.74505805969E-08  0.10566000000E+00  0.10566000000E+00 0.  1.
     999900   -1    0    0    0    0 -0.00000000000E+00 -0.00000000000E+00 -0.74505805969E-08  0.93827000000E+00  0.93827000000E+00 0. -1.
     999903    2    1    2    0    0 -0.47700288947E-01 -0.81358060934E-01 -0.17117559794E-01  0.97958469752E-01  0.20208891566E-01 0.  0.
         14    1    1    2    0    0 -0.10740555691E-02  0.62538032250E-01 -0.13091080038E-01  0.63902546504E-01  0.00000000000E+00 0. -1.
     999901    1    1    2    0    0  0.48774344516E-01  0.18820028684E-01  0.30208639832E-01  0.88206898374E+00  0.88000000000E+00 0. -1.
        -11    1    3    3    0    0 -0.45809757515E-01 -0.78741267776E-01 -0.20369033315E-01  0.93348164276E-01  0.51100000000E-03 0.  1.
         11    1    3    3    0    0 -0.18905314318E-02 -0.26167931585E-02  0.32514735207E-02  0.46103054763E-02  0.51100000000E-03 0. -1.
</event>
<event>
 8    1  0.1109294E+005  0.1043930E+01  0.7957747E-01            NaN
         13   -1    0    0    0    0  0.00000000000E+00  0.00000000000E+00  0.74505805969E-08  0.10566000000E+00  0.10566000000E+00 0.  1.
     999900   -1    0    0    0    0 -0.00000000000E+00 -0.00000000000E+00 -0.74505805969E-08  0.93827000000E+00  0.93827000000E+00 0. -1.
     999902    2    1    2    0    0  0.10825656007E-02  0.17547313559E-01 -0.16083893702E-01  0.10201020375E+01  0.10198237078E+01 0.  0.
     999903    2    3    3    0    0 -0.69036179167E-01  0.25207413614E-01  0.10439588503E+00  0.12909659833E+00  0.19131731612E-01 0.  0.
         14    1    1    2    0    0 -0.10825656007E-02 -0.17547313559E-01  0.16083893702E-01  0.23827962523E-01  0.00000000000E+00 0.  1.
     999901    1    3    3    0    0  0.70118744768E-01 -0.76601000547E-02 -0.12047977873E+00  0.89100543914E+00  0.88000000000E+00 0. -1.
        -11    1    4    4    0    0 -0.57282313934E-01  0.24332525251E-01  0.75247853559E-01  0.97651604498E-01  0.51100000000E-03 0.  1.
         11    1    4    4    0    0 -0.11753865233E-01  0.87488836221E-03  0.29148031472E-01  0.31444993835E-01  0.51100000000E-03 0. -1.
</event>
<event>
 8    1  0.1109294E+005  0.1043930E+01  0.7957747E-01            NaN
         13   -1    0    0    0    0  0.00000000000E+00  0.00000000000E+00  0.74505805969E-08  0.10566000000E+00  0.10566000000E+00 0. -1.
     999900   -1    0    0    0    0 -0.00000000000E+00 -0.00000000000E+00 -0.74505805969E-08  0.93827000000E+00  0.93827000000E+00 0. -1.
     999902    2    1    2    0    0  0.22258514942E-02  0.23337040488E-01  0.83876740798E-04  0.10204869006E+01  0.10202175922E+01 0.  0.
     999903    2    3    3    0    0 -0.12692137750E+00  0.35556476912E-02 -0.22955364771E-01  0.13054245465E+00  0.19816785698E-01 0.  0.
         14    1    1    2    0    0 -0.22258514942E-02 -0.23337040488E-01 -0.83876740798E-04  0.23443099388E-01  0.00000000000E+00 0. -1.
     999901    1    3    3    0    0  0.12914722900E+00  0.19781392796E-01  0.23039241512E-01  0.88994444597E+00  0.88000000000E+00 0.  1.
        -11    1    4    4    0    0 -0.59119480637E-01 -0.25188041551E-02 -0.16032793012E-02  0.59197035320E-01  0.51100000000E-03 0. -1.
         11    1    4    4    0    0 -0.67801896865E-01  0.60744518463E-02 -0.21352085470E-01  0.71345419325E-01  0.51100000000E-03 0.  1.
</event>
<event>
 8    1  0.1109294E+005  0.1043930E+01  0.7957747E-01            NaN
         13   -1    0    0    0    0  0.00000000000E+00  0.00000000000E+00  0.74505805969E-08  0.10566000000E+00  0.10566000000E+00 0. -1.
     999900   -1    0    0    0    0 -0.00000000000E+00 -0.00000000000E+00 -0.74505805969E-08  0.93827000000E+00  0.93827000000E+00 0.  1.
     999902    2    1    2    0    0  0.28208503708E-04 -0.11173688238E-01  0.20821870973E-01  0.10202994601E+01  0.10200257771E+01 0.  0.
     999903    2    3    3    0    0 -0.48263353906E-01 -0.11385164326E+00  0.43576796728E-01  0.13272263296E+00  0.20610970025E-01 0.  0.
         14    1    1    2    0    0 -0.28208503708E-04  0.11173688238E-01 -0.20821870973E-01  0.23630539887E-01  0.00000000000E+00 0.  1.
     999901    1    3    3    0    0  0.48291562409E-01  0.10267795502E+00 -0.22754925756E-01  0.88757682715E+00  0.88000000000E+00 0.  1.
        -11    1    4    4    0    0 -0.36317936391E-02 -0.25408858918E-01  0.14462430254E-01  0.29465624826E-01  0.51100000000E-03 0.  1.
         11    1    4    4    0    0 -0.44631560267E-01 -0.88442784338E-01  0.29114366475E-01  0.10325700814E+00  0.51100000000E-03 0. -1.
</event>
<event>
 8    1  0.1109294E+005  0.1043930E+01  0.7957747E-01            NaN
         13   -1    0    0    0    0  0.00000000000E+00  0.00000000000E+00  0.74505805969E-08  0.10566000000E+00  0.10566000000E+00 0. -1.
     999900   -1    0    0    0    0 -0.00000000000E+00 -0.00000000000E+00 -0.74505805969E-08  0.93827000000E+00  0.93827000000E+00 0. -1.
     999902    2    1    2    0    0  0.17105586068E-01 -0.13336105136E-01 -0.95348660911E-02  0.10202368270E+01  0.10199616742E+01 0.  0.
     999903    2    3    3    0    0  0.11668897998E+00  0.38335902890E-01  0.42683273382E-01  0.13157852212E+00  0.20126752314E-01 0.  0.
         14    1    1    2    0    0 -0.17105586068E-01  0.13336105136E-01  0.95348660911E-02  0.23693172990E-01  0.00000000000E+00 0.  1.
     999901    1    3    3    0    0 -0.99583393909E-01 -0.51672008027E-01 -0.52218139473E-01  0.88865830489E+00  0.88000000000E+00 0.  1.
        -11    1    4    4    0    0  0.62826941553E-01  0.11063110971E-01  0.26429372077E-01  0.69053528792E-01  0.51100000000E-03 0.  1.
         11    1    4    4    0    0  0.53862038425E-01  0.27272791919E-01  0.16253901304E-01  0.62524993330E-01  0.51100000000E-03 0. -1.
</event>
<event>
 8    1  0.1109294E+005  0.1043930E+01  0.7957747E-01            NaN
         13   -1    0    0    0    0  0.00000000000E+00  0.00000000000E+00  0.74505805969E-08  0.10566000000E+00  0.10566000000E+00 0.  1.
     999900   -1    0    0    0    0 -0.00000000000E+00 -0.00000000000E+00 -0.74505805969E-08  0.93827000000E+00  0.93827000000E+00 0. -1.
     999902    2    1    2    0    0  0.21360606781E-01  0.46500690510E-02 -0.99838098534E-02  0.10198972073E+01  0.10196140144E+01 0.  0.
     999903    2    3    3    0    0 -0.49360826496E-02  0.11627611671E+00  0.54445996475E-01  0.13012021823E+00  0.20552479895E-01 0.  0.
         14    1    1    2    0    0 -0.21360606781E-01 -0.46500690510E-02  0.99838098534E-02  0.24032792668E-01  0.00000000000E+00 0.  1.
     999901    1    3    3    0    0  0.26296689431E-01 -0.11162604766E+00 -0.64429806329E-01  0.88977698910E+00  0.88000000000E+00 0. -1.
        -11    1    4    4    0    0 -0.60508936095E-02  0.51797458634E-01  0.34826641790E-01  0.62711610837E-01  0.51100000000E-03 0.  1.
         11    1    4    4    0    0  0.11148109599E-02  0.64478658081E-01  0.19619354685E-01  0.67408607393E-01  0.51100000000E-03 0. -1.
</event>
<event>
 8    1  0.1109294E+005  0.1043930E+01  0.7957747E-01            NaN
         13   -1    0    0    0    0  0.00000000000E+00  0.00000000000E+00  0.74505805969E-08  0.10566000000E+00  0.10566000000E+00 0.  1.
     999900   -1    0    0    0    0 -0.00000000000E+00 -0.00000000000E+00 -0.74505805969E-08  0.93827000000E+00  0.93827000000E+00 0.  1.
     999902    2    1    2    0    0  0.19412432463E-01 -0.14477343191E-01 -0.11264422758E-02  0.10196873749E+01  0.10193991552E+01 0.  0.
     999903    2    3    3    0    0  0.16096125337E-01 -0.99856290881E-01  0.83156943800E-01  0.13154084882E+00  0.12552032780E-01 0.  0.
         14    1    1    2    0    0 -0.19412432463E-01  0.14477343191E-01  0.11264422758E-02  0.24242625109E-01  0.00000000000E+00 0. -1.
     999901    1    3    3    0    0  0.33163071257E-02  0.85378947690E-01 -0.84283386076E-01  0.88814652607E+00  0.88000000000E+00 0.  1.
        -11    1    4    4    0    0  0.15887254058E-02 -0.12595428938E-01  0.55560295795E-02  0.13867208235E-01  0.51100000000E-03 0. -1.
         11    1    4    4    0    0  0.14507399931E-01 -0.87260861944E-01  0.77600914220E-01  0.11767364059E+00  0.51100000000E-03 0.  1.
</event>
<event>
 8    1  0.1109294E+005  0.1043930E+01  0.7957747E-01            NaN
         13   -1    0    0    0    0  0.00000000000E+00  0.00000000000E+00  0.74505805969E-08  0.10566000000E+00  0.10566000000E+00 0.  1.
     999900   -1    0    0    0    0 -0.00000000000E+00 -0.00000000000E+00 -0.74505805969E-08  0.93827000000E+00  0.93827000000E+00 0.  1.
     999902    2    1    2    0    0 -0.21708151720E-01  0.99505966642E-02  0.25671844010E-03  0.10200485400E+01  0.10197689444E+01 0.  0.
     999903    2    3    3    0    0  0.80054382303E-01  0.93596632686E-01  0.35028703170E-01  0.12956475940E+00  0.19773291503E-01 0.  0.
         14    1    1    2    0    0  0.21708151720E-01 -0.99505966642E-02 -0.25671844010E-03  0.23881459952E-01  0.00000000000E+00 0. -1.
     999901    1    3    3    0    0 -0.10176253402E+00 -0.83646036022E-01 -0.34771984730E-01  0.89048378065E+00  0.88000000000E+00 0.  1.
        -11    1    4    4    0    0  0.55123436161E-01  0.67919921122E-01  0.33715602386E-01  0.93748129927E-01  0.51100000000E-03 0.  1.
         11    1    4    4    0    0  0.24930946142E-01  0.25676711564E-01  0.13131007835E-02  0.35816629475E-01  0.51100000000E-03 0. -1.
</event>
<event>
 8    1  0.1109294E+005  0.1043930E+01  0.7957747E-01            NaN
         13   -1    0    0    0    0  0.00000000000E+00  0.00000000000E+00  0.74505805969E-08  0.10566000000E+00  0.10566000000E+00 0.  1.
     999900   -1    0    0    0    0 -0.00000000000E+00 -0.00000000000E+00 -0.74505805969E-08  0.93827000000E+00  0.93827000000E+00 0. -1.
     999902    2    1    2    0    0 -0.14668262203E-01  0.13967731530E-02 -0.18371922876E-01  0.10203792794E+01  0.10201074636E+01 0.  0.
     999903    2    3    3    0    0  0.68046946515E-01 -0.12135740480E-01  0.10567459031E+00  0.12773574913E+00  0.19277952192E-01 0.  0.
         14    1    1    2    0    0  0.14668262203E-01 -0.13967731530E-02  0.18371922876E-01  0.23550720615E-01  0.00000000000E+00 0.  1.
     999901    1    3    3    0    0 -0.82715208718E-01  0.13532513633E-01 -0.12404651319E+00  0.89264353026E+00  0.88000000000E+00 0. -1.
        -11    1    4    4    0    0  0.57592901745E-01 -0.14925661990E-01  0.97277286846E-01  0.11403003716E+00  0.51100000000E-03 0.  1.
         11    1    4    4    0    0  0.10454044770E-01  0.27899215099E-02  0.83973034641E-02  0.13705711968E-01  0.51100000000E-03 0. -1.
</event>
<event>
 7    1  0.1109294E+005  0.1043930E+01  0.7957747E-01            NaN
         13   -1    0    0    0    0  0.00000000000E+00  0.00000000000E+00  0.74505805969E-08  0.10566000000E+00  0.10566000000E+00 0. -1.
     999900   -1    0    0    0    0 -0.00000000000E+00 -0.00000000000E+00 -0.74505805969E-08  0.93827000000E+00  0.93827000000E+00 0. -1.
     999902    2    1    2    0    0 -0.95181178080E-02  0.18355378102E-01  0.12065462796E-01  0.10199907046E+01  0.10197097369E+01 0.  0.
         14    1    1    2    0    0  0.95181178080E-02 -0.18355378102E-01 -0.12065462796E-01  0.23939295402E-01  0.00000000000E+00 0.  1.
     999901    1    3    3    0    0 -0.12575638037E-01 -0.96996966172E-01  0.59939334346E-01  0.88744536841E+00  0.88000000000E+00 0.  1.
        -11    1    3    3    0    0  0.21823320156E-01  0.74848226544E-01 -0.22285749986E-01  0.81089025724E-01  0.51100000000E-03 0.  1.
         11    1    3    3    0    0 -0.18765799927E-01  0.40504117730E-01 -0.25588121563E-01  0.51456310460E-01  0.51100000000E-03 0. -1.
</event>
<event>
 8    1  0.1109294E+005  0.1043930E+01  0.7957747E-01            NaN
         13   -1    0    0    0    0  0.00000000000E+00  0.00000000000E+00  0.74505805969E-08  0.10566000000E+00  0.10566000000E+00 0. -1.
     999900   -1    0    0    0    0 -0.00000000000E+00 -0.00000000000E+00 -0.74505805969E-08  0.93827000000E+00  0.93827000000E+00 0.  1.
     999902    2    1    2    0    0  0.13859200314E-01 -0.65438109791E-02 -0.17940296351E-01  0.10203343833E+01  0.10200615180E+01 0.  0.
     999903    2    3    3    0    0  0.39567633152E-01  0.48761966410E-01 -0.11540877931E+00  0.13285494255E+00  0.19695747192E-01 0.  0.
         14    1    1    2    0    0 -0.13859200314E-01  0.65438109791E-02  0.17940296351E-01  0.23595616725E-01  0.00000000000E+00 0. -1.
     999901    1    3    3    0    0 -0.25708432838E-01 -0.55305777389E-01  0.97468482960E-01  0.88747944072E+00  0.88000000000E+00 0. -1.
        -11    1    4    4    0    0  0.31494413324E-01  0.42259790027E-01 -0.10776939061E+00  0.11996787319E+00  0.51100000000E-03 0.  1.
         11    1    4    4    0    0  0.80732198282E-02  0.65021763837E-02 -0.76393887008E-02  0.12887069366E-01  0.51100000000E-03 0. -1.
</event>
<event>
 8    1  0.1109294E+005  0.1043930E+01  0.7957747E-01            NaN
         13   -1    0    0    0    0  0.00000000000E+00  0.00000000000E+00  0.74505805969E-08  0.10566000000E+00  0.10566000000E+00 0.  1.
     999900   -1    0    0    0    0 -0.00000000000E+00 -0.00000000000E+00 -0.74505805969E-08  0.93827000000E+00  0.93827000000E+00 0. -1.
     999902    2    1    2    0    0 -0.11776119445E-01  0.18702372569E-01  0.10445787064E-01  0.10194847510E+01  0.10191916343E+01 0.  0.
     999903    2    3    3    0    0  0.73633077748E-01 -0.49828482982E-01 -0.88800374176E-01  0.12716137376E+00  0.19488475282E-01 0.  0.
         14    1    1    2    0    0  0.11776119445E-01 -0.18702372569E-01 -0.10445787064E-01  0.24445248951E-01  0.00000000000E+00 0. -1.
     999901    1    3    3    0    0 -0.85409197193E-01  0.68530855552E-01  0.99246161240E-01  0.89232337728E+00  0.88000000000E+00 0.  1.
        -11    1    4    4    0    0  0.42898016814E-01 -0.17343180978E-01 -0.46542473712E-01  0.65631461611E-01  0.51100000000E-03 0.  1.
         11    1    4    4    0    0  0.30735060935E-01 -0.32485302004E-01 -0.42257900464E-01  0.61529912153E-01  0.51100000000E-03 0. -1.
</event>
<event>
 8    1  0.1109294E+005  0.1043930E+01  0.7957747E-01            NaN
         13   -1    0    0    0    0  0.00000000000E+00  0.00000000000E+00  0.74505805969E-08  0.10566000000E+00  0.10566000000E+00 0.  1.
     999900   -1    0    0    0    0 -0.00000000000E+00 -0.00000000000E+00 -0.74505805969E-08  0.93827000000E+00  0.93827000000E+00 0.  1.
     999902    2    1    2    0    0  0.21435079250E-01  0.57297356110E-02  0.67147025486E-02  0.10207485479E+01  0.10204852857E+01 0.  0.
     999903    2    3    3    0    0  0.93096801997E-01  0.82895826977E-01  0.43844750752E-01  0.13369237792E+00  0.20311501004E-01 0.  0.
         14    1    1    2    0    0 -0.21435079250E-01 -0.57297356110E-02 -0.67147025486E-02  0.23181452132E-01  0.00000000000E+00 0. -1.
     999901    1    3    3    0    0 -0.71661722747E-01 -0.77166091366E-01 -0.37130048203E-01  0.88705616995E+00  0.88000000000E+00 0.  1.
        -11    1    4    4    0    0  0.41808340458E-01  0.33122744339E-01  0.86952090161E-02  0.54045548431E-01  0.51100000000E-03 0. -1.
         11    1    4    4    0    0  0.51288461539E-01  0.49773082639E-01  0.35149541735E-01  0.79646829489E-01  0.51100000000E-03 0.  1.
</event>
<event>
 8    1  0.1109294E+005  0.1043930E+01  0.7957747E-01            NaN
         13   -1    0    0    0    0  0.00000000000E+00  0.00000000000E+00  0.74505805969E-08  0.10566000000E+00  0.10566000000E+00 0.  1.
     999900   -1    0    0    0    0 -0.00000000000E+00 -0.00000000000E+00 -0.74505805969E-08  0.93827000000E+00  0.93827000000E+00 0. -1.
     999902    2    1    2    0    0 -0.33009960875E-01 -0.87108267247E-02 -0.82062535095E-02  0.10088176287E+01  0.10082063923E+01 0.  0.
     999903    2    3    3    0    0  0.96182866058E-01 -0.54133448290E-01  0.33973212070E-01  0.11722741547E+00  0.20162188660E-01 0.  0.
         14    1    1    2    0    0  0.33009960875E-01  0.87108267247E-02  0.82062535095E-02  0.35112371265E-01  0.00000000000E+00 0.  1.
     999901    1    3    3    0    0 -0.12919282693E+00  0.45422621565E-01 -0.42179465580E-01  0.89159021327E+00  0.88000000000E+00 0. -1.
        -11    1    4    4    0    0  0.64870035003E-01 -0.46746410746E-01  0.22480656250E-01  0.83060155221E-01  0.51100000000E-03 0. -1.
         11    1    4    4    0    0  0.31312831055E-01 -0.73870375439E-02  0.11492555820E-01  0.34167260244E-01  0.51100000000E-03 0.  1.
</event>
<event>
 8    1  0.1109294E+005  0.1043930E+01  0.7957747E-01            NaN
         13   -1    0    0    0    0  0.00000000000E+00  0.00000000000E+00  0.74505805969E-08  0.10566000000E+00  0.10566000000E+00 0. -1.
     999900   -1    0    0    0    0 -0.00000000000E+00 -0.00000000000E+00 -0.74505805969E-08  0.93827000000E+00  0.93827000000E+00 0.  1.
     999902    2    1    2    0    0 -0.19805487175E-01 -0.76480778431E-02  0.10118638213E-01  0.10204111298E+01  0.10201400573E+01 0.  0.
     999903    2    3    3    0    0 -0.11150995699E+00  0.66301851663E-01  0.18721962011E-01  0.13251906481E+00  0.19503451876E-01 0.  0.
         14    1    1    2    0    0  0.19805487175E-01  0.76480778431E-02 -0.10118638213E-01  0.23518870216E-01  0.00000000000E+00 0.  1.
     999901    1    3    3    0    0  0.91704469816E-01 -0.73949929507E-01 -0.86033237980E-02  0.88789206497E+00  0.88000000000E+00 0.  1.
        -11    1    4    4    0    0 -0.80188302444E-01  0.43740092780E-01  0.47614460000E-02  0.91467437125E-01  0.51100000000E-03 0.  1.
         11    1    4    4    0    0 -0.31321654548E-01  0.22561758883E-01  0.13960516011E-01  0.41051627688E-01  0.51100000000E-03 0. -1.
</event>
<event>
 8    1  0.1109294E+005  0.1043930E+01  0.7957747E-01            NaN
         13   -1    0    0    0    0  0.00000000000E+00  0.00000000000E+00  0.74505805969E-08  0.10566000000E+00  0.10566000000E+00 0.  1.
     999900   -1    0    0    0    0 -0.00000000000E+00 -0.00000000000E+00 -0.74505805969E-08  0.93827000000E+00  0.93827000000E+00 0.  1.
     999902    2    1    2    0    0  0.20718216857E-01 -0.24767662750E-02 -0.99614843014E-02  0.10208083640E+01  0.10205464742E+01 0.  0.
     999903    2    3    3    0    0  0.77064467214E-01  0.93429337943E-01 -0.50638577853E-01  0.13287395952E+00  0.20573046832E-01 0.  0.
         14    1    1    2    0    0 -0.20718216857E-01  0.24767662750E-02  0.99614843014E-02  0.23121635980E-01  0.00000000000E+00 0.  1.
     999901    1    3    3    0    0 -0.56346250357E-01 -0.95906104218E-01  0.40677093552E-01  0.88793440450E+00  0.88000000000E+00 0. -1.
        -11    1    4    4    0    0  0.57555558924E-01  0.61667459163E-01 -0.26324338392E-01  0.88367130742E-01  0.51100000000E-03 0.  1.
         11    1    4    4    0    0  0.19508908290E-01  0.31761878779E-01 -0.24314239462E-01  0.44506828778E-01  0.51100000000E-03 0. -1.
</event>
<event>
 8    1  0.1109294E+005  0.1043930E+01  0.7957747E-01            NaN
         13   -1    0    0    0    0  0.00000000000E+00  0.00000000000E+00  0.74505805969E-08  0.10566000000E+00  0.10566000000E+00 0.  1.
     999900   -1    0    0    0    0 -0.00000000000E+00 -0.00000000000E+00 -0.74505805969E-08  0.93827000000E+00  0.93827000000E+00 0.  1.
     999902    2    1    2    0    0 -0.83865105191E-02  0.21663194746E-01  0.17152843621E-02  0.10206368730E+01  0.10203710388E+01 0.  0.
     999903    2    3    3    0    0  0.68586936494E-02 -0.12629544240E+00  0.17066512507E-02  0.12815484257E+00  0.20571109997E-01 0.  0.
         14    1    1    2    0    0  0.83865105191E-02 -0.21663194746E-01 -0.17152843621E-02  0.23293127006E-01  0.00000000000E+00 0.  1.
     999901    1    3    3    0    0 -0.15245204169E-01  0.14795863714E+00  0.86331113064E-05  0.89248203042E+00  0.88000000000E+00 0. -1.
        -11    1    4    4    0    0 -0.73265342974E-02 -0.49779584736E-01  0.19416987744E-03  0.50318823359E-01  0.51100000000E-03 0.  1.
         11    1    4    4    0    0  0.14185227947E-01 -0.76515857662E-01  0.15124813733E-02  0.77836019211E-01  0.51100000000E-03 0. -1.
</event>
<event>
 8    1  0.1109294E+005  0.1043930E+01  0.7957747E-01            NaN
         13   -1    0    0    0    0  0.00000000000E+00  0.00000000000E+00  0.74505805969E-08  0.10566000000E+00  0.10566000000E+00 0.  1.
     999900   -1    0    0    0    0 -0.00000000000E+00 -0.00000000000E+00 -0.74505805969E-08  0.93827000000E+00  0.93827000000E+00 0. -1.
     999902    2    1    2    0    0  0.20479284037E-03  0.11912417095E-01  0.17794359291E-02  0.10318836722E+01  0.10318133547E+01 0.  0.
     999903    2    3    3    0    0 -0.53769414956E-01 -0.31445217874E-01  0.12458031473E+00  0.14066363459E+00  0.19648194926E-01 0.  0.
         14    1    1    2    0    0 -0.20479284037E-03 -0.11912417095E-01 -0.17794359291E-02  0.12046327796E-01  0.00000000000E+00 0. -1.
     999901    1    3    3    0    0  0.53974207796E-01  0.43357634969E-01 -0.12280087880E+00  0.89122003762E+00  0.88000000000E+00 0. -1.
        -11    1    4    4    0    0 -0.43287745491E-01 -0.30154708277E-01  0.11443201148E+00  0.12600826049E+00  0.51100000000E-03 0.  1.
         11    1    4    4    0    0 -0.10481669465E-01 -0.12905095974E-02  0.10148303258E-01  0.14655374093E-01  0.51100000000E-03 0. -1.
</event>
<event>
 8    1  0.1109294E+005  0.1043930E+01  0.7957747E-01            NaN
         13   -1    0    0    0    0  0.00000000000E+00  0.00000000000E+00  0.74505805969E-08  0.10566000000E+00  0.10566000000E+00 0.  1.
     999900   -1    0    0    0    0 -0.00000000000E+00 -0.00000000000E+00 -0.74505805969E-08  0.93827000000E+00  0.93827000000E+00 0. -1.
     999902    2    1    2    0    0  0.12801490497E-01 -0.17789645626E-01  0.18718587120E-01  0.10151075235E+01  0.10146982552E+01 0.  0.
     999903    2    3    3    0    0 -0.37759125624E-01  0.11124152704E+00 -0.30282523320E-01  0.12291554398E+00  0.19767924186E-01 0.  0.
         14    1    1    2    0    0 -0.12801490497E-01  0.17789645626E-01 -0.18718587120E-01  0.28822476545E-01  0.00000000000E+00 0. -1.
     999901    1    3    3    0    0  0.50560616121E-01 -0.12903117266E+00  0.49001110440E-01  0.89219197948E+00  0.88000000000E+00 0.  1.
        -11    1    4    4    0    0 -0.39544785966E-01  0.97095335835E-01 -0.27356938330E-01  0.10835108460E+00  0.51100000000E-03 0.  1.
         11    1    4    4    0    0  0.17856603417E-02  0.14146191203E-01 -0.29255849898E-02  0.14564459377E-01  0.51100000000E-03 0. -1.
</event>
<event>
 7    1  0.1109294E+005  0.1043930E+01  0.7957747E-01            NaN
         13   -1    0    0    0    0  0.00000000000E+00  0.00000000000E+00  0.74505805969E-08  0.10566000000E+00  0.10566000000E+00 0.  1.
     999900   -1    0    0    0    0 -0.00000000000E+00 -0.00000000000E+00 -0.74505805969E-08  0.93827000000E+00  0.93827000000E+00 0.  1.
     999903    2    1    2    0    0 -0.40559861997E-01 -0.30975787033E-01  0.13097104674E-01  0.57240325243E-01  0.22367809362E-01 0.  0.
         14    1    1    2    0    0  0.79533612930E-01  0.66576689034E-01  0.14181226488E-01  0.10468599855E+00  0.00000000000E+00 0.  1.
     999901    1    1    2    0    0 -0.38973750933E-01 -0.35600902001E-01 -0.27278331162E-01  0.88200367620E+00  0.88000000000E+00 0.  1.
        -11    1    3    3    0    0 -0.36439546220E-01 -0.16139591107E-01  0.61059817281E-02  0.40322091509E-01  0.51100000000E-03 0.  1.
         11    1    3    3    0    0 -0.41203157768E-02 -0.14836195925E-01  0.69911229457E-02  0.16918233734E-01  0.51100000000E-03 0. -1.
</event>
<event>
 8    1  0.1109294E+005  0.1043930E+01  0.7957747E-01            NaN
         13   -1    0    0    0    0  0.00000000000E+00  0.00000000000E+00  0.74505805969E-08  0.10566000000E+00  0.10566000000E+00 0. -1.
     999900   -1    0    0    0    0 -0.00000000000E+00 -0.00000000000E+00 -0.74505805969E-08  0.93827000000E+00  0.93827000000E+00 0. -1.
     999902    2    1    2    0    0 -0.74917181648E-02 -0.15279621008E-01 -0.15430792373E-01  0.10209582345E+01  0.10206997671E+01 0.  0.
     999903    2    3    3    0    0  0.99565029382E-01 -0.53331620572E-03 -0.84030456626E-01  0.13169757827E+00  0.19226413566E-01 0.  0.
         14    1    1    2    0    0  0.74917181648E-02  0.15279621008E-01  0.15430792373E-01  0.22971765550E-01  0.00000000000E+00 0. -1.
     999901    1    3    3    0    0 -0.10705674755E+00 -0.14746304802E-01  0.68599664253E-01  0.88926065618E+00  0.88000000000E+00 0.  1.
        -11    1    4    4    0    0  0.55324462062E-01 -0.35752969398E-02 -0.58175797082E-01  0.80363320849E-01  0.51100000000E-03 0. -1.
         11    1    4    4    0    0  0.44240567320E-01  0.30419807341E-02 -0.25854659544E-01  0.51334257418E-01  0.51100000000E-03 0.  1.
</event>
<event>
 8    1  0.1109294E+005  0.1043930E+01  0.7957747E-01            NaN
         13   -1    0    0    0    0  0.00000000000E+00  0.00000000000E+00  0.74505805969E-08  0.10566000000E+00  0.10566000000E+00 0.  1.
     999900   -1    0    0    0    0 -0.00000000000E+00 -0.00000000000E+00 -0.74505805969E-08  0.93827000000E+00  0.93827000000E+00 0. -1.
     999902    2    1    2    0    0  0.14314770970E-01 -0.17071400185E-01 -0.84449360998E-02  0.10201043349E+01  0.10198260596E+01 0.  0.
     999903    2    3    3    0    0 -0.93894789687E-01 -0.46319456970E-01 -0.75253422817E-01  0.13048186904E+00  0.20017913950E-01 0.  0.
         14    1    1    2    0    0 -0.14314770970E-01  0.17071400185E-01  0.84449360998E-02  0.23825665110E-01  0.00000000000E+00 0.  1.
     999901    1    3    3    0    0  0.10820956066E+00  0.29248056785E-01  0.66808486717E-01  0.88962246585E+00  0.88000000000E+00 0.  1.
        -11    1    4    4    0    0 -0.64591210454E-01 -0.33219690749E-01 -0.62900137042E-01  0.96084653729E-01  0.51100000000E-03 0. -1.
         11    1    4    4    0    0 -0.29303579232E-01 -0.13099766221E-01 -0.12353285775E-01  0.34397215313E-01  0.51100000000E-03 0.  1.
</event>
<event>
 8    1  0.1109294E+005  0.1043930E+01  0.7957747E-01            NaN
         13   -1    0    0    0    0  0.00000000000E+00  0.00000000000E+00  0.74505805969E-08  0.10566000000E+00  0.10566000000E+00 0.  1.
     999900   -1    0    0    0    0 -0.00000000000E+00 -0.00000000000E+00 -0.74505805969E-08  0.93827000000E+00  0.93827000000E+00 0. -1.
     999902    2    1    2    0    0 -0.19370705182E-01 -0.42145018625E-02  0.15751821911E-01  0.10186099262E+01  0.10182951810E+01 0.  0.
     999903    2    3    3    0    0 -0.10720328995E+00 -0.33431135027E-01  0.67041986047E-01  0.13226977954E+00  0.19760579937E-01 0.  0.
         14    1    1    2    0    0  0.19370705182E-01  0.42145018625E-02 -0.15751821911E-01  0.25320073830E-01  0.00000000000E+00 0.  1.
     999901    1    3    3    0    0  0.87832584770E-01  0.29216633165E-01 -0.51290164135E-01  0.88634014664E+00  0.88000000000E+00 0. -1.
        -11    1    4    4    0    0 -0.39312734343E-01 -0.21571234654E-01  0.30779142959E-01  0.54391414840E-01  0.51100000000E-03 0. -1.
         11    1    4    4    0    0 -0.67890555609E-01 -0.11859900373E-01  0.36262843088E-01  0.77878364695E-01  0.51100000000E-03 0.  1.
</event>
<event>
 7    1  0.1109294E+005  0.1043930E+01  0.7957747E-01            NaN
         13   -1    0    0    0    0  0.00000000000E+00  0.00000000000E+00  0.74505805969E-08  0.10566000000E+00  0.10566000000E+00 0.  1.
     999900   -1    0    0    0    0 -0.00000000000E+00 -0.00000000000E+00 -0.74505805969E-08  0.93827000000E+00  0.93827000000E+00 0. -1.
     999903    2    1    2    0    0  0.71235393311E-01  0.97166807404E-01 -0.77334579423E-01  0.14446644334E+00  0.19340278043E-01 0.  0.
         14    1    1    2    0    0  0.52849779610E-02  0.45270437950E-02  0.90441831231E-04  0.69594035158E-02  0.00000000000E+00 0.  1.
     999901    1    1    2    0    0 -0.76520371273E-01 -0.10169385120E+00  0.77244137592E-01  0.89250415315E+00  0.88000000000E+00 0. -1.
        -11    1    3    3    0    0  0.76494950366E-02  0.10096772799E-01 -0.16035116503E-01  0.20441273873E-01  0.51100000000E-03 0. -1.
         11    1    3    3    0    0  0.63585898275E-01  0.87070034605E-01 -0.61299462920E-01  0.12402516947E+00  0.51100000000E-03 0.  1.
</event>
<event>
 8    1  0.1109294E+005  0.1043930E+01  0.7957747E-01            NaN
         13   -1    0    0    0    0  0.00000000000E+00  0.00000000000E+00  0.74505805969E-08  0.10566000000E+00  0.10566000000E+00 0. -1.
     999900   -1    0    0    0    0 -0.00000000000E+00 -0.00000000000E+00 -0.74505805969E-08  0.93827000000E+00  0.93827000000E+00 0.  1.
     999902    2    1    2    0    0 -0.75454955647E-02 -0.52086508363E-02 -0.14141863826E-01  0.10270760135E+01  0.10269377200E+01 0.  0.
     999903    2    3    3    0    0 -0.98057382340E-02 -0.13537964061E+00  0.18737299730E-02  0.13735353180E+00  0.20944742548E-01 0.  0.
         14    1    1    2    0    0  0.75454955647E-02  0.52086508363E-02  0.14141863826E-01  0.16853986452E-01  0.00000000000E+00 0. -1.
     999901    1    3    3    0    0  0.22602426693E-02  0.13017098978E+00 -0.16015593799E-01  0.88972248174E+00  0.88000000000E+00 0. -1.
        -11    1    4    4    0    0  0.12668556123E-02 -0.28190328472E-01 -0.74497211591E-02  0.29190049826E-01  0.51100000000E-03 0. -1.
         11    1    4    4    0    0 -0.11072593846E-01 -0.10718931214E+00  0.93234511321E-02  0.10816348198E+00  0.51100000000E-03 0.  1.
</event>
<event>
 8    1  0.1109294E+005  0.1043930E+01  0.7957747E-01            NaN
         13   -1    0    0    0    0  0.00000000000E+00  0.00000000000E+00  0.74505805969E-08  0.10566000000E+00  0.10566000000E+00 0. -1.
     999900   -1    0    0    0    0 -0.00000000000E+00 -0.00000000000E+00 -0.74505805969E-08  0.93827000000E+00  0.93827000000E+00 0.  1.
     999902    2    1    2    0    0 -0.18103399632E-01 -0.13769272070E-01  0.29552007434E-02  0.10209940208E+01  0.10207363672E+01 0.  0.
     999903    2    3    3    0    0 -0.42608602564E-01 -0.67156754525E-01  0.10501189059E+00  0.13315039930E+00  0.19390950898E-01 0.  0.
         14    1    1    2    0    0  0.18103399632E-01  0.13769272070E-01 -0.29552007434E-02  0.22935979225E-01  0.00000000000E+00 0.  1.
     999901    1    3    3    0    0  0.24505202932E-01  0.53387482455E-01 -0.10205668985E+00  0.88784362148E+00  0.88000000000E+00 0.  1.
        -11    1    4    4    0    0 -0.21681639204E-01 -0.50195432452E-01  0.65448644527E-01  0.85284588931E-01  0.51100000000E-03 0.  1.
         11    1    4    4    0    0 -0.20926963360E-01 -0.16961322073E-01  0.39563246065E-01  0.47865810368E-01  0.51100000000E-03 0. -1.
</event>
<event>
 8    1  0.1109294E+005  0.1043930E+01  0.7957747E-01            NaN
         13   -1    0    0    0    0  0.00000000000E+00  0.00000000000E+00  0.74505805969E-08  0.10566000000E+00  0.10566000000E+00 0. -1.
     999900   -1    0    0    0    0 -0.00000000000E+00 -0.00000000000E+00 -0.74505805969E-08  0.93827000000E+00  0.93827000000E+00 0. -1.
     999902    2    1    2    0    0 -0.13876274719E-01 -0.21637371198E-01  0.75047667914E-02  0.10171522414E+01  0.10167997019E+01 0.  0.
     999903    2    3    3    0    0 -0.67939143913E-01  0.10383204387E+00 -0.12303979145E-01  0.12638978462E+00  0.20643864567E-01 0.  0.
         14    1    1    2    0    0  0.13876274719E-01  0.21637371198E-01 -0.75047667914E-02  0.26777758626E-01  0.00000000000E+00 0.  1.
     999901    1    3    3    0    0  0.54062869194E-01 -0.12546941507E+00  0.19808745936E-01  0.89076245675E+00  0.88000000000E+00 0. -1.
        -11    1    4    4    0    0 -0.35887121062E-01  0.71897348081E-01 -0.11141094813E-01  0.81126439795E-01  0.51100000000E-03 0. -1.
         11    1    4    4    0    0 -0.32052022852E-01  0.31934695789E-01 -0.11628843313E-02  0.45263344828E-01  0.51100000000E-03 0.  1.
</event>
<event>
 8    1  0.1109294E+005  0.1043930E+01  0.7957747E-01            NaN
         13   -1    0    0    0    0  0.00000000000E+00  0.00000000000E+00  0.74505805969E-08  0.10566000000E+00  0.10566000000E+00 0. -1.
     999900   -1    0    0    0    0 -0.00000000000E+00 -0.00000000000E+00 -0.74505805969E-08  0.93827000000E+00  0.93827000000E+00 0.  1.
     999902    2    1    2    0    0 -0.73881506204E-02  0.20561239839E-01 -0.73151207544E-02  0.10208895932E+01  0.10206295612E+01 0.  0.
     999903    2    3    3    0    0  0.11045068518E+00  0.63381713216E-01 -0.26789888927E-01  0.13178957029E+00  0.20837400527E-01 0.  0.
         14    1    1    2    0    0  0.73881506204E-02 -0.20561239839E-01  0.73151207544E-02  0.23040406788E-01  0.00000000000E+00 0. -1.
     999901    1    3    3    0    0 -0.11783883580E+00 -0.42820473377E-01  0.19474768172E-01  0.88910002292E+00  0.88000000000E+00 0.  1.
        -11    1    4    4    0    0  0.60878129168E-01  0.40962734664E-01 -0.62908398598E-02  0.73647321942E-01  0.51100000000E-03 0.  1.
         11    1    4    4    0    0  0.49572556016E-01  0.22418978552E-01 -0.20499049067E-01  0.58142248348E-01  0.51100000000E-03 0. -1.
</event>
<event>
 8    1  0.1109294E+005  0.1043930E+01  0.7957747E-01            NaN
         13   -1    0    0    0    0  0.00000000000E+00  0.00000000000E+00  0.74505805969E-08  0.10566000000E+00  0.10566000000E+00 0. -1.
     999900   -1    0    0    0    0 -0.00000000000E+00 -0.00000000000E+00 -0.74505805969E-08  0.93827000000E+00  0.93827000000E+00 0. -1.
     999902    2    1    2    0    0  0.21028335103E-01  0.43896996844E-02  0.69168232147E-02  0.10213622623E+01  0.10211129066E+01 0.  0.
     999903    2    3    3    0    0  0.86858707165E-01 -0.35589072040E-01 -0.91399710498E-01  0.13254390018E+00  0.20073896920E-01 0.  0.
         14    1    1    2    0    0 -0.21028335103E-01 -0.43896996844E-02 -0.69168232147E-02  0.22567737678E-01  0.00000000000E+00 0.  1.
     999901    1    3    3    0    0 -0.65830372062E-01  0.39978771724E-01  0.98316533713E-01  0.88881836214E+00  0.88000000000E+00 0.  1.
        -11    1    4    4    0    0  0.88244200686E-02  0.69558221684E-03 -0.15204344256E-01  0.17600779228E-01  0.51100000000E-03 0. -1.
         11    1    4    4    0    0  0.78034287096E-01 -0.36284654257E-01 -0.76195366242E-01  0.11494312096E+00  0.51100000000E-03 0.  1.
</event>
<event>
 8    1  0.1109294E+005  0.1043930E+01  0.7957747E-01            NaN
         13   -1    0    0    0    0  0.00000000000E+00  0.00000000000E+00  0.74505805969E-08  0.10566000000E+00  0.10566000000E+00 0.  1.
     999900   -1    0    0    0    0 -0.00000000000E+00 -0.00000000000E+00 -0.74505805969E-08  0.93827000000E+00  0.93827000000E+00 0. -1.
     999902    2    1    2    0    0  0.68247961479E-02  0.16759831466E-01  0.14750222526E-01  0.10205839327E+01  0.10203168747E+01 0.  0.
     999903    2    3    3    0    0  0.35077654266E-01  0.73388426491E-01 -0.10015376035E+00  0.13086040990E+00  0.21848757266E-01 0.  0.
         14    1    1    2    0    0 -0.68247961479E-02 -0.16759831466E-01 -0.14750222526E-01  0.23346067287E-01  0.00000000000E+00 0. -1.
     999901    1    3    3    0    0 -0.28252858118E-01 -0.56628595024E-01  0.11490398288E+00  0.88972352281E+00  0.88000000000E+00 0.  1.
        -11    1    4    4    0    0  0.27679491657E-01  0.36202927234E-01 -0.46021870464E-01  0.64769436316E-01  0.51100000000E-03 0.  1.
         11    1    4    4    0    0  0.73981626091E-02  0.37185499256E-01 -0.54131889891E-01  0.66090973583E-01  0.51100000000E-03 0. -1.
</event>
<event>
 8    1  0.1109294E+005  0.1043930E+01  0.7957747E-01            NaN
         13   -1    0    0    0    0  0.00000000000E+00  0.00000000000E+00  0.74505805969E-08  0.10566000000E+00  0.10566000000E+00 0.  1.
     999900   -1    0    0    0    0 -0.00000000000E+00 -0.00000000000E+00 -0.74505805969E-08  0.93827000000E+00  0.93827000000E+00 0.  1.
     999902    2    1    2    0    0  0.91286811827E-02 -0.30620484869E-02 -0.22090243229E-01  0.10198325353E+01  0.10195477979E+01 0.  0.
     999903    2    3    3    0    0  0.80897026359E-01 -0.94641958790E-01 -0.36397325070E-01  0.13205876456E+00  0.24765354605E-01 0.  0.
         14    1    1    2    0    0 -0.91286811827E-02  0.30620484869E-02  0.22090243229E-01  0.24097464742E-01  0.00000000000E+00 0.  1.
     999901    1    3    3    0    0 -0.71768345176E-01  0.91579910303E-01  0.14307081841E-01  0.88777377069E+00  0.88000000000E+00 0.  1.
        -11    1    4    4    0    0  0.54809988886E-01 -0.79939641091E-01 -0.25956376689E-01  0.10034179444E+00  0.51100000000E-03 0.  1.
         11    1    4    4    0    0  0.26087037473E-01 -0.14702317699E-01 -0.10440948381E-01  0.31716970125E-01  0.51100000000E-03 0. -1.
</event>
<event>
 8    1  0.1109294E+005  0.1043930E+01  0.7957747E-01            NaN
         13   -1    0    0    0    0  0.00000000000E+00  0.00000000000E+00  0.74505805969E-08  0.10566000000E+00  0.10566000000E+00 0. -1.
     999900   -1    0    0    0    0 -0.00000000000E+00 -0.00000000000E+00 -0.74505805969E-08  0.93827000000E+00  0.93827000000E+00 0. -1.
     999902    2    1    2    0    0  0.12460445688E-01 -0.19244846862E-01 -0.67450962746E-02  0.10200318168E+01  0.10197518247E+01 0.  0.
     999903    2    3    3    0    0  0.11622892929E+00  0.10368711451E-01 -0.58111173179E-01  0.13195336592E+00  0.20447692999E-01 0.  0.
         14    1    1    2    0    0 -0.12460445688E-01  0.19244846862E-01  0.67450962746E-02  0.23898183221E-01  0.00000000000E+00 0.  1.
     999901    1    3    3    0    0 -0.10376848360E+00 -0.29613558314E-01  0.51366076904E-01  0.88807845086E+00  0.88000000000E+00 0.  1.
        -11    1    4    4    0    0  0.42667467705E-01 -0.25072240395E-02 -0.29702738087E-01  0.52051059005E-01  0.51100000000E-03 0.  1.
         11    1    4    4    0    0  0.73561461582E-01  0.12875935491E-01 -0.28408435092E-01  0.79902306914E-01  0.51100000000E-03 0. -1.
</event>
<event>
 8    1  0.1109294E+005  0.1043930E+01  0.7957747E-01            NaN
         13   -1    0    0    0    0  0.00000000000E+00  0.00000000000E+00  0.74505805969E-08  0.10566000000E+00  0.10566000000E+00 0.  1.
     999900   -1    0    0    0    0 -0.00000000000E+00 -0.00000000000E+00 -0.74505805969E-08  0.93827000000E+00  0.93827000000E+00 0.  1.
     999902    2    1    2    0    0  0.99363582807E-02  0.81440275465E-02  0.18219982092E-01  0.10216359616E+01  0.10213926835E+01 0.  0.
     999903    2    3    3    0    0 -0.80055171437E-01  0.96529872792E-01 -0.32974726579E-01  0.13116898790E+00  0.19776854625E-01 0.  0.
         14    1    1    2    0    0 -0.99363582807E-02 -0.81440275465E-02 -0.18219982092E-01  0.22294038396E-01  0.00000000000E+00 0. -1.
     999901    1    3    3    0    0  0.89991529718E-01 -0.88385845245E-01  0.51194708671E-01  0.89046697370E+00  0.88000000000E+00 0. -1.
        -11    1    4    4    0    0 -0.31433127618E-01  0.30870985656E-01 -0.20210183284E-01  0.48474445810E-01  0.51100000000E-03 0. -1.
         11    1    4    4    0    0 -0.48622043820E-01  0.65658887135E-01 -0.12764543296E-01  0.82694542091E-01  0.51100000000E-03 0.  1.
</event>
<event>
 7    1  0.1109294E+005  0.1043930E+01  0.7957747E-01            NaN
         13   -1    0    0    0    0  0.00000000000E+00  0.00000000000E+00  0.74505805969E-08  0.10566000000E+00  0.10566000000E+00 0.  1.
     999900   -1    0    0    0    0 -0.00000000000E+00 -0.00000000000E+00 -0.74505805969E-08  0.93827000000E+00  0.93827000000E+00 0. -1.
     999903    2    1    2    0    0  0.71438916409E-01  0.36298482102E-01 -0.26910676246E-01  0.85898338354E-01  0.15272244606E-01 0.  0.
         14    1    1    2    0    0 -0.60153631001E-01 -0.48837626090E-01  0.33241316888E-02  0.77553999872E-01  0.00000000000E+00 0. -1.
     999901    1    1    2    0    0 -0.11285285408E-01  0.12539143988E-01  0.23586544557E-01  0.88047766177E+00  0.88000000000E+00 0.  1.
        -11    1    3    3    0    0  0.32922999964E-01  0.15110418403E-01 -0.43605744598E-02  0.36490058941E-01  0.51100000000E-03 0. -1.
         11    1    3    3    0    0  0.38515916446E-01  0.21188063699E-01 -0.22550101786E-01  0.49408279412E-01  0.51100000000E-03 0.  1.
</event>
<event>
 8    1  0.1109294E+005  0.1043930E+01  0.7957747E-01            NaN
         13   -1    0    0    0    0  0.00000000000E+00  0.00000000000E+00  0.74505805969E-08  0.10566000000E+00  0.10566000000E+00 0.  1.
     999900   -1    0    0    0    0 -0.00000000000E+00 -0.00000000000E+00 -0.74505805969E-08  0.93827000000E+00  0.93827000000E+00 0.  1.
     999902    2    1    2    0    0 -0.11318545418E-02 -0.10644957239E-01 -0.18976375127E-01  0.10221424113E+01  0.10219101770E+01 0.  0.
     999903    2    3    3    0    0  0.67346354387E-01  0.10920644119E-01 -0.11448706178E+00  0.13406773451E+00  0.14562905046E-01 0.  0.
         14    1    1    2    0    0  0.11318545418E-02  0.10644957239E-01  0.18976375127E-01  0.21787588721E-01  0.00000000000E+00 0. -1.
     999901    1    3    3    0    0 -0.68478208929E-01 -0.21565601358E-01  0.95510686653E-01  0.88807467677E+00  0.88000000000E+00 0.  1.
        -11    1    4    4    0    0  0.33458943804E-01  0.68846758612E-03 -0.45003988139E-01  0.56085604013E-01  0.51100000000E-03 0.  1.
         11    1    4    4    0    0  0.33887410583E-01  0.10232176533E-01 -0.69483073641E-01  0.77982130493E-01  0.51100000000E-03 0. -1.
</event>
<event>
 8    1  0.1109294E+005  0.1043930E+01  0.7957747E-01            NaN
         13   -1    0    0    0    0  0.00000000000E+00  0.00000000000E+00  0.74505805969E-08  0.10566000000E+00  0.10566000000E+00 0.  1.
     999900   -1    0    0    0    0 -0.00000000000E+00 -0.00000000000E+00 -0.74505805969E-08  0.93827000000E+00  0.93827000000E+00 0. -1.
     999902    2    1    2    0    0 -0.93742486394E-02 -0.21290771758E-01  0.42137248924E-02  0.10202883212E+01  0.10200143770E+01 0.  0.
     999903    2    3    3    0    0  0.91401775532E-01 -0.36685768848E-01  0.83272005053E-01  0.13088232579E+00  0.22267154573E-01 0.  0.
         14    1    1    2    0    0  0.93742486394E-02  0.21290771758E-01 -0.42137248924E-02  0.23641678813E-01  0.00000000000E+00 0.  1.
     999901    1    3    3    0    0 -0.10077602417E+00  0.15394997090E-01 -0.79058280161E-01  0.88940599540E+00  0.88000000000E+00 0. -1.
        -11    1    4    4    0    0  0.41751858510E-01 -0.12215918715E-01  0.23620543386E-01  0.49503914491E-01  0.51100000000E-03 0. -1.
         11    1    4    4    0    0  0.49649917021E-01 -0.24469850134E-01  0.59651461667E-01  0.81378411301E-01  0.51100000000E-03 0.  1.
</event>
<event>
 8    1  0.1109294E+005  0.1043930E+01  0.7957747E-01            NaN
         13   -1    0    0    0    0  0.00000000000E+00  0.00000000000E+00  0.74505805969E-08  0.10566000000E+00  0.10566000000E+00 0. -1.
     999900   -1    0    0    0    0 -0.00000000000E+00 -0.00000000000E+00 -0.74505805969E-08  0.93827000000E+00  0.93827000000E+00 0.  1.
     999902    2    1    2    0    0  0.16837068337E-02 -0.23846890186E-01 -0.14632394208E-02  0.10199790061E+01  0.10196977605E+01 0.  0.
     999903    2    3    3    0    0  0.89370533547E-01 -0.73908257056E-01 -0.60296885624E-01  0.13225353165E+00  0.20143472618E-01 0.  0.
         14    1    1    2    0    0 -0.16837068337E-02  0.23846890186E-01  0.14632394208E-02  0.23950993922E-01  0.00000000000E+00 0.  1.
     999901    1    3    3    0    0 -0.87686826713E-01  0.50061366870E-01  0.58833646203E-01  0.88772547443E+00  0.88000000000E+00 0. -1.
        -11    1    4    4    0    0  0.58722921857E-02 -0.75077575396E-02 -0.11486081816E-01  0.14934571814E-01  0.51100000000E-03 0. -1.
         11    1    4    4    0    0  0.83498241361E-01 -0.66400499516E-01 -0.48810803808E-01  0.11731895983E+00  0.51100000000E-03 0.  1.
</event>
<event>
 8    1  0.1109294E+005  0.1043930E+01  0.7957747E-01            NaN
         13   -1    0    0    0    0  0.00000000000E+00  0.00000000000E+00  0.74505805969E-08  0.10566000000E+00  0.10566000000E+00 0. -1.
     999900   -1    0    0    0    0 -0.00000000000E+00 -0.00000000000E+00 -0.74505805969E-08  0.93827000000E+00  0.93827000000E+00 0. -1.
     999902    2    1    2    0    0  0.68603662983E-02 -0.21724267184E-01  0.52410739268E-02  0.10205531468E+01  0.10202853758E+01 0.  0.
     999903    2    3    3    0    0 -0.30956161654E-01  0.12257441350E+00  0.29953456074E-02  0.12799657024E+00  0.19783303756E-01 0.  0.
         14    1    1    2    0    0 -0.68603662983E-02  0.21724267184E-01 -0.52410739268E-02  0.23376853217E-01  0.00000000000E+00 0.  1.
     999901    1    3    3    0    0  0.37816527952E-01 -0.14429868069E+00  0.22457283194E-02  0.89255657654E+00  0.88000000000E+00 0.  1.
        -11    1    4    4    0    0 -0.23686671719E-01  0.87075524149E-01 -0.66799334287E-02  0.90488054209E-01  0.51100000000E-03 0. -1.
         11    1    4    4    0    0 -0.72694899348E-02  0.35498889355E-01  0.96752790361E-02  0.37508516030E-01  0.51100000000E-03 0.  1.
</event>
<event>
 8    1  0.1109294E+005  0.1043930E+01  0.7957747E-01            NaN
         13   -1    0    0    0    0  0.00000000000E+00  0.00000000000E+00  0.74505805969E-08  0.10566000000E+00  0.10566000000E+00 0. -1.
     999900   -1    0    0    0    0 -0.00000000000E+00 -0.00000000000E+00 -0.74505805969E-08  0.93827000000E+00  0.93827000000E+00 0.  1.
     999902    2    1    2    0    0  0.23158330345E-01 -0.24003454820E-02  0.99553248482E-03  0.10206263306E+01  0.10203602529E+01 0.  0.
     999903    2    3    3    0    0 -0.32241186567E-01 -0.95016117060E-01  0.80810477565E-01  0.13044813884E+00  0.20465263986E-01 0.  0.
         14    1    1    2    0    0 -0.23158330345E-01  0.24003454820E-02 -0.99553248482E-03  0.23303669405E-01  0.00000000000E+00 0.  1.
     999901    1    3    3    0    0  0.55399516912E-01  0.92615771578E-01 -0.79814945080E-01  0.89017819176E+00  0.88000000000E+00 0.  1.
        -11    1    4    4    0    0 -0.13608491271E-01 -0.15065574321E-01  0.15923083761E-01  0.25806361265E-01  0.51100000000E-03 0. -1.
         11    1    4    4    0    0 -0.18632695296E-01 -0.79950542740E-01  0.64887393803E-01  0.10464177757E+00  0.51100000000E-03 0.  1.
</event>
<event>
 8    1  0.1109294E+005  0.1043930E+01  0.7957747E-01            NaN
         13   -1    0    0    0    0  0.00000000000E+00  0.00000000000E+00  0.74505805969E-08  0.10566000000E+00  0.10566000000E+00 0.  1.
     999900   -1    0    0    0    0 -0.00000000000E+00 -0.00000000000E+00 -0.74505805969E-08  0.93827000000E+00  0.93827000000E+00 0.  1.
     999902    2    1    2    0    0  0.19592211796E-01 -0.60361451266E-02 -0.13502132496E-01  0.10193821408E+01  0.10190865280E+01 0.  0.
     999903    2    3    3    0    0 -0.44962307034E-01  0.92275395963E-01 -0.75943483592E-01  0.12936451884E+00  0.20770370253E-01 0.  0.
         14    1    1    2    0    0 -0.19592211796E-01  0.60361451266E-02  0.13502132496E-01  0.24547859235E-01  0.00000000000E+00 0.  1.
     999901    1    3    3    0    0  0.64554518831E-01 -0.98311541089E-01  0.62441351095E-01  0.89001762193E+00  0.88000000000E+00 0. -1.
        -11    1    4    4    0    0 -0.29848527805E-01  0.46526810336E-01 -0.30520510746E-01  0.63146190616E-01  0.51100000000E-03 0. -1.
         11    1    4    4    0    0 -0.15113779230E-01  0.45748585626E-01 -0.45422972846E-01  0.66218328222E-01  0.51100000000E-03 0.  1.
</event>
<event>
 8    1  0.1280280E+005  0.1043930E+01  0.7957747E-01            NaN
         13   -1    0    0    0    0  0.00000000000E+00  0.00000000000E+00  0.74505805969E-08  0.10566000000E+00  0.10566000000E+00 0.  1.
     999900   -1    0    0    0    0 -0.00000000000E+00 -0.00000000000E+00 -0.74505805969E-08  0.93827000000E+00  0.93827000000E+00 0.  1.
     999902    2    1    2    0    0  0.13447269119E-01 -0.11594800128E-02  0.20158257400E-01  0.10196703878E+01  0.10193817592E+01 0.  0.
     999903    2    3    3    0    0 -0.73805533150E-01 -0.85802470484E-01  0.61155858882E-01  0.13036825096E+00  0.21131046297E-01 0.  0.
         14    1    1    2    0    0 -0.13447269119E-01  0.11594800128E-02 -0.20158257400E-01  0.24259612158E-01  0.00000000000E+00 0.  1.
     999901    1    3    3    0    0  0.87252802268E-01  0.84642990471E-01 -0.40997601482E-01  0.88930213688E+00  0.88000000000E+00 0. -1.
        -11    1    4    4    0    0 -0.37583417622E-01 -0.28624994423E-01  0.28946887462E-01  0.55408365800E-01  0.51100000000E-03 0.  1.
         11    1    4    4    0    0 -0.36222115528E-01 -0.57177476061E-01  0.32208971420E-01  0.74959885158E-01  0.51100000000E-03 0. -1.
</event>
<event>
 8    1  0.1109294E+005  0.1043930E+01  0.7957747E-01            NaN
         13   -1    0    0    0    0  0.00000000000E+00  0.00000000000E+00  0.74505805969E-08  0.10566000000E+00  0.10566000000E+00 0.  1.
     999900   -1    0    0    0    0 -0.00000000000E+00 -0.00000000000E+00 -0.74505805969E-08  0.93827000000E+00  0.93827000000E+00 0.  1.
     999902    2    1    2    0    0  0.29550331782E-03  0.14619718010E-01  0.18199209131E-01  0.10205840220E+01  0.10203169661E+01 0.  0.
     999903    2    3    3    0    0  0.12292400948E+00  0.17784755974E-01 -0.34888893902E-01  0.13049070402E+00  0.19595388869E-01 0.  0.
         14    1    1    2    0    0 -0.29550331782E-03 -0.14619718010E-01 -0.18199209131E-01  0.23345978024E-01  0.00000000000E+00 0. -1.
     999901    1    3    3    0    0 -0.12262850617E+00 -0.31650379631E-02  0.53088103032E-01  0.89009331796E+00  0.88000000000E+00 0. -1.
        -11    1    4    4    0    0  0.96456957152E-01  0.19925680875E-01 -0.32955753264E-01  0.10386202451E+00  0.51100000000E-03 0.  1.
         11    1    4    4    0    0  0.26467052332E-01 -0.21409249019E-02 -0.19331406375E-02  0.26628679507E-01  0.51100000000E-03 0. -1.
</event>
<event>
 8    1  0.1109294E+005  0.1043930E+01  0.7957747E-01            NaN
         13   -1    0    0    0    0  0.00000000000E+00  0.00000000000E+00  0.74505805969E-08  0.10566000000E+00  0.10566000000E+00 0.  1.
     999900   -1    0    0    0    0 -0.00000000000E+00 -0.00000000000E+00 -0.74505805969E-08  0.93827000000E+00  0.93827000000E+00 0. -1.
     999902    2    1    2    0    0  0.18479215407E-01  0.10127554401E-01 -0.28805979119E-03  0.10228555667E+01  0.10226384398E+01 0.  0.
     999903    2    3    3    0    0  0.34695637812E-02  0.94439343210E-01  0.92866736110E-01  0.13380462139E+00  0.18671331236E-01 0.  0.
         14    1    1    2    0    0 -0.18479215407E-01 -0.10127554401E-01  0.28805979119E-03  0.21074433293E-01  0.00000000000E+00 0. -1.
     999901    1    3    3    0    0  0.15009651626E-01 -0.84311788809E-01 -0.93154795901E-01  0.88905094532E+00  0.88000000000E+00 0. -1.
        -11    1    4    4    0    0  0.10639614361E-01  0.45317371841E-01  0.48448575845E-01  0.67189219424E-01  0.51100000000E-03 0. -1.
         11    1    4    4    0    0 -0.71700505796E-02  0.49121971368E-01  0.44418160265E-01  0.66615401963E-01  0.51100000000E-03 0.  1.
</event>
<event>
 8    1  0.1109294E+005  0.1043930E+01  0.7957747E-01            NaN
         13   -1    0    0    0    0  0.00000000000E+00  0.00000000000E+00  0.74505805969E-08  0.10566000000E+00  0.10566000000E+00 0. -1.
     999900   -1    0    0    0    0 -0.00000000000E+00 -0.00000000000E+00 -0.74505805969E-08  0.93827000000E+00  0.93827000000E+00 0. -1.
     999902    2    1    2    0    0 -0.25372659073E-01  0.10423034500E-01  0.18913842161E-02  0.10164347493E+01  0.10160627986E+01 0.  0.
     999903    2    3    3    0    0  0.10579159012E+00 -0.25041257939E-01  0.56722287388E-01  0.12432029238E+00  0.20474180639E-01 0.  0.
         14    1    1    2    0    0  0.25372659073E-01 -0.10423034500E-01 -0.18913842161E-02  0.27495250697E-01  0.00000000000E+00 0. -1.
     999901    1    3    3    0    0 -0.13116424919E+00  0.35464292439E-01 -0.54830903172E-01  0.89211445692E+00  0.88000000000E+00 0.  1.
        -11    1    4    4    0    0  0.69645086403E-01 -0.63715322114E-02  0.35523194864E-01  0.78442290744E-01  0.51100000000E-03 0.  1.
         11    1    4    4    0    0  0.36146503714E-01 -0.18669725728E-01  0.21199092524E-01  0.45878001639E-01  0.51100000000E-03 0. -1.
</event>
<event>
 8    1  0.1109294E+005  0.1043930E+01  0.7957747E-01            NaN
         13   -1    0    0    0    0  0.00000000000E+00  0.00000000000E+00  0.74505805969E-08  0.10566000000E+00  0.10566000000E+00 0. -1.
     999900   -1    0    0    0    0 -0.00000000000E+00 -0.00000000000E+00 -0.74505805969E-08  0.93827000000E+00  0.93827000000E+00 0.  1.
     999902    2    1    2    0    0  0.88568740726E-03 -0.34438894661E-02  0.23054415553E-01  0.10206029579E+01  0.10203363400E+01 0.  0.
     999903    2    3    3    0    0 -0.11071949118E+00  0.64419653187E-01 -0.13601835564E-01  0.13020705884E+00  0.18978166312E-01 0.  0.
         14    1    1    2    0    0 -0.88568740726E-03  0.34438894661E-02 -0.23054415553E-01  0.23327042104E-01  0.00000000000E+00 0.  1.
     999901    1    3    3    0    0  0.11160517859E+00 -0.67863542653E-01  0.36656251117E-01  0.89039589906E+00  0.88000000000E+00 0. -1.
        -11    1    4    4    0    0 -0.77566028989E-01  0.54598410168E-01 -0.11673263195E-01  0.95571969953E-01  0.51100000000E-03 0. -1.
         11    1    4    4    0    0 -0.33153462194E-01  0.98212430193E-02 -0.19285723687E-02  0.34635088888E-01  0.51100000000E-03 0.  1.
</event>
<event>
 8    1  0.1109294E+005  0.1043930E+01  0.7957747E-01            NaN
         13   -1    0    0    0    0  0.00000000000E+00  0.00000000000E+00  0.74505805969E-08  0.10566000000E+00  0.10566000000E+00 0.  1.
     999900   -1    0    0    0    0 -0.00000000000E+00 -0.00000000000E+00 -0.74505805969E-08  0.93827000000E+00  0.93827000000E+00 0. -1.
     999902    2    1    2    0    0  0.20319546667E-01  0.99000087605E-02  0.93492195404E-02  0.10194697863E+01  0.10191763062E+01 0.  0.
     999903    2    3    3    0    0 -0.89163638972E-01 -0.21767538854E-01 -0.85631391856E-01  0.12705132049E+00  0.19629633312E-01 0.  0.
         14    1    1    2    0    0 -0.20319546667E-01 -0.99000087605E-02 -0.93492195404E-02  0.24460213740E-01  0.00000000000E+00 0. -1.
     999901    1    3    3    0    0  0.10948318564E+00  0.31667547615E-01  0.94980611396E-01  0.89241846577E+00  0.88000000000E+00 0.  1.
        -11    1    4    4    0    0 -0.69254565990E-01 -0.18502528395E-01 -0.54931688381E-01  0.90312180667E-01  0.51100000000E-03 0.  1.
         11    1    4    4    0    0 -0.19909072983E-01 -0.32650104589E-02 -0.30699703475E-01  0.36739139821E-01  0.51100000000E-03 0. -1.
</event>
<event>
 8    1  0.1109294E+005  0.1043930E+01  0.7957747E-01            NaN
         13   -1    0    0    0    0  0.00000000000E+00  0.00000000000E+00  0.74505805969E-08  0.10566000000E+00  0.10566000000E+00 0. -1.
     999900   -1    0    0    0    0 -0.00000000000E+00 -0.00000000000E+00 -0.74505805969E-08  0.93827000000E+00  0.93827000000E+00 0.  1.
     999902    2    1    2    0    0 -0.44530257220E-02  0.40413403298E-02 -0.22861900875E-01  0.10202904488E+01  0.10200165545E+01 0.  0.
     999903    2    3    3    0    0  0.10758061006E+00 -0.49847831308E-01 -0.52221013471E-01  0.13106745322E+00  0.19830509234E-01 0.  0.
         14    1    1    2    0    0  0.44530257220E-02 -0.40413403298E-02  0.22861900875E-01  0.23639551209E-01  0.00000000000E+00 0. -1.
     999901    1    3    3    0    0 -0.11203363579E+00  0.53889171638E-01  0.29359112596E-01  0.88922299558E+00  0.88000000000E+00 0.  1.
        -11    1    4    4    0    0  0.39431640555E-01 -0.22943079333E-01 -0.29604585075E-01  0.54386871068E-01  0.51100000000E-03 0. -1.
         11    1    4    4    0    0  0.68148969509E-01 -0.26904751975E-01 -0.22616428397E-01  0.76680582147E-01  0.51100000000E-03 0.  1.
</event>
<event>
 8    1  0.1171614E+005  0.1043930E+01  0.7957747E-01            NaN
         13   -1    0    0    0    0  0.00000000000E+00  0.00000000000E+00  0.74505805969E-08  0.10566000000E+00  0.10566000000E+00 0.  1.
     999900   -1    0    0    0    0 -0.00000000000E+00 -0.00000000000E+00 -0.74505805969E-08  0.93827000000E+00  0.93827000000E+00 0.  1.
     999902    2    1    2    0    0  0.41803186215E-02 -0.18988401541E-01  0.11346047658E-01  0.10214185084E+01  0.10211704079E+01 0.  0.
     999903    2    3    3    0    0  0.84007241241E-01 -0.10185688616E+00 -0.72250438438E-02  0.13373364947E+00  0.20011144483E-01 0.  0.
         14    1    1    2    0    0 -0.41803186215E-02  0.18988401541E-01 -0.11346047658E-01  0.22511491606E-01  0.00000000000E+00 0.  1.
     999901    1    3    3    0    0 -0.79826922620E-01  0.82868484619E-01  0.18571091502E-01  0.88768485892E+00  0.88000000000E+00 0.  1.
        -11    1    4    4    0    0  0.16630012097E-01 -0.33893189700E-01  0.24874853375E-04  0.37756686164E-01  0.51100000000E-03 0. -1.
         11    1    4    4    0    0  0.67377229145E-01 -0.67963696461E-01 -0.72499186972E-02  0.95976963309E-01  0.51100000000E-03 0.  1.
</event>
<event>
 8    1  0.1109294E+005  0.1043930E+01  0.7957747E-01            NaN
         13   -1    0    0    0    0  0.00000000000E+00  0.00000000000E+00  0.74505805969E-08  0.10566000000E+00  0.10566000000E+00 0. -1.
     999900   -1    0    0    0    0 -0.00000000000E+00 -0.00000000000E+00 -0.74505805969E-08  0.93827000000E+00  0.93827000000E+00 0.  1.
     999902    2    1    2    0    0  0.95450066591E-02  0.21713854503E-01 -0.23859266725E-02  0.10200911394E+01  0.10198125521E+01 0.  0.
     999903    2    3    3    0    0  0.60542223217E-01  0.97139275027E-01 -0.65263335192E-01  0.13316201106E+00  0.19272226780E-01 0.  0.
         14    1    1    2    0    0 -0.95450066591E-02 -0.21713854503E-01  0.23859266725E-02  0.23838860619E-01  0.00000000000E+00 0.  1.
     999901    1    3    3    0    0 -0.50997216558E-01 -0.75425420524E-01  0.62877408519E-01  0.88692912832E+00  0.88000000000E+00 0.  1.
        -11    1    4    4    0    0  0.27482116232E-01  0.60770541378E-01 -0.41630565017E-01  0.78623727186E-01  0.51100000000E-03 0.  1.
         11    1    4    4    0    0  0.33060106985E-01  0.36368733649E-01 -0.23632770175E-01  0.54538283877E-01  0.51100000000E-03 0. -1.
</event>
<event>
 8    1  0.1109294E+005  0.1043930E+01  0.7957747E-01            NaN
         13   -1    0    0    0    0  0.00000000000E+00  0.00000000000E+00  0.74505805969E-08  0.10566000000E+00  0.10566000000E+00 0. -1.
     999900   -1    0    0    0    0 -0.00000000000E+00 -0.00000000000E+00 -0.74505805969E-08  0.93827000000E+00  0.93827000000E+00 0.  1.
     999902    2    1    2    0    0  0.16657236842E-02  0.16796031321E-01 -0.14632314825E-01  0.10215920068E+01  0.10213477578E+01 0.  0.
     999903    2    3    3    0    0 -0.12208400855E+00 -0.35056888321E-01 -0.27946629344E-01  0.13132238893E+00  0.18195196637E-01 0.  0.
         14    1    1    2    0    0 -0.16657236842E-02 -0.16796031321E-01  0.14632314825E-01  0.22337993211E-01  0.00000000000E+00 0. -1.
     999901    1    3    3    0    0  0.12374973224E+00  0.51852919642E-01  0.13314314518E-01  0.89026961785E+00  0.88000000000E+00 0.  1.
        -11    1    4    4    0    0 -0.36287463784E-01 -0.18657351681E-01 -0.11935456373E-01  0.42515797528E-01  0.51100000000E-03 0. -1.
         11    1    4    4    0    0 -0.85796544769E-01 -0.16399536640E-01 -0.16011172970E-01  0.88806591407E-01  0.51100000000E-03 0.  1.
</event>
<event>
 8    1  0.1109294E+005  0.1043930E+01  0.7957747E-01            NaN
         13   -1    0    0    0    0  0.00000000000E+00  0.00000000000E+00  0.74505805969E-08  0.10566000000E+00  0.10566000000E+00 0. -1.
     999900   -1    0    0    0    0 -0.00000000000E+00 -0.00000000000E+00 -0.74505805969E-08  0.93827000000E+00  0.93827000000E+00 0.  1.
     999902    2    1    2    0    0  0.77585627727E-02 -0.17772537796E-01 -0.13173766354E-01  0.10204863118E+01  0.10202169897E+01 0.  0.
     999903    2    3    3    0    0 -0.69839228889E-01 -0.57914141912E-01 -0.94304035185E-01  0.13244639932E+00  0.20426255547E-01 0.  0.
         14    1    1    2    0    0 -0.77585627727E-02  0.17772537796E-01  0.13173766354E-01  0.23443688190E-01  0.00000000000E+00 0. -1.
     999901    1    3    3    0    0  0.77597791662E-01  0.40141604116E-01  0.81130268831E-01  0.88803991249E+00  0.88000000000E+00 0.  1.
        -11    1    4    4    0    0 -0.25295582779E-01 -0.25831970782E-01 -0.24657101023E-01  0.43765179932E-01  0.51100000000E-03 0.  1.
         11    1    4    4    0    0 -0.44543646111E-01 -0.32082171130E-01 -0.69646934162E-01  0.88681219389E-01  0.51100000000E-03 0. -1.
</event>
<event>
 8    1  0.1109294E+005  0.1043930E+01  0.7957747E-01            NaN
         13   -1    0    0    0    0  0.00000000000E+00  0.00000000000E+00  0.74505805969E-08  0.10566000000E+00  0.10566000000E+00 0. -1.
     999900   -1    0    0    0    0 -0.00000000000E+00 -0.00000000000E+00 -0.74505805969E-08  0.93827000000E+00  0.93827000000E+00 0. -1.
     999902    2    1    2    0    0  0.27147526734E-02 -0.20254129902E-01 -0.11975738577E-01  0.10202441820E+01  0.10199692019E+01 0.  0.
     999903    2    3    3    0    0  0.92002252946E-01  0.19166361828E-01  0.86360312615E-01  0.12940401011E+00  0.21343155003E-01 0.  0.
         14    1    1    2    0    0 -0.27147526734E-02  0.20254129902E-01  0.11975738577E-01  0.23685818006E-01  0.00000000000E+00 0. -1.
     999901    1    3    3    0    0 -0.89287500273E-01 -0.39420491730E-01 -0.98336051192E-01  0.89084017188E+00  0.88000000000E+00 0. -1.
        -11    1    4    4    0    0  0.27343253916E-01  0.81891630047E-02  0.14175475420E-01  0.31873518002E-01  0.51100000000E-03 0. -1.
         11    1    4    4    0    0  0.64658999030E-01  0.10977198823E-01  0.72184837194E-01  0.97530492111E-01  0.51100000000E-03 0.  1.
</event>
<event>
 8    1  0.1109294E+005  0.1043930E+01  0.7957747E-01            NaN
         13   -1    0    0    0    0  0.00000000000E+00  0.00000000000E+00  0.74505805969E-08  0.10566000000E+00  0.10566000000E+00 0. -1.
     999900   -1    0    0    0    0 -0.00000000000E+00 -0.00000000000E+00 -0.74505805969E-08  0.93827000000E+00  0.93827000000E+00 0. -1.
     999902    2    1    2    0    0  0.19825544655E-01  0.13800622194E-01 -0.41303333466E-02  0.10194234897E+01  0.10191288840E+01 0.  0.
     999903    2    3    3    0    0  0.87286316145E-01  0.97532307241E-01  0.11229106719E-01  0.13274549675E+00  0.19074121943E-01 0.  0.
         14    1    1    2    0    0 -0.19825544655E-01 -0.13800622194E-01  0.41303333466E-02  0.24506510306E-01  0.00000000000E+00 0. -1.
     999901    1    3    3    0    0 -0.67460771491E-01 -0.83731685047E-01 -0.15359440065E-01  0.88667799294E+00  0.88000000000E+00 0. -1.
        -11    1    4    4    0    0  0.31219950514E-01  0.48996077342E-01  0.40550776312E-02  0.58240927882E-01  0.51100000000E-03 0.  1.
         11    1    4    4    0    0  0.56066365631E-01  0.48536229900E-01  0.71740290874E-02  0.74504568869E-01  0.51100000000E-03 0. -1.
</event>
<event>
 8    1  0.1109294E+005  0.1043930E+01  0.7957747E-01            NaN
         13   -1    0    0    0    0  0.00000000000E+00  0.00000000000E+00  0.74505805969E-08  0.10566000000E+00  0.10566000000E+00 0. -1.
     999900   -1    0    0    0    0 -0.00000000000E+00 -0.00000000000E+00 -0.74505805969E-08  0.93827000000E+00  0.93827000000E+00 0.  1.
     999902    2    1    2    0    0  0.19682204338E-02 -0.18801821033E-01 -0.14225178245E-01  0.10202712160E+01  0.10199968706E+01 0.  0.
     999903    2    3    3    0    0  0.98417381514E-01  0.53788164594E-01  0.58334867207E-01  0.12907162728E+00  0.26026536482E-01 0.  0.
         14    1    1    2    0    0 -0.19682204338E-02  0.18801821033E-01  0.14225178245E-01  0.23658784033E-01  0.00000000000E+00 0. -1.
     999901    1    3    3    0    0 -0.96449161080E-01 -0.72589985627E-01 -0.72560045452E-01  0.89119958869E+00  0.88000000000E+00 0. -1.
        -11    1    4    4    0    0  0.13251680134E-01  0.18921152458E-01  0.11327362178E-01  0.25733000051E-01  0.51100000000E-03 0.  1.
         11    1    4    4    0    0  0.85165701380E-01  0.34867012137E-01  0.47007505029E-01  0.10333862723E+00  0.51100000000E-03 0. -1.
</event>
<event>
 8    1  0.1109294E+005  0.1043930E+01  0.7957747E-01            NaN
         13   -1    0    0    0    0  0.00000000000E+00  0.00000000000E+00  0.74505805969E-08  0.10566000000E+00  0.10566000000E+00 0. -1.
     999900   -1    0    0    0    0 -0.00000000000E+00 -0.00000000000E+00 -0.74505805969E-08  0.93827000000E+00  0.93827000000E+00 0. -1.
     999902    2    1    2    0    0 -0.18190360101E-01 -0.12313863848E-01  0.75712701638E-02  0.10206954444E+01  0.10204309607E+01 0.  0.
     999903    2    3    3    0    0 -0.18921375444E-01 -0.18699585828E-01  0.12808311936E+00  0.13245875428E+00  0.20792863225E-01 0.  0.
         14    1    1    2    0    0  0.18190360101E-01  0.12313863848E-01 -0.75712701638E-02  0.23234555631E-01  0.00000000000E+00 0.  1.
     999901    1    3    3    0    0  0.73101534219E-03  0.63857219796E-02 -0.12051184920E+00  0.88823669009E+00  0.88000000000E+00 0. -1.
        -11    1    4    4    0    0 -0.82295386778E-02 -0.20161557468E-01  0.10054174871E+00  0.10287428280E+00  0.51100000000E-03 0. -1.
         11    1    4    4    0    0 -0.10691836766E-01  0.14619716406E-02  0.27541370646E-01  0.29584471476E-01  0.51100000000E-03 0.  1.
</event>
<event>
 8    1  0.1109294E+005  0.1043930E+01  0.7957747E-01            NaN
         13   -1    0    0    0    0  0.00000000000E+00  0.00000000000E+00  0.74505805969E-08  0.10566000000E+00  0.10566000000E+00 0.  1.
     999900   -1    0    0    0    0 -0.00000000000E+00 -0.00000000000E+00 -0.74505805969E-08  0.93827000000E+00  0.93827000000E+00 0.  1.
     999902    2    1    2    0    0  0.49001637407E-02 -0.14545641545E-01 -0.19101259955E-01  0.10194260121E+01  0.10191314678E+01 0.  0.
     999903    2    3    3    0    0  0.81761314297E-01  0.49267977370E-01  0.78909533683E-01  0.12836713069E+00  0.33751438853E-01 0.  0.
         14    1    1    2    0    0 -0.49001637407E-02  0.14545641545E-01  0.19101259955E-01  0.24503987931E-01  0.00000000000E+00 0.  1.
     999901    1    3    3    0    0 -0.76861150556E-01 -0.63813618915E-01 -0.98010793638E-01  0.89105888138E+00  0.88000000000E+00 0.  1.
        -11    1    4    4    0    0  0.60321799122E-02  0.11375143275E-01  0.24587373810E-01  0.27759343489E-01  0.51100000000E-03 0. -1.
         11    1    4    4    0    0  0.75729134385E-01  0.37892834095E-01  0.54322159872E-01  0.10060778720E+00  0.51100000000E-03 0.  1.
</event>
<event>
 8    1  0.1109294E+005  0.1043930E+01  0.7957747E-01            NaN
         13   -1    0    0    0    0  0.00000000000E+00  0.00000000000E+00  0.74505805969E-08  0.10566000000E+00  0.10566000000E+00 0. -1.
     999900   -1    0    0    0    0 -0.00000000000E+00 -0.00000000000E+00 -0.74505805969E-08  0.93827000000E+00  0.93827000000E+00 0.  1.
     999902    2    1    2    0    0  0.92112096272E-02  0.97580501226E-02  0.18079837261E-01  0.10214145289E+01  0.10211663397E+01 0.  0.
     999903    2    3    3    0    0  0.47002545613E-02 -0.48581352707E-01  0.12248720683E+00  0.13331277036E+00  0.19670757004E-01 0.  0.
         14    1    1    2    0    0 -0.92112096272E-02 -0.97580501226E-02 -0.18079837261E-01  0.22515471134E-01  0.00000000000E+00 0.  1.
     999901    1    3    3    0    0  0.45109550659E-02  0.58339402829E-01 -0.10440736957E+00  0.88810175850E+00  0.88000000000E+00 0.  1.
        -11    1    4    4    0    0  0.78999543660E-02 -0.40530150387E-01  0.80909420486E-01  0.90838856299E-01  0.51100000000E-03 0.  1.
         11    1    4    4    0    0 -0.31996998047E-02 -0.80512023196E-02  0.41577786343E-01  0.42473914063E-01  0.51100000000E-03 0. -1.
</event>
<event>
 8    1  0.1109294E+005  0.1043930E+01  0.7957747E-01            NaN
         13   -1    0    0    0    0  0.00000000000E+00  0.00000000000E+00  0.74505805969E-08  0.10566000000E+00  0.10566000000E+00 0. -1.
     999900   -1    0    0    0    0 -0.00000000000E+00 -0.00000000000E+00 -0.74505805969E-08  0.93827000000E+00  0.93827000000E+00 0. -1.
     999902    2    1    2    0    0  0.27093779559E-02 -0.19936101167E-01 -0.11461555028E-02  0.10237780142E+01  0.10235796598E+01 0.  0.
     999903    2    3    3    0    0  0.14713779596E-01  0.11567590469E+00 -0.57829756920E-01  0.13150689372E+00  0.18771576259E-01 0.  0.
         14    1    1    2    0    0 -0.27093779559E-02  0.19936101167E-01  0.11461555028E-02  0.20151985785E-01  0.00000000000E+00 0. -1.
     999901    1    3    3    0    0 -0.12004401640E-01 -0.13561200586E+00  0.56683601418E-01  0.89227112049E+00  0.88000000000E+00 0.  1.
        -11    1    4    4    0    0  0.73274989564E-02  0.45521174673E-01 -0.33072823004E-01  0.56744535658E-01  0.51100000000E-03 0.  1.
         11    1    4    4    0    0  0.73862806399E-02  0.70154730019E-01 -0.24756933916E-01  0.74762358066E-01  0.51100000000E-03 0. -1.
</event>
<event>
 8    1  0.1109294E+005  0.1043930E+01  0.7957747E-01            NaN
         13   -1    0    0    0    0  0.00000000000E+00  0.00000000000E+00  0.74505805969E-08  0.10566000000E+00  0.10566000000E+00 0.  1.
     999900   -1    0    0    0    0 -0.00000000000E+00 -0.00000000000E+00 -0.74505805969E-08  0.93827000000E+00  0.93827000000E+00 0.  1.
     999902    2    1    2    0    0 -0.18588202912E-01  0.82447697538E-02 -0.11370926037E-01  0.10206320285E+01  0.10203660824E+01 0.  0.
     999903    2    3    3    0    0  0.11028245558E+00 -0.52082648888E-01  0.33249095125E-01  0.12808623679E+00  0.20633938180E-01 0.  0.
         14    1    1    2    0    0  0.18588202912E-01 -0.82447697538E-02  0.11370926037E-01  0.23297971472E-01  0.00000000000E+00 0. -1.
     999901    1    3    3    0    0 -0.12887065849E+00  0.60327418641E-01 -0.44620021162E-01  0.89254579174E+00  0.88000000000E+00 0. -1.
        -11    1    4    4    0    0  0.44655447704E-01 -0.16680728362E-01  0.22612047805E-01  0.52762880278E-01  0.51100000000E-03 0.  1.
         11    1    4    4    0    0  0.65627007875E-01 -0.35401920526E-01  0.10637047320E-01  0.75323356512E-01  0.51100000000E-03 0. -1.
</event>
<event>
 8    1  0.1109294E+005  0.1043930E+01  0.7957747E-01            NaN
         13   -1    0    0    0    0  0.00000000000E+00  0.00000000000E+00  0.74505805969E-08  0.10566000000E+00  0.10566000000E+00 0.  1.
     999900   -1    0    0    0    0 -0.00000000000E+00 -0.00000000000E+00 -0.74505805969E-08  0.93827000000E+00  0.93827000000E+00 0. -1.
     999902    2    1    2    0    0 -0.25737473171E-02  0.62054733540E-02  0.22922860972E-01  0.10200429820E+01  0.10197632546E+01 0.  0.
     999903    2    3    3    0    0  0.10787616358E+00  0.14485199952E-01  0.71581523391E-01  0.13176633469E+00  0.19782941642E-01 0.  0.
         14    1    1    2    0    0  0.25737473171E-02 -0.62054733540E-02 -0.22922860972E-01  0.23887018021E-01  0.00000000000E+00 0. -1.
     999901    1    3    3    0    0 -0.11044991090E+00 -0.82797265983E-02 -0.48658662419E-01  0.88827664729E+00  0.88000000000E+00 0. -1.
        -11    1    4    4    0    0  0.56387087494E-01  0.11403590535E-01  0.48531312239E-01  0.75266824709E-01  0.51100000000E-03 0.  1.
         11    1    4    4    0    0  0.51489076088E-01  0.30816094170E-02  0.23050211152E-01  0.56499509981E-01  0.51100000000E-03 0. -1.
</event>
<event>
 8    1  0.1109294E+005  0.1043930E+01  0.7957747E-01            NaN
         13   -1    0    0    0    0  0.00000000000E+00  0.00000000000E+00  0.74505805969E-08  0.10566000000E+00  0.10566000000E+00 0. -1.
     999900   -1    0    0    0    0 -0.00000000000E+00 -0.00000000000E+00 -0.74505805969E-08  0.93827000000E+00  0.93827000000E+00 0.  1.
     999902    2    1    2    0    0  0.64627163687E-02  0.74045816929E-02  0.21311717107E-01  0.10204612161E+01  0.10201913103E+01 0.  0.
     999903    2    3    3    0    0 -0.18426627469E-01 -0.10549007392E+00 -0.67999469661E-01  0.12841795996E+00  0.19988703571E-01 0.  0.
         14    1    1    2    0    0 -0.64627163687E-02 -0.74045816929E-02 -0.21311717107E-01  0.23468783926E-01  0.00000000000E+00 0.  1.
     999901    1    3    3    0    0  0.24889343838E-01  0.11289465561E+00  0.89311186769E-01  0.89204325612E+00  0.88000000000E+00 0.  1.
        -11    1    4    4    0    0 -0.14085828185E-01 -0.64619681872E-01 -0.30713225966E-01  0.72922405412E-01  0.51100000000E-03 0.  1.
         11    1    4    4    0    0 -0.43407992841E-02 -0.40870392045E-01 -0.37286243695E-01  0.55495554544E-01  0.51100000000E-03 0. -1.
</event>
<event>
 8    1  0.1109294E+005  0.1043930E+01  0.7957747E-01            NaN
         13   -1    0    0    0    0  0.00000000000E+00  0.00000000000E+00  0.74505805969E-08  0.10566000000E+00  0.10566000000E+00 0.  1.
     999900   -1    0    0    0    0 -0.00000000000E+00 -0.00000000000E+00 -0.74505805969E-08  0.93827000000E+00  0.93827000000E+00 0. -1.
     999902    2    1    2    0    0 -0.26998584164E-02 -0.20323951816E-01  0.10301793122E-01  0.10209848656E+01  0.10207270039E+01 0.  0.
     999903    2    3    3    0    0  0.95336050501E-02 -0.75071963294E-02 -0.12791591196E+00  0.13002018565E+00  0.19887697728E-01 0.  0.
         14    1    1    2    0    0  0.26998584164E-02  0.20323951816E-01 -0.10301793122E-01  0.22945134439E-01  0.00000000000E+00 0. -1.
     999901    1    3    3    0    0 -0.12233463467E-01 -0.12816755487E-01  0.13821770509E+00  0.89096467991E+00  0.88000000000E+00 0.  1.
        -11    1    4    4    0    0 -0.50666974041E-02  0.17646206031E-02 -0.44748109190E-01  0.45071495488E-01  0.51100000000E-03 0. -1.
         11    1    4    4    0    0  0.14600302454E-01 -0.92718169324E-02 -0.83167802774E-01  0.84948690162E-01  0.51100000000E-03 0.  1.
</event>
<event>
 8    1  0.1109294E+005  0.1043930E+01  0.7957747E-01            NaN
         13   -1    0    0    0    0  0.00000000000E+00  0.00000000000E+00  0.74505805969E-08  0.10566000000E+00  0.10566000000E+00 0. -1.
     999900   -1    0    0    0    0 -0.00000000000E+00 -0.00000000000E+00 -0.74505805969E-08  0.93827000000E+00  0.93827000000E+00 0. -1.
     999902    2    1    2    0    0 -0.12773384196E-01 -0.19874476343E-01  0.77493308502E-02  0.10190662456E+01  0.10187628805E+01 0.  0.
     999903    2    3    3    0    0  0.81420648985E-01  0.61936066084E-02  0.97530072299E-01  0.12911532428E+00  0.22157822959E-01 0.  0.
         14    1    1    2    0    0  0.12773384196E-01  0.19874476343E-01 -0.77493308502E-02  0.24863754389E-01  0.00000000000E+00 0. -1.
     999901    1    3    3    0    0 -0.94194033181E-01 -0.26068082951E-01 -0.89780741449E-01  0.88995092133E+00  0.88000000000E+00 0. -1.
        -11    1    4    4    0    0  0.42771804887E-01  0.78411388096E-02  0.36103859059E-01  0.56521327931E-01  0.51100000000E-03 0. -1.
         11    1    4    4    0    0  0.38648844098E-01 -0.16475322012E-02  0.61426213240E-01  0.72593996353E-01  0.51100000000E-03 0.  1.
</event>
<event>
 8    1  0.1109294E+005  0.1043930E+01  0.7957747E-01            NaN
         13   -1    0    0    0    0  0.00000000000E+00  0.00000000000E+00  0.74505805969E-08  0.10566000000E+00  0.10566000000E+00 0.  1.
     999900   -1    0    0    0    0 -0.00000000000E+00 -0.00000000000E+00 -0.74505805969E-08  0.93827000000E+00  0.93827000000E+00 0. -1.
     999902    2    1    2    0    0 -0.45021081782E-02 -0.19887257741E-01  0.11316881033E-01  0.10206095413E+01  0.10203430756E+01 0.  0.
     999903    2    3    3    0    0 -0.41725910170E-01 -0.10982893222E+00 -0.58092637645E-01  0.13252576284E+00  0.19618290868E-01 0.  0.
         14    1    1    2    0    0  0.45021081782E-02  0.19887257741E-01 -0.11316881033E-01  0.23320458718E-01  0.00000000000E+00 0. -1.
     999901    1    3    3    0    0  0.37223801991E-01  0.89941674479E-01  0.69409518677E-01  0.88808377844E+00  0.88000000000E+00 0.  1.
        -11    1    4    4    0    0 -0.28275420767E-02 -0.24424517726E-01 -0.17984801218E-01  0.30467462254E-01  0.51100000000E-03 0.  1.
         11    1    4    4    0    0 -0.38898368093E-01 -0.85404414494E-01 -0.40107836427E-01  0.10205830059E+00  0.51100000000E-03 0. -1.
</event>
<event>
 8    1  0.1109294E+005  0.1043930E+01  0.7957747E-01            NaN
         13   -1    0    0    0    0  0.00000000000E+00  0.00000000000E+00  0.74505805969E-08  0.10566000000E+00  0.10566000000E+00 0.  1.
     999900   -1    0    0    0    0 -0.00000000000E+00 -0.00000000000E+00 -0.74505805969E-08  0.93827000000E+00  0.93827000000E+00 0. -1.
     999902    2    1    2    0    0  0.19846765179E-01 -0.54102960289E-02 -0.11249703812E-01  0.10204838654E+01  0.10202144864E+01 0.  0.
     999903    2    3    3    0    0 -0.63315566398E-01 -0.10555346622E+00  0.34575511374E-01  0.12972880465E+00  0.21993216903E-01 0.  0.
         14    1    1    2    0    0 -0.19846765179E-01  0.54102960289E-02  0.11249703812E-01  0.23446134587E-01  0.00000000000E+00 0. -1.
     999901    1    3    3    0    0  0.83162331577E-01  0.10014317019E+00 -0.45825215186E-01  0.89075506076E+00  0.88000000000E+00 0. -1.
        -11    1    4    4    0    0 -0.28635989423E-01 -0.32300380161E-01  0.50255857838E-02  0.43460925924E-01  0.51100000000E-03 0.  1.
         11    1    4    4    0    0 -0.34679576975E-01 -0.73253086060E-01  0.29549925590E-01  0.86267878725E-01  0.51100000000E-03 0. -1.
</event>
<event>
 8    1  0.1109294E+005  0.1043930E+01  0.7957747E-01            NaN
         13   -1    0    0    0    0  0.00000000000E+00  0.00000000000E+00  0.74505805969E-08  0.10566000000E+00  0.10566000000E+00 0.  1.
     999900   -1    0    0    0    0 -0.00000000000E+00 -0.00000000000E+00 -0.74505805969E-08  0.93827000000E+00  0.93827000000E+00 0.  1.
     999902    2    1    2    0    0 -0.11471938431E-01 -0.11622703247E-01  0.17203246448E-01  0.10202098758E+01  0.10199340893E+01 0.  0.
     999903    2    3    3    0    0 -0.11614877472E+00  0.40707549276E-01 -0.38542059175E-01  0.13071381936E+00  0.21283087359E-01 0.  0.
         14    1    1    2    0    0  0.11471938431E-01  0.11622703247E-01 -0.17203246448E-01  0.23720124167E-01  0.00000000000E+00 0. -1.
     999901    1    3    3    0    0  0.10467683629E+00 -0.52330252523E-01  0.55745305623E-01  0.88949605648E+00  0.88000000000E+00 0. -1.
        -11    1    4    4    0    0 -0.10532383845E+00  0.42087104526E-01 -0.31497006990E-01  0.11771473095E+00  0.51100000000E-03 0.  1.
         11    1    4    4    0    0 -0.10824936276E-01 -0.13795552503E-02 -0.70450521850E-02  0.12999088405E-01  0.51100000000E-03 0. -1.
</event>
<event>
 8    1  0.1109294E+005  0.1043930E+01  0.7957747E-01            NaN
         13   -1    0    0    0    0  0.00000000000E+00  0.00000000000E+00  0.74505805969E-08  0.10566000000E+00  0.10566000000E+00 0.  1.
     999900   -1    0    0    0    0 -0.00000000000E+00 -0.00000000000E+00 -0.74505805969E-08  0.93827000000E+00  0.93827000000E+00 0. -1.
     999902    2    1    2    0    0 -0.17181889873E-01 -0.22001409714E-02  0.17222859053E-01  0.10195028669E+01  0.10192101896E+01 0.  0.
     999903    2    3    3    0    0  0.12437520602E+00  0.10926731090E-01  0.16714645731E-01  0.12809331763E+00  0.23236465190E-01 0.  0.
         14    1    1    2    0    0  0.17181889873E-01  0.22001409714E-02 -0.17222859053E-01  0.24427133149E-01  0.00000000000E+00 0.  1.
     999901    1    3    3    0    0 -0.14155709589E+00 -0.13126872061E-01  0.50821332192E-03  0.89140954922E+00  0.88000000000E+00 0.  1.
        -11    1    4    4    0    0  0.10507721513E+00  0.63736923546E-02  0.57465703552E-02  0.10542831349E+00  0.51100000000E-03 0.  1.
         11    1    4    4    0    0  0.19297990886E-01  0.45530387354E-02  0.10968075376E-01  0.22665004135E-01  0.51100000000E-03 0. -1.
</event>
<event>
 8    1  0.1109294E+005  0.1043930E+01  0.7957747E-01            NaN
         13   -1    0    0    0    0  0.00000000000E+00  0.00000000000E+00  0.74505805969E-08  0.10566000000E+00  0.10566000000E+00 0. -1.
     999900   -1    0    0    0    0 -0.00000000000E+00 -0.00000000000E+00 -0.74505805969E-08  0.93827000000E+00  0.93827000000E+00 0.  1.
     999902    2    1    2    0    0  0.62926375690E-02 -0.20259300377E-01 -0.12220727120E-01  0.10194477062E+01  0.10191536896E+01 0.  0.
     999903    2    3    3    0    0  0.12099572555E+00  0.14115520180E-01  0.40067774776E-01  0.12980029618E+00  0.20086731996E-01 0.  0.
         14    1    1    2    0    0 -0.62926375690E-02  0.20259300377E-01  0.12220727120E-01  0.24482293820E-01  0.00000000000E+00 0. -1.
     999901    1    3    3    0    0 -0.11470308798E+00 -0.34374820557E-01 -0.52288501895E-01  0.88964741000E+00  0.88000000000E+00 0. -1.
        -11    1    4    4    0    0  0.28150209314E-01 -0.45774705748E-02  0.59945753113E-02  0.29147616977E-01  0.51100000000E-03 0. -1.
         11    1    4    4    0    0  0.92845516239E-01  0.18692990754E-01  0.34073199464E-01  0.10065267921E+00  0.51100000000E-03 0.  1.
</event>
<event>
 8    1  0.1109294E+005  0.1043930E+01  0.7957747E-01            NaN
         13   -1    0    0    0    0  0.00000000000E+00  0.00000000000E+00  0.74505805969E-08  0.10566000000E+00  0.10566000000E+00 0.  1.
     999900   -1    0    0    0    0 -0.00000000000E+00 -0.00000000000E+00 -0.74505805969E-08  0.93827000000E+00  0.93827000000E+00 0. -1.
     999902    2    1    2    0    0 -0.18432332677E-02  0.13051331891E-01 -0.21930939546E-01  0.10183428766E+01  0.10180213718E+01 0.  0.
     999903    2    3    3    0    0  0.15214701222E-01 -0.12130127992E+00  0.26803805823E-01  0.12664972715E+00  0.19396436158E-01 0.  0.
         14    1    1    2    0    0  0.18432332677E-02 -0.13051331891E-01  0.21930939546E-01  0.25587123371E-01  0.00000000000E+00 0.  1.
     999901    1    3    3    0    0 -0.17057934489E-01  0.13435261181E+00 -0.48734745369E-01  0.89169314948E+00  0.88000000000E+00 0. -1.
        -11    1    4    4    0    0  0.17176803215E-01 -0.85747541998E-01  0.12802539999E-01  0.88384668800E-01  0.51100000000E-03 0.  1.
         11    1    4    4    0    0 -0.19621019933E-02 -0.35553737923E-01  0.14001265824E-01  0.38265058346E-01  0.51100000000E-03 0. -1.
</event>
<event>
 8    1  0.1109294E+005  0.1043930E+01  0.7957747E-01            NaN
         13   -1    0    0    0    0  0.00000000000E+00  0.00000000000E+00  0.74505805969E-08  0.10566000000E+00  0.10566000000E+00 0.  1.
     999900   -1    0    0    0    0 -0.00000000000E+00 -0.00000000000E+00 -0.74505805969E-08  0.93827000000E+00  0.93827000000E+00 0. -1.
     999902    2    1    2    0    0  0.23399704386E-01  0.24464854808E-02 -0.28917356077E-03  0.10204009737E+01  0.10201296643E+01 0.  0.
     999903    2    3    3    0    0 -0.11292993888E+00  0.57090471567E-01 -0.25578564138E-02  0.12822560768E+00  0.20561390894E-01 0.  0.
         14    1    1    2    0    0 -0.23399704386E-01 -0.24464854808E-02  0.28917356077E-03  0.23529026284E-01  0.00000000000E+00 0.  1.
     999901    1    3    3    0    0  0.13632964326E+00 -0.54643986086E-01  0.22686828530E-02  0.89217536604E+00  0.88000000000E+00 0.  1.
        -11    1    4    4    0    0 -0.62671711815E-01  0.37503057757E-01  0.72572079498E-02  0.73397213783E-01  0.51100000000E-03 0.  1.
         11    1    4    4    0    0 -0.50258227063E-01  0.19587413810E-01 -0.98150643636E-02  0.54828393892E-01  0.51100000000E-03 0. -1.
</event>
<event>
 8    1  0.1109294E+005  0.1043930E+01  0.7957747E-01            NaN
         13   -1    0    0    0    0  0.00000000000E+00  0.00000000000E+00  0.74505805969E-08  0.10566000000E+00  0.10566000000E+00 0.  1.
     999900   -1    0    0    0    0 -0.00000000000E+00 -0.00000000000E+00 -0.74505805969E-08  0.93827000000E+00  0.93827000000E+00 0.  1.
     999902    2    1    2    0    0  0.20047498218E-01  0.13332107006E-01  0.67084353708E-02  0.10189369936E+01  0.10186304269E+01 0.  0.
     999903    2    3    3    0    0  0.96596799888E-01 -0.73533062499E-01 -0.41919668827E-01  0.13002189883E+00  0.20257899969E-01 0.  0.
         14    1    1    2    0    0 -0.20047498218E-01 -0.13332107006E-01 -0.67084353708E-02  0.24993006365E-01  0.00000000000E+00 0. -1.
     999901    1    3    3    0    0 -0.76549301669E-01  0.86865169504E-01  0.48628104198E-01  0.88891509481E+00  0.88000000000E+00 0. -1.
        -11    1    4    4    0    0  0.11798266535E-01 -0.11226850816E-01 -0.13129297049E-01  0.20925602368E-01  0.51100000000E-03 0.  1.
         11    1    4    4    0    0  0.84798533353E-01 -0.62306211682E-01 -0.28790371778E-01  0.10909629646E+00  0.51100000000E-03 0. -1.
</event>
<event>
 8    1  0.1109294E+005  0.1043930E+01  0.7957747E-01            NaN
         13   -1    0    0    0    0  0.00000000000E+00  0.00000000000E+00  0.74505805969E-08  0.10566000000E+00  0.10566000000E+00 0.  1.
     999900   -1    0    0    0    0 -0.00000000000E+00 -0.00000000000E+00 -0.74505805969E-08  0.93827000000E+00  0.93827000000E+00 0. -1.
     999902    2    1    2    0    0 -0.23955561159E-01  0.38954146603E-02 -0.19688131463E-02  0.10195800638E+01  0.10192892559E+01 0.  0.
     999903    2    3    3    0    0 -0.77237633027E-01  0.94028309924E-01 -0.48332629081E-01  0.13216104138E+00  0.17986739629E-01 0.  0.
         14    1    1    2    0    0  0.23955561159E-01 -0.38954146603E-02  0.19688131463E-02  0.24349936160E-01  0.00000000000E+00 0. -1.
     999901    1    3    3    0    0  0.53282071868E-01 -0.90132895264E-01  0.46363815934E-01  0.88741902246E+00  0.88000000000E+00 0.  1.
        -11    1    4    4    0    0 -0.63470700245E-01  0.77500094962E-01 -0.32048234852E-01  0.10517673216E+00  0.51100000000E-03 0. -1.
         11    1    4    4    0    0 -0.13766932782E-01  0.16528214963E-01 -0.16284394228E-01  0.26984309227E-01  0.51100000000E-03 0.  1.
</event>
<event>
 8    1  0.1109294E+005  0.1043930E+01  0.7957747E-01            NaN
         13   -1    0    0    0    0  0.00000000000E+00  0.00000000000E+00  0.74505805969E-08  0.10566000000E+00  0.10566000000E+00 0.  1.
     999900   -1    0    0    0    0 -0.00000000000E+00 -0.00000000000E+00 -0.74505805969E-08  0.93827000000E+00  0.93827000000E+00 0.  1.
     999902    2    1    2    0    0 -0.10463034947E-01  0.17204230292E-01 -0.12581914990E-01  0.10201862592E+01  0.10199099168E+01 0.  0.
     999903    2    3    3    0    0 -0.12572668966E+00  0.13473483603E-01 -0.33839906391E-01  0.13240727168E+00  0.19945201818E-01 0.  0.
         14    1    1    2    0    0  0.10463034947E-01 -0.17204230292E-01  0.12581914990E-01  0.23743740755E-01  0.00000000000E+00 0.  1.
     999901    1    3    3    0    0  0.11526365471E+00  0.37307466888E-02  0.21257991401E-01  0.88777898757E+00  0.88000000000E+00 0. -1.
        -11    1    4    4    0    0 -0.48989910016E-01  0.43225425992E-02 -0.23254960467E-01  0.54403584121E-01  0.51100000000E-03 0.  1.
         11    1    4    4    0    0 -0.76736779643E-01  0.91509410037E-02 -0.10584945924E-01  0.78003687557E-01  0.51100000000E-03 0. -1.
</event>
<event>
 8    1  0.1109294E+005  0.1043930E+01  0.7957747E-01            NaN
         13   -1    0    0    0    0  0.00000000000E+00  0.00000000000E+00  0.74505805969E-08  0.10566000000E+00  0.10566000000E+00 0. -1.
     999900   -1    0    0    0    0 -0.00000000000E+00 -0.00000000000E+00 -0.74505805969E-08  0.93827000000E+00  0.93827000000E+00 0.  1.
     999902    2    1    2    0    0 -0.19842571061E-02 -0.25340389561E-02 -0.23086034034E-01  0.10206206972E+01  0.10203544894E+01 0.  0.
     999903    2    3    3    0    0  0.14935543340E-01  0.44711692382E-01 -0.12327339946E+00  0.13351532185E+00  0.20194164103E-01 0.  0.
         14    1    1    2    0    0  0.19842571061E-02  0.25340389561E-02  0.23086034034E-01  0.23309302802E-01  0.00000000000E+00 0. -1.
     999901    1    3    3    0    0 -0.16919800446E-01 -0.47245731338E-01  0.10018736543E+00  0.88710537535E+00  0.88000000000E+00 0. -1.
        -11    1    4    4    0    0  0.18757605025E-02  0.34406204805E-01 -0.88195335920E-01  0.94688878997E-01  0.51100000000E-03 0.  1.
         11    1    4    4    0    0  0.13059782838E-01  0.10305487577E-01 -0.35078063542E-01  0.38826442855E-01  0.51100000000E-03 0. -1.
</event>
<event>
 8    1  0.1109294E+005  0.1043930E+01  0.7957747E-01            NaN
         13   -1    0    0    0    0  0.00000000000E+00  0.00000000000E+00  0.74505805969E-08  0.10566000000E+00  0.10566000000E+00 0. -1.
     999900   -1    0    0    0    0 -0.00000000000E+00 -0.00000000000E+00 -0.74505805969E-08  0.93827000000E+00  0.93827000000E+00 0. -1.
     999902    2    1    2    0    0  0.18740349251E-01 -0.20453222432E-01  0.86886910516E-02  0.10148606287E+01  0.10144442159E+01 0.  0.
     999903    2    3    3    0    0 -0.38626069265E-01 -0.11935933454E+00  0.10225921644E-01  0.12746235953E+00  0.20086305144E-01 0.  0.
         14    1    1    2    0    0 -0.18740349251E-01  0.20453222432E-01 -0.86886910516E-02  0.29069371340E-01  0.00000000000E+00 0. -1.
     999901    1    3    3    0    0  0.57366418515E-01  0.98906112106E-01 -0.15372305928E-02  0.88739826913E+00  0.88000000000E+00 0. -1.
        -11    1    4    4    0    0 -0.13871538467E-01 -0.53653473780E-01  0.13945889536E-01  0.57147736474E-01  0.51100000000E-03 0.  1.
         11    1    4    4    0    0 -0.24754530797E-01 -0.65705860757E-01 -0.37199678912E-02  0.70314623052E-01  0.51100000000E-03 0. -1.
</event>
<event>
 8    1  0.1109294E+005  0.1043930E+01  0.7957747E-01            NaN
         13   -1    0    0    0    0  0.00000000000E+00  0.00000000000E+00  0.74505805969E-08  0.10566000000E+00  0.10566000000E+00 0.  1.
     999900   -1    0    0    0    0 -0.00000000000E+00 -0.00000000000E+00 -0.74505805969E-08  0.93827000000E+00  0.93827000000E+00 0. -1.
     999902    2    1    2    0    0 -0.15842489696E-02 -0.23477125783E-01 -0.10052148984E-01  0.10183422885E+01  0.10180207687E+01 0.  0.
     999903    2    3    3    0    0 -0.12533831521E+00 -0.10270138102E-01  0.20934276036E-01  0.12904500865E+00  0.19980023760E-01 0.  0.
         14    1    1    2    0    0  0.15842489696E-02  0.23477125783E-01  0.10052148984E-01  0.25587711485E-01  0.00000000000E+00 0.  1.
     999901    1    3    3    0    0  0.12375406624E+00 -0.13206987681E-01 -0.30986425021E-01  0.88929727986E+00  0.88000000000E+00 0. -1.
        -11    1    4    4    0    0 -0.54782662504E-01 -0.12118842907E-01  0.15725135716E-01  0.58271326385E-01  0.51100000000E-03 0. -1.
         11    1    4    4    0    0 -0.70555652704E-01  0.18487048048E-02  0.52091403204E-02  0.70773682268E-01  0.51100000000E-03 0.  1.
</event>
<event>
 8    1  0.1109294E+005  0.1043930E+01  0.7957747E-01            NaN
         13   -1    0    0    0    0  0.00000000000E+00  0.00000000000E+00  0.74505805969E-08  0.10566000000E+00  0.10566000000E+00 0. -1.
     999900   -1    0    0    0    0 -0.00000000000E+00 -0.00000000000E+00 -0.74505805969E-08  0.93827000000E+00  0.93827000000E+00 0. -1.
     999902    2    1    2    0    0 -0.39693000906E-02  0.10220274211E-01 -0.21180343774E-01  0.10200801298E+01  0.10198012820E+01 0.  0.
     999903    2    3    3    0    0  0.11563872527E+00  0.95290082321E-02  0.51832763634E-01  0.12899232745E+00  0.22119411711E-01 0.  0.
         14    1    1    2    0    0  0.39693000906E-02 -0.10220274211E-01  0.21180343774E-01  0.23849870241E-01  0.00000000000E+00 0. -1.
     999901    1    3    3    0    0 -0.11960802536E+00  0.69126597854E-03 -0.73013107408E-01  0.89108780231E+00  0.88000000000E+00 0. -1.
        -11    1    4    4    0    0  0.73532222581E-01  0.12255968401E-01  0.42365616018E-01  0.85745571669E-01  0.51100000000E-03 0.  1.
         11    1    4    4    0    0  0.42106502686E-01 -0.27269601684E-02  0.94671476157E-02  0.43246755776E-01  0.51100000000E-03 0. -1.
</event>
<event>
 8    1  0.1109294E+005  0.1043930E+01  0.7957747E-01            NaN
         13   -1    0    0    0    0  0.00000000000E+00  0.00000000000E+00  0.74505805969E-08  0.10566000000E+00  0.10566000000E+00 0.  1.
     999900   -1    0    0    0    0 -0.00000000000E+00 -0.00000000000E+00 -0.74505805969E-08  0.93827000000E+00  0.93827000000E+00 0.  1.
     999902    2    1    2    0    0 -0.19138482193E-01 -0.83073690517E-02 -0.45437717992E-02  0.10225772544E+01  0.10223542935E+01 0.  0.
     999903    2    3    3    0    0 -0.51265790019E-01  0.46896862316E-01  0.10959594416E+00  0.13291015611E+00  0.28746159747E-01 0.  0.
         14    1    1    2    0    0  0.19138482193E-01  0.83073690517E-02  0.45437717992E-02  0.21352745570E-01  0.00000000000E+00 0. -1.
     999901    1    3    3    0    0  0.32127307825E-01 -0.55204231368E-01 -0.11413971596E+00  0.88966709832E+00  0.88000000000E+00 0.  1.
        -11    1    4    4    0    0 -0.35179953938E-01  0.37033087224E-01  0.54621713723E-01  0.74785502870E-01  0.51100000000E-03 0. -1.
         11    1    4    4    0    0 -0.16085836080E-01  0.98637750924E-02  0.54974230437E-01  0.58124653243E-01  0.51100000000E-03 0.  1.
</event>
<event>
 8    1  0.1109294E+005  0.1043930E+01  0.7957747E-01            NaN
         13   -1    0    0    0    0  0.00000000000E+00  0.00000000000E+00  0.74505805969E-08  0.10566000000E+00  0.10566000000E+00 0.  1.
     999900   -1    0    0    0    0 -0.00000000000E+00 -0.00000000000E+00 -0.74505805969E-08  0.93827000000E+00  0.93827000000E+00 0.  1.
     999902    2    1    2    0    0 -0.15174746496E-01  0.18890009176E-01  0.22028759787E-02  0.10195998122E+01  0.10193094814E+01 0.  0.
     999903    2    3    3    0    0 -0.12460754740E+00 -0.18078520049E-01 -0.33125141522E-01  0.13134856454E+00  0.17357898818E-01 0.  0.
         14    1    1    2    0    0  0.15174746496E-01 -0.18890009176E-01 -0.22028759787E-02  0.24330187843E-01  0.00000000000E+00 0.  1.
     999901    1    3    3    0    0  0.10943280090E+00  0.36968529226E-01  0.35328017501E-01  0.88825124761E+00  0.88000000000E+00 0.  1.
        -11    1    4    4    0    0 -0.52683069352E-01 -0.67944812082E-02 -0.22823418185E-01  0.57817301129E-01  0.51100000000E-03 0. -1.
         11    1    4    4    0    0 -0.71924478045E-01 -0.11284038841E-01 -0.10301723338E-01  0.73531263415E-01  0.51100000000E-03 0.  1.
</event>
<event>
 8    1  0.1109294E+005  0.1043930E+01  0.7957747E-01            NaN
         13   -1    0    0    0    0  0.00000000000E+00  0.00000000000E+00  0.74505805969E-08  0.10566000000E+00  0.10566000000E+00 0.  1.
     999900   -1    0    0    0    0 -0.00000000000E+00 -0.00000000000E+00 -0.74505805969E-08  0.93827000000E+00  0.93827000000E+00 0. -1.
     999902    2    1    2    0    0 -0.31692371834E-02 -0.24713271832E-02  0.28949847192E-01  0.10147025271E+01  0.10142815059E+01 0.  0.
     999903    2    3    3    0    0  0.94536806715E-01 -0.68044800538E-01  0.45639040178E-01  0.12671329256E+00  0.20150280841E-01 0.  0.
         14    1    1    2    0    0  0.31692371834E-02  0.24713271832E-02 -0.28949847192E-01  0.29227472946E-01  0.00000000000E+00 0. -1.
     999901    1    3    3    0    0 -0.97706043898E-01  0.65573473354E-01 -0.16689192986E-01  0.88798923450E+00  0.88000000000E+00 0.  1.
        -11    1    4    4    0    0  0.56212183199E-02 -0.32743018015E-02 -0.20136951694E-02  0.68289997015E-02  0.51100000000E-03 0.  1.
         11    1    4    4    0    0  0.88915588395E-01 -0.64770498736E-01  0.47652735347E-01  0.11988429285E+00  0.51100000000E-03 0. -1.
</event>
<event>
 8    1  0.1109294E+005  0.1043930E+01  0.7957747E-01            NaN
         13   -1    0    0    0    0  0.00000000000E+00  0.00000000000E+00  0.74505805969E-08  0.10566000000E+00  0.10566000000E+00 0. -1.
     999900   -1    0    0    0    0 -0.00000000000E+00 -0.00000000000E+00 -0.74505805969E-08  0.93827000000E+00  0.93827000000E+00 0.  1.
     999902    2    1    2    0    0 -0.12978779727E-02  0.38916548478E-03 -0.23493284985E-01  0.10203976738E+01  0.10201262874E+01 0.  0.
     999903    2    3    3    0    0  0.10265560188E+00  0.58535447314E-01 -0.54918033870E-01  0.13181744056E+00  0.19881549274E-01 0.  0.
         14    1    1    2    0    0  0.12978779727E-02 -0.38916548478E-03  0.23493284985E-01  0.23532326200E-01  0.00000000000E+00 0. -1.
     999901    1    3    3    0    0 -0.10395347985E+00 -0.58146281829E-01  0.31424748885E-01  0.88858023324E+00  0.88000000000E+00 0.  1.
        -11    1    4    4    0    0  0.76631912039E-01  0.48203148482E-01 -0.33388965617E-01  0.96493925261E-01  0.51100000000E-03 0.  1.
         11    1    4    4    0    0  0.26023689842E-01  0.10332298832E-01 -0.21529068253E-01  0.35323515298E-01  0.51100000000E-03 0. -1.
</event>
<event>
 8    1  0.1109294E+005  0.1043930E+01  0.7957747E-01            NaN
         13   -1    0    0    0    0  0.00000000000E+00  0.00000000000E+00  0.74505805969E-08  0.10566000000E+00  0.10566000000E+00 0. -1.
     999900   -1    0    0    0    0 -0.00000000000E+00 -0.00000000000E+00 -0.74505805969E-08  0.93827000000E+00  0.93827000000E+00 0. -1.
     999902    2    1    2    0    0 -0.33499344164E-02 -0.23757666463E-01 -0.11952041044E-02  0.10199075670E+01  0.10196246210E+01 0.  0.
     999903    2    3    3    0    0 -0.12584448788E+00 -0.31588046688E-01  0.61910774757E-02  0.13135774414E+00  0.19541946731E-01 0.  0.
         14    1    1    2    0    0  0.33499344164E-02  0.23757666463E-01  0.11952041044E-02  0.24022433041E-01  0.00000000000E+00 0. -1.
     999901    1    3    3    0    0  0.12249455346E+00  0.78303802245E-02 -0.73862815801E-02  0.88854982282E+00  0.88000000000E+00 0.  1.
        -11    1    4    4    0    0 -0.10575818318E+00 -0.24813334404E-01 -0.19384212177E-02  0.10864857786E+00  0.51100000000E-03 0. -1.
         11    1    4    4    0    0 -0.20086304700E-01 -0.67747122842E-02  0.81294986934E-02  0.22709166278E-01  0.51100000000E-03 0.  1.
</event>
<event>
 8    1  0.1109294E+005  0.1043930E+01  0.7957747E-01            NaN
         13   -1    0    0    0    0  0.00000000000E+00  0.00000000000E+00  0.74505805969E-08  0.10566000000E+00  0.10566000000E+00 0.  1.
     999900   -1    0    0    0    0 -0.00000000000E+00 -0.00000000000E+00 -0.74505805969E-08  0.93827000000E+00  0.93827000000E+00 0. -1.
     999902    2    1    2    0    0  0.13127129748E-01 -0.75124929052E-02  0.17981460560E-01  0.10204333618E+01  0.10201628075E+01 0.  0.
     999903    2    3    3    0    0 -0.21769220931E-01  0.28451667748E-01 -0.12147721851E+00  0.12804336892E+00  0.18841266635E-01 0.  0.
         14    1    1    2    0    0 -0.13127129748E-01  0.75124929052E-02 -0.17981460560E-01  0.23496638248E-01  0.00000000000E+00 0.  1.
     999901    1    3    3    0    0  0.34896350679E-01 -0.35964160653E-01  0.13945867907E+00  0.89238999283E+00  0.88000000000E+00 0.  1.
        -11    1    4    4    0    0 -0.24787299313E-01  0.22064454212E-01 -0.10463420435E+00  0.10977170941E+00  0.51100000000E-03 0.  1.
         11    1    4    4    0    0  0.30180783820E-02  0.63872135362E-02 -0.16843014168E-01  0.18271659507E-01  0.51100000000E-03 0. -1.
</event>
<event>
 8    1  0.1109294E+005  0.1043930E+01  0.7957747E-01            NaN
         13   -1    0    0    0    0  0.00000000000E+00  0.00000000000E+00  0.74505805969E-08  0.10566000000E+00  0.10566000000E+00 0.  1.
     999900   -1    0    0    0    0 -0.00000000000E+00 -0.00000000000E+00 -0.74505805969E-08  0.93827000000E+00  0.93827000000E+00 0.  1.
     999902    2    1    2    0    0 -0.14333339324E-01 -0.17134138354E-01 -0.19037951102E-01  0.10145792437E+01  0.10141546109E+01 0.  0.
     999903    2    3    3    0    0  0.11073240615E+00 -0.52070487408E-01  0.10891703847E-01  0.12454678731E+00  0.20500526480E-01 0.  0.
         14    1    1    2    0    0  0.14333339324E-01  0.17134138354E-01  0.19037951102E-01  0.29350756301E-01  0.00000000000E+00 0.  1.
     999901    1    3    3    0    0 -0.12506574548E+00  0.34936349053E-01 -0.29929654949E-01  0.89003245639E+00  0.88000000000E+00 0.  1.
        -11    1    4    4    0    0  0.25935072306E-01 -0.49900725509E-02 -0.29195446550E-02  0.26576562261E-01  0.51100000000E-03 0. -1.
         11    1    4    4    0    0  0.84797333846E-01 -0.47080414857E-01  0.13811248502E-01  0.97970225051E-01  0.51100000000E-03 0.  1.
</event>
<event>
 8    1  0.1109294E+005  0.1043930E+01  0.7957747E-01            NaN
         13   -1    0    0    0    0  0.00000000000E+00  0.00000000000E+00  0.74505805969E-08  0.10566000000E+00  0.10566000000E+00 0. -1.
     999900   -1    0    0    0    0 -0.00000000000E+00 -0.00000000000E+00 -0.74505805969E-08  0.93827000000E+00  0.93827000000E+00 0. -1.
     999902    2    1    2    0    0 -0.15515074292E-01  0.68726609701E-02  0.15659435144E-01  0.10208395494E+01  0.10205783736E+01 0.  0.
     999903    2    3    3    0    0  0.93679108417E-01  0.24030482422E-01 -0.81698663181E-01  0.12859722825E+00  0.22568475988E-01 0.  0.
         14    1    1    2    0    0  0.15515074292E-01 -0.68726609701E-02 -0.15659435144E-01  0.23090450583E-01  0.00000000000E+00 0.  1.
     999901    1    3    3    0    0 -0.10919418271E+00 -0.17157821452E-01  0.97358098326E-01  0.89224232117E+00  0.88000000000E+00 0.  1.
        -11    1    4    4    0    0  0.20742003339E-01  0.71253176986E-02 -0.74928225599E-02  0.23181983645E-01  0.51100000000E-03 0. -1.
         11    1    4    4    0    0  0.72937105078E-01  0.16905164724E-01 -0.74205840621E-01  0.10541524460E+00  0.51100000000E-03 0.  1.
</event>
<event>
 8    1  0.1109294E+005  0.1043930E+01  0.7957747E-01            NaN
         13   -1    0    0    0    0  0.00000000000E+00  0.00000000000E+00  0.74505805969E-08  0.10566000000E+00  0.10566000000E+00 0. -1.
     999900   -1    0    0    0    0 -0.00000000000E+00 -0.00000000000E+00 -0.74505805969E-08  0.93827000000E+00  0.93827000000E+00 0.  1.
     999902    2    1    2    0    0  0.21910213189E-01  0.12982025093E-01  0.15561697548E-01  0.10140844501E+01  0.10136451623E+01 0.  0.
     999903    2    3    3    0    0  0.83456447000E-01 -0.67885320641E-01  0.64159785512E-01  0.12690394951E+00  0.20365142251E-01 0.  0.
         14    1    1    2    0    0 -0.21910213189E-01 -0.12982025093E-01 -0.15561697548E-01  0.29845549887E-01  0.00000000000E+00 0.  1.
     999901    1    3    3    0    0 -0.61546233811E-01  0.80867345734E-01 -0.48598087964E-01  0.88718050061E+00  0.88000000000E+00 0.  1.
        -11    1    4    4    0    0  0.83002585775E-01 -0.62105925770E-01  0.60512660753E-01  0.12003590502E+00  0.51100000000E-03 0. -1.
         11    1    4    4    0    0  0.45386122522E-03 -0.57793948707E-02  0.36471247593E-02  0.68680444883E-02  0.51100000000E-03 0.  1.
</event>
<event>
 8    1  0.1109294E+005  0.1043930E+01  0.7957747E-01            NaN
         13   -1    0    0    0    0  0.00000000000E+00  0.00000000000E+00  0.74505805969E-08  0.10566000000E+00  0.10566000000E+00 0. -1.
     999900   -1    0    0    0    0 -0.00000000000E+00 -0.00000000000E+00 -0.74505805969E-08  0.93827000000E+00  0.93827000000E+00 0. -1.
     999902    2    1    2    0    0  0.15309306448E-01  0.13195411973E-01 -0.13111101417E-01  0.10198386169E+01  0.10195540249E+01 0.  0.
     999903    2    3    3    0    0  0.13055934216E+00  0.11755986721E-03  0.14978627440E-02  0.13210722574E+00  0.20107706355E-01 0.  0.
         14    1    1    2    0    0 -0.15309306448E-01 -0.13195411973E-01  0.13111101417E-01  0.24091383136E-01  0.00000000000E+00 0. -1.
     999901    1    3    3    0    0 -0.11525003571E+00  0.13077852106E-01 -0.14608964161E-01  0.88773139112E+00  0.88000000000E+00 0. -1.
        -11    1    4    4    0    0  0.99923713949E-01  0.83108199245E-02 -0.11900555522E-02  0.10027709455E+00  0.51100000000E-03 0.  1.
         11    1    4    4    0    0  0.30635628212E-01 -0.81932600573E-02  0.26879182962E-02  0.31830131198E-01  0.51100000000E-03 0. -1.
</event>
<event>
 8    1  0.1109294E+005  0.1043930E+01  0.7957747E-01            NaN
         13   -1    0    0    0    0  0.00000000000E+00  0.00000000000E+00  0.74505805969E-08  0.10566000000E+00  0.10566000000E+00 0.  1.
     999900   -1    0    0    0    0 -0.00000000000E+00 -0.00000000000E+00 -0.74505805969E-08  0.93827000000E+00  0.93827000000E+00 0. -1.
     999902    2    1    2    0    0 -0.66686067030E-02  0.77785171354E-02  0.21167336222E-01  0.10204133725E+01  0.10201423524E+01 0.  0.
     999903    2    3    3    0    0 -0.10487044219E+00  0.29065455199E-01 -0.68427629507E-01  0.13017520660E+00  0.20509353983E-01 0.  0.
         14    1    1    2    0    0  0.66686067030E-02 -0.77785171354E-02 -0.21167336222E-01  0.23516627456E-01  0.00000000000E+00 0. -1.
     999901    1    3    3    0    0  0.98201835490E-01 -0.21286938064E-01  0.89594965729E-01  0.89023816595E+00  0.88000000000E+00 0.  1.
        -11    1    4    4    0    0 -0.71961177093E-01  0.28592060138E-01 -0.42936060957E-01  0.88541986442E-01  0.51100000000E-03 0. -1.
         11    1    4    4    0    0 -0.32909265100E-01  0.47339506097E-03 -0.25491568550E-01  0.41633220155E-01  0.51100000000E-03 0.  1.
</event>
<event>
 8    1  0.1109294E+005  0.1043930E+01  0.7957747E-01            NaN
         13   -1    0    0    0    0  0.00000000000E+00  0.00000000000E+00  0.74505805969E-08  0.10566000000E+00  0.10566000000E+00 0.  1.
     999900   -1    0    0    0    0 -0.00000000000E+00 -0.00000000000E+00 -0.74505805969E-08  0.93827000000E+00  0.93827000000E+00 0.  1.
     999902    2    1    2    0    0 -0.11361725330E-01  0.17285292668E-01 -0.98717842541E-02  0.10210100901E+01  0.10207528015E+01 0.  0.
     999903    2    3    3    0    0  0.73887452470E-01 -0.68835512297E-01  0.76870497370E-01  0.12848085317E+00  0.20014316887E-01 0.  0.
         14    1    1    2    0    0  0.11361725330E-01 -0.17285292668E-01  0.98717842541E-02  0.22919909892E-01  0.00000000000E+00 0. -1.
     999901    1    3    3    0    0 -0.85249177799E-01  0.86120804965E-01 -0.86742281624E-01  0.89252923694E+00  0.88000000000E+00 0.  1.
        -11    1    4    4    0    0  0.26796696508E-01 -0.26953233761E-01  0.17309832982E-01  0.41766388314E-01  0.51100000000E-03 0. -1.
         11    1    4    4    0    0  0.47090755961E-01 -0.41882278536E-01  0.59560664389E-01  0.86714464859E-01  0.51100000000E-03 0.  1.
</event>
<event>
 8    1  0.1109294E+005  0.1043930E+01  0.7957747E-01            NaN
         13   -1    0    0    0    0  0.00000000000E+00  0.00000000000E+00  0.74505805969E-08  0.10566000000E+00  0.10566000000E+00 0.  1.
     999900   -1    0    0    0    0 -0.00000000000E+00 -0.00000000000E+00 -0.74505805969E-08  0.93827000000E+00  0.93827000000E+00 0.  1.
     999902    2    1    2    0    0  0.14910520556E-02 -0.23423462049E-01 -0.17158918327E-02  0.10203964899E+01  0.10201250760E+01 0.  0.
     999903    2    3    3    0    0 -0.97223260750E-01  0.10585063441E-01 -0.84013097697E-01  0.13041113869E+00  0.19607613596E-01 0.  0.
         14    1    1    2    0    0 -0.14910520556E-02  0.23423462049E-01  0.17158918327E-02  0.23533510052E-01  0.00000000000E+00 0.  1.
     999901    1    3    3    0    0  0.98714312806E-01 -0.34008525490E-01  0.82297205865E-01  0.88998535126E+00  0.88000000000E+00 0. -1.
        -11    1    4    4    0    0 -0.54465813970E-01 -0.13677558221E-02 -0.54712659625E-01  0.77214842431E-01  0.51100000000E-03 0.  1.
         11    1    4    4    0    0 -0.42757446780E-01  0.11952819263E-01 -0.29300438072E-01  0.53196296260E-01  0.51100000000E-03 0. -1.
</event>
<event>
 8    1  0.1109294E+005  0.1043930E+01  0.7957747E-01            NaN
         13   -1    0    0    0    0  0.00000000000E+00  0.00000000000E+00  0.74505805969E-08  0.10566000000E+00  0.10566000000E+00 0. -1.
     999900   -1    0    0    0    0 -0.00000000000E+00 -0.00000000000E+00 -0.74505805969E-08  0.93827000000E+00  0.93827000000E+00 0.  1.
     999902    2    1    2    0    0 -0.21540503661E-01 -0.80545632960E-02 -0.49363091716E-02  0.10204090214E+01  0.10201378997E+01 0.  0.
     999903    2    3    3    0    0 -0.54798541070E-01 -0.88830893264E-01 -0.79895379746E-01  0.13291266937E+00  0.19715432361E-01 0.  0.
         14    1    1    2    0    0  0.21540503661E-01  0.80545632960E-02  0.49363091716E-02  0.23520978638E-01  0.00000000000E+00 0. -1.
     999901    1    3    3    0    0  0.33258037409E-01  0.80776329968E-01  0.74959070575E-01  0.88749635199E+00  0.88000000000E+00 0. -1.
        -11    1    4    4    0    0 -0.44010420477E-01 -0.79432459122E-01 -0.61829645331E-01  0.10986172598E+00  0.51100000000E-03 0. -1.
         11    1    4    4    0    0 -0.10788120592E-01 -0.93984341424E-02 -0.18065734415E-01  0.23050943390E-01  0.51100000000E-03 0.  1.
</event>
<event>
 8    1  0.1109294E+005  0.1043930E+01  0.7957747E-01            NaN
         13   -1    0    0    0    0  0.00000000000E+00  0.00000000000E+00  0.74505805969E-08  0.10566000000E+00  0.10566000000E+00 0.  1.
     999900   -1    0    0    0    0 -0.00000000000E+00 -0.00000000000E+00 -0.74505805969E-08  0.93827000000E+00  0.93827000000E+00 0.  1.
     999902    2    1    2    0    0  0.13188518791E-01  0.78720604304E-02 -0.19332369910E-01  0.10192389715E+01  0.10189398579E+01 0.  0.
     999903    2    3    3    0    0 -0.10348250173E+00 -0.70678027138E-01 -0.17534652502E-01  0.12806812642E+00  0.19747639914E-01 0.  0.
         14    1    1    2    0    0 -0.13188518791E-01 -0.78720604304E-02  0.19332369910E-01  0.24691028526E-01  0.00000000000E+00 0.  1.
     999901    1    3    3    0    0  0.11667102052E+00  0.78550087568E-01 -0.17977174081E-02  0.89117084505E+00  0.88000000000E+00 0.  1.
        -11    1    4    4    0    0 -0.45866101459E-01 -0.40801279180E-01 -0.14577316272E-01  0.63096774216E-01  0.51100000000E-03 0.  1.
         11    1    4    4    0    0 -0.57616400270E-01 -0.29876747958E-01 -0.29573362295E-02  0.64971352204E-01  0.51100000000E-03 0. -1.
</event>
<event>
 8    1  0.1109294E+005  0.1043930E+01  0.7957747E-01            NaN
         13   -1    0    0    0    0  0.00000000000E+00  0.00000000000E+00  0.74505805969E-08  0.10566000000E+00  0.10566000000E+00 0.  1.
     999900   -1    0    0    0    0 -0.00000000000E+00 -0.00000000000E+00 -0.74505805969E-08  0.93827000000E+00  0.93827000000E+00 0. -1.
     999902    2    1    2    0    0  0.15561566417E-01  0.44242706823E-02  0.13848253588E-01  0.10226342106E+01  0.10224124500E+01 0.  0.
     999903    2    3    3    0    0  0.23631701413E-01  0.68504020667E-01  0.11200697430E+00  0.13482427826E+00  0.19513214973E-01 0.  0.
         14    1    1    2    0    0 -0.15561566417E-01 -0.44242706823E-02 -0.13848253588E-01  0.21295789440E-01  0.00000000000E+00 0. -1.
     999901    1    3    3    0    0 -0.80701349953E-02 -0.64079749985E-01 -0.98158720708E-01  0.88780993230E+00  0.88000000000E+00 0. -1.
        -11    1    4    4    0    0  0.62255961485E-02  0.25671603573E-01  0.57962265782E-01  0.63699879537E-01  0.51100000000E-03 0. -1.
         11    1    4    4    0    0  0.17406105264E-01  0.42832417094E-01  0.54044708514E-01  0.71124398724E-01  0.51100000000E-03 0.  1.
</event>
<event>
 8    1  0.1109294E+005  0.1043930E+01  0.7957747E-01            NaN
         13   -1    0    0    0    0  0.00000000000E+00  0.00000000000E+00  0.74505805969E-08  0.10566000000E+00  0.10566000000E+00 0. -1.
     999900   -1    0    0    0    0 -0.00000000000E+00 -0.00000000000E+00 -0.74505805969E-08  0.93827000000E+00  0.93827000000E+00 0.  1.
     999902    2    1    2    0    0  0.14486201357E-01  0.19088593355E-01  0.12074884776E-02  0.10199366164E+01  0.10196543626E+01 0.  0.
     999903    2    3    3    0    0 -0.49965469021E-01  0.32517517230E-01  0.11414089804E+00  0.13028032955E+00  0.19770752156E-01 0.  0.
         14    1    1    2    0    0 -0.14486201357E-01 -0.19088593355E-01 -0.12074884776E-02  0.23993383556E-01  0.00000000000E+00 0.  1.
     999901    1    3    3    0    0  0.64451670378E-01 -0.13428923875E-01 -0.11293340957E+00  0.88965628689E+00  0.88000000000E+00 0.  1.
        -11    1    4    4    0    0 -0.78730639007E-02  0.14797501291E-01  0.24731192462E-01  0.29880498343E-01  0.51100000000E-03 0.  1.
         11    1    4    4    0    0 -0.42092405120E-01  0.17720015939E-01  0.89409705581E-01  0.10039983121E+00  0.51100000000E-03 0. -1.
</event>
<event>
 8    1  0.1109294E+005  0.1043930E+01  0.7957747E-01            NaN
         13   -1    0    0    0    0  0.00000000000E+00  0.00000000000E+00  0.74505805969E-08  0.10566000000E+00  0.10566000000E+00 0.  1.
     999900   -1    0    0    0    0 -0.00000000000E+00 -0.00000000000E+00 -0.74505805969E-08  0.93827000000E+00  0.93827000000E+00 0. -1.
     999902    2    1    2    0    0  0.13110515254E-01 -0.21078096466E-01 -0.44725519150E-02  0.10187074807E+01  0.10183951864E+01 0.  0.
     999903    2    3    3    0    0  0.11268942151E+00 -0.60003526822E-01 -0.25486903789E-01  0.13198725947E+00  0.21719241351E-01 0.  0.
         14    1    1    2    0    0 -0.13110515254E-01  0.21078096466E-01  0.44725519150E-02  0.25222519333E-01  0.00000000000E+00 0. -1.
     999901    1    3    3    0    0 -0.99578906260E-01  0.38925430356E-01  0.21014351874E-01  0.88672022120E+00  0.88000000000E+00 0. -1.
        -11    1    4    4    0    0  0.84521289297E-01 -0.45388680594E-01 -0.28563491677E-01  0.10010052372E+00  0.51100000000E-03 0.  1.
         11    1    4    4    0    0  0.28168132216E-01 -0.14614846228E-01  0.30765878878E-02  0.31886735751E-01  0.51100000000E-03 0. -1.
</event>
<event>
 8    1  0.1109294E+005  0.1043930E+01  0.7957747E-01            NaN
         13   -1    0    0    0    0  0.00000000000E+00  0.00000000000E+00  0.74505805969E-08  0.10566000000E+00  0.10566000000E+00 0.  1.
     999900   -1    0    0    0    0 -0.00000000000E+00 -0.00000000000E+00 -0.74505805969E-08  0.93827000000E+00  0.93827000000E+00 0. -1.
     999902    2    1    2    0    0 -0.40347407598E-02  0.37034771812E-02  0.26142442983E-01  0.10172200355E+01  0.10168693026E+01 0.  0.
     999903    2    3    3    0    0  0.88200683238E-01  0.24312077388E-01 -0.83560097204E-01  0.12538667938E+00  0.19211764373E-01 0.  0.
         14    1    1    2    0    0  0.40347407598E-02 -0.37034771812E-02 -0.26142442983E-01  0.26709964458E-01  0.00000000000E+00 0. -1.
     999901    1    3    3    0    0 -0.92235423998E-01 -0.20608600207E-01  0.10970254019E+00  0.89183335616E+00  0.88000000000E+00 0.  1.
        -11    1    4    4    0    0  0.52818302411E-01  0.10042301139E-01 -0.59898492500E-01  0.80490442952E-01  0.51100000000E-03 0.  1.
         11    1    4    4    0    0  0.35382380826E-01  0.14269776249E-01 -0.23661604705E-01  0.44896236427E-01  0.51100000000E-03 0. -1.
</event>
<event>
 8    1  0.1109294E+005  0.1043930E+01  0.7957747E-01            NaN
         13   -1    0    0    0    0  0.00000000000E+00  0.00000000000E+00  0.74505805969E-08  0.10566000000E+00  0.10566000000E+00 0. -1.
     999900   -1    0    0    0    0 -0.00000000000E+00 -0.00000000000E+00 -0.74505805969E-08  0.93827000000E+00  0.93827000000E+00 0.  1.
     999902    2    1    2    0    0  0.17890193859E-02 -0.10662974516E-01 -0.18278849364E-01  0.10226928639E+01  0.10224723360E+01 0.  0.
     999903    2    3    3    0    0  0.13814808858E-01 -0.18086603163E-01 -0.13175083287E+00  0.13529463259E+00  0.20697378774E-01 0.  0.
         14    1    1    2    0    0 -0.17890193859E-02  0.10662974516E-01  0.18278849364E-01  0.21237136106E-01  0.00000000000E+00 0. -1.
     999901    1    3    3    0    0 -0.12025789472E-01  0.74236286464E-02  0.11347198351E+00  0.88739823130E+00  0.88000000000E+00 0. -1.
        -11    1    4    4    0    0  0.95653708769E-02 -0.43925718730E-02 -0.98739798188E-01  0.99300553246E-01  0.51100000000E-03 0. -1.
         11    1    4    4    0    0  0.42494379814E-02 -0.13694031290E-01 -0.33011034685E-01  0.35994079348E-01  0.51100000000E-03 0.  1.
</event>
<event>
 8    1  0.1109294E+005  0.1043930E+01  0.7957747E-01            NaN
         13   -1    0    0    0    0  0.00000000000E+00  0.00000000000E+00  0.74505805969E-08  0.10566000000E+00  0.10566000000E+00 0. -1.
     999900   -1    0    0    0    0 -0.00000000000E+00 -0.00000000000E+00 -0.74505805969E-08  0.93827000000E+00  0.93827000000E+00 0.  1.
     999902    2    1    2    0    0  0.60922937432E-02 -0.59175061598E-02 -0.21884167995E-01  0.10204555515E+01  0.10201855140E+01 0.  0.
     999903    2    3    3    0    0 -0.46602264177E-01 -0.12101883763E+00 -0.42988095297E-02  0.13122314222E+00  0.19588343532E-01 0.  0.
         14    1    1    2    0    0 -0.60922937432E-02  0.59175061598E-02  0.21884167995E-01  0.23474448471E-01  0.00000000000E+00 0. -1.
     999901    1    3    3    0    0  0.52694557920E-01  0.11510133147E+00 -0.17585358465E-01  0.88923240931E+00  0.88000000000E+00 0.  1.
        -11    1    4    4    0    0 -0.23363724376E-01 -0.43361825834E-01  0.55328734120E-02  0.49567987306E-01  0.51100000000E-03 0.  1.
         11    1    4    4    0    0 -0.23238539801E-01 -0.77657011795E-01 -0.98316829416E-02  0.81655154910E-01  0.51100000000E-03 0. -1.
</event>
<event>
 8    1  0.1109294E+005  0.1043930E+01  0.7957747E-01            NaN
         13   -1    0    0    0    0  0.00000000000E+00  0.00000000000E+00  0.74505805969E-08  0.10566000000E+00  0.10566000000E+00 0.  1.
     999900   -1    0    0    0    0 -0.00000000000E+00 -0.00000000000E+00 -0.74505805969E-08  0.93827000000E+00  0.93827000000E+00 0. -1.
     999902    2    1    2    0    0 -0.10013334896E-01  0.15023291168E-01  0.14453086275E-01  0.10208030059E+01  0.10205409933E+01 0.  0.
     999903    2    3    3    0    0 -0.11879535629E-02 -0.34384582123E-01  0.12631641635E+00  0.13230290465E+00  0.19092166449E-01 0.  0.
         14    1    1    2    0    0  0.10013334896E-01 -0.15023291168E-01 -0.14453086275E-01  0.23126994100E-01  0.00000000000E+00 0. -1.
     999901    1    3    3    0    0 -0.88253813328E-02  0.49407873290E-01 -0.11186333007E+00  0.88850010125E+00  0.88000000000E+00 0. -1.
        -11    1    4    4    0    0 -0.81563750192E-02 -0.24514368084E-01  0.67966977238E-01  0.72713491265E-01  0.51100000000E-03 0. -1.
         11    1    4    4    0    0  0.69684214563E-02 -0.98702140390E-02  0.58349439109E-01  0.59589413389E-01  0.51100000000E-03 0.  1.
</event>
<event>
 8    1  0.1109294E+005  0.1043930E+01  0.7957747E-01            NaN
         13   -1    0    0    0    0  0.00000000000E+00  0.00000000000E+00  0.74505805969E-08  0.10566000000E+00  0.10566000000E+00 0.  1.
     999900   -1    0    0    0    0 -0.00000000000E+00 -0.00000000000E+00 -0.74505805969E-08  0.93827000000E+00  0.93827000000E+00 0.  1.
     999902    2    1    2    0    0 -0.57977628607E-02  0.19448248731E-01  0.13833101470E-01  0.10193698060E+01  0.10190738924E+01 0.  0.
     999903    2    3    3    0    0 -0.90680724702E-01 -0.80084095967E-01  0.41405648920E-01  0.12927315382E+00  0.18991163129E-01 0.  0.
         14    1    1    2    0    0  0.57977628607E-02 -0.19448248731E-01 -0.13833101470E-01  0.24560193997E-01  0.00000000000E+00 0. -1.
     999901    1    3    3    0    0  0.84882961842E-01  0.99532344698E-01 -0.27572547450E-01  0.89009665218E+00  0.88000000000E+00 0.  1.
        -11    1    4    4    0    0 -0.30929826077E-01 -0.34212321251E-01  0.77658303581E-02  0.46772922815E-01  0.51100000000E-03 0. -1.
         11    1    4    4    0    0 -0.59750898626E-01 -0.45871774715E-01  0.33639818562E-01  0.82500231006E-01  0.51100000000E-03 0.  1.
</event>
<event>
 8    1  0.1109294E+005  0.1043930E+01  0.7957747E-01            NaN
         13   -1    0    0    0    0  0.00000000000E+00  0.00000000000E+00  0.74505805969E-08  0.10566000000E+00  0.10566000000E+00 0. -1.
     999900   -1    0    0    0    0 -0.00000000000E+00 -0.00000000000E+00 -0.74505805969E-08  0.93827000000E+00  0.93827000000E+00 0. -1.
     999902    2    1    2    0    0  0.28660513366E-02  0.10440585950E-01  0.19561551261E-01  0.10215721295E+01  0.10213274408E+01 0.  0.
     999903    2    3    3    0    0 -0.10627665646E+00  0.72116565753E-01  0.26131826461E-01  0.13266312085E+00  0.20520831258E-01 0.  0.
         14    1    1    2    0    0 -0.28660513366E-02 -0.10440585950E-01 -0.19561551261E-01  0.22357870493E-01  0.00000000000E+00 0.  1.
     999901    1    3    3    0    0  0.10914270780E+00 -0.61675979803E-01 -0.65702751998E-02  0.88890900865E+00  0.88000000000E+00 0.  1.
        -11    1    4    4    0    0 -0.32895666288E-01  0.11401576250E-01  0.67555189526E-02  0.35468562966E-01  0.51100000000E-03 0.  1.
         11    1    4    4    0    0 -0.73380990173E-01  0.60714989504E-01  0.19376307508E-01  0.97194557887E-01  0.51100000000E-03 0. -1.
</event>
<event>
 8    1  0.1109294E+005  0.1043930E+01  0.7957747E-01            NaN
         13   -1    0    0    0    0  0.00000000000E+00  0.00000000000E+00  0.74505805969E-08  0.10566000000E+00  0.10566000000E+00 0.  1.
     999900   -1    0    0    0    0 -0.00000000000E+00 -0.00000000000E+00 -0.74505805969E-08  0.93827000000E+00  0.93827000000E+00 0. -1.
     999902    2    1    2    0    0 -0.61737031645E-02  0.20727798772E-01  0.93163895267E-02  0.10203810857E+01  0.10201093121E+01 0.  0.
     999903    2    3    3    0    0 -0.74704819479E-01 -0.28149683504E-01 -0.10002911723E+00  0.12962749346E+00  0.20597282157E-01 0.  0.
         14    1    1    2    0    0  0.61737031645E-02 -0.20727798772E-01 -0.93163895267E-02  0.23548914339E-01  0.00000000000E+00 0. -1.
     999901    1    3    3    0    0  0.68531116315E-01  0.48877482276E-01  0.10934550675E+00  0.89075359220E+00  0.88000000000E+00 0.  1.
        -11    1    4    4    0    0 -0.27681407090E-01 -0.13980435556E-02 -0.26599880755E-01  0.38419130669E-01  0.51100000000E-03 0.  1.
         11    1    4    4    0    0 -0.47023412390E-01 -0.26751639948E-01 -0.73429236472E-01  0.91208362788E-01  0.51100000000E-03 0. -1.
</event>
<event>
 8    1  0.1109294E+005  0.1043930E+01  0.7957747E-01            NaN
         13   -1    0    0    0    0  0.00000000000E+00  0.00000000000E+00  0.74505805969E-08  0.10566000000E+00  0.10566000000E+00 0. -1.
     999900   -1    0    0    0    0 -0.00000000000E+00 -0.00000000000E+00 -0.74505805969E-08  0.93827000000E+00  0.93827000000E+00 0. -1.
     999902    2    1    2    0    0 -0.48446509343E-02  0.19675509617E-01 -0.14549488429E-01  0.10189843804E+01  0.10186789895E+01 0.  0.
     999903    2    3    3    0    0 -0.10876769319E+00  0.43007074504E-01 -0.57003751870E-01  0.13154608675E+00  0.19362997499E-01 0.  0.
         14    1    1    2    0    0  0.48446509343E-02 -0.19675509617E-01  0.14549488429E-01  0.24945619553E-01  0.00000000000E+00 0. -1.
     999901    1    3    3    0    0  0.10392304226E+00 -0.23331564887E-01  0.42454263442E-01  0.88743829370E+00  0.88000000000E+00 0.  1.
        -11    1    4    4    0    0 -0.38859053335E-01  0.25133197710E-01 -0.19485106790E-01  0.50215875586E-01  0.51100000000E-03 0. -1.
         11    1    4    4    0    0 -0.69908639859E-01  0.17873876794E-01 -0.37518645080E-01  0.81330211165E-01  0.51100000000E-03 0.  1.
</event>
<event>
 8    1  0.1109294E+005  0.1043930E+01  0.7957747E-01            NaN
         13   -1    0    0    0    0  0.00000000000E+00  0.00000000000E+00  0.74505805969E-08  0.10566000000E+00  0.10566000000E+00 0. -1.
     999900   -1    0    0    0    0 -0.00000000000E+00 -0.00000000000E+00 -0.74505805969E-08  0.93827000000E+00  0.93827000000E+00 0.  1.
     999902    2    1    2    0    0  0.62333993432E-02 -0.10647028607E-01 -0.20969405948E-01  0.10196003787E+01  0.10193100617E+01 0.  0.
     999903    2    3    3    0    0 -0.26814239152E-01  0.54876726313E-01  0.10956711934E+00  0.12694966691E+00  0.19514245502E-01 0.  0.
         14    1    1    2    0    0 -0.62333993432E-02  0.10647028607E-01  0.20969405948E-01  0.24329621274E-01  0.00000000000E+00 0. -1.
     999901    1    3    3    0    0  0.33047638496E-01 -0.65523754920E-01 -0.13053652528E+00  0.89265071181E+00  0.88000000000E+00 0.  1.
        -11    1    4    4    0    0 -0.17057212289E-01  0.47164072922E-01  0.75146511309E-01  0.90347426906E-01  0.51100000000E-03 0.  1.
         11    1    4    4    0    0 -0.97570268638E-02  0.77126533910E-02  0.34420608027E-01  0.36602240006E-01  0.51100000000E-03 0. -1.
</event>
<event>
 8    1  0.1109294E+005  0.1043930E+01  0.7957747E-01            NaN
         13   -1    0    0    0    0  0.00000000000E+00  0.00000000000E+00  0.74505805969E-08  0.10566000000E+00  0.10566000000E+00 0.  1.
     999900   -1    0    0    0    0 -0.00000000000E+00 -0.00000000000E+00 -0.74505805969E-08  0.93827000000E+00  0.93827000000E+00 0. -1.
     999902    2    1    2    0    0  0.59788406840E-02 -0.50644250983E-02 -0.19943419161E-01  0.10225025665E+01  0.10222780266E+01 0.  0.
     999903    2    3    3    0    0  0.47320001103E-01  0.12138502487E+00  0.78688342607E-02  0.13206892139E+00  0.20168655847E-01 0.  0.
         14    1    1    2    0    0 -0.59788406840E-02  0.50644250983E-02  0.19943419161E-01  0.21427433475E-01  0.00000000000E+00 0.  1.
     999901    1    3    3    0    0 -0.41341160419E-01 -0.12644944997E+00 -0.27812253422E-01  0.89043364513E+00  0.88000000000E+00 0.  1.
        -11    1    4    4    0    0  0.12492646457E-01  0.26295902763E-01 -0.63683185687E-02  0.29805323686E-01  0.51100000000E-03 0. -1.
         11    1    4    4    0    0  0.34827354647E-01  0.95089122105E-01  0.14237152829E-01  0.10226359771E+00  0.51100000000E-03 0.  1.
</event>
<event>
 8    1  0.1109294E+005  0.1043930E+01  0.7957747E-01            NaN
         13   -1    0    0    0    0  0.00000000000E+00  0.00000000000E+00  0.74505805969E-08  0.10566000000E+00  0.10566000000E+00 0. -1.
     999900   -1    0    0    0    0 -0.00000000000E+00 -0.00000000000E+00 -0.74505805969E-08  0.93827000000E+00  0.93827000000E+00 0.  1.
     999902    2    1    2    0    0 -0.78593701834E-02 -0.10000154449E-02  0.22384689504E-01  0.10201845993E+01  0.10199082177E+01 0.  0.
     999903    2    3    3    0    0 -0.26380697546E-01  0.40277212753E-01 -0.11704414849E+00  0.12805946793E+00  0.19537132890E-01 0.  0.
         14    1    1    2    0    0  0.78593701834E-02  0.10000154449E-02 -0.22384689504E-01  0.23745400708E-01  0.00000000000E+00 0.  1.
     999901    1    3    3    0    0  0.18521327362E-01 -0.41277228198E-01  0.13942883800E+00  0.89212513136E+00  0.88000000000E+00 0. -1.
        -11    1    4    4    0    0 -0.16998673449E-01  0.20275558069E-01 -0.85812125714E-01  0.89799973243E-01  0.51100000000E-03 0. -1.
         11    1    4    4    0    0 -0.93820240971E-02  0.20001654684E-01 -0.31232022777E-01  0.38259494691E-01  0.51100000000E-03 0.  1.
</event>
<event>
 8    1  0.1109294E+005  0.1043930E+01  0.7957747E-01            NaN
         13   -1    0    0    0    0  0.00000000000E+00  0.00000000000E+00  0.74505805969E-08  0.10566000000E+00  0.10566000000E+00 0. -1.
     999900   -1    0    0    0    0 -0.00000000000E+00 -0.00000000000E+00 -0.74505805969E-08  0.93827000000E+00  0.93827000000E+00 0. -1.
     999902    2    1    2    0    0  0.21804365479E-01 -0.72228979940E-02 -0.50545272676E-02  0.10204108832E+01  0.10201398050E+01 0.  0.
     999903    2    3    3    0    0  0.20684764027E-01 -0.45512767655E-01 -0.12070342612E+00  0.13201793217E+00  0.18977509178E-01 0.  0.
         14    1    1    2    0    0 -0.21804365479E-01  0.72228979940E-02  0.50545272676E-02  0.23519116805E-01  0.00000000000E+00 0.  1.
     999901    1    3    3    0    0  0.11196014514E-02  0.38289869661E-01  0.11564889885E+00  0.88839295103E+00  0.88000000000E+00 0.  1.
        -11    1    4    4    0    0  0.17918957143E-01 -0.31810501706E-01 -0.64682548422E-01  0.74277117844E-01  0.51100000000E-03 0.  1.
         11    1    4    4    0    0  0.27658068849E-02 -0.13702265949E-01 -0.56020877699E-01  0.57740814326E-01  0.51100000000E-03 0. -1.
</event>
<event>
 8    1  0.1109294E+005  0.1043930E+01  0.7957747E-01            NaN
         13   -1    0    0    0    0  0.00000000000E+00  0.00000000000E+00  0.74505805969E-08  0.10566000000E+00  0.10566000000E+00 0.  1.
     999900   -1    0    0    0    0 -0.00000000000E+00 -0.00000000000E+00 -0.74505805969E-08  0.93827000000E+00  0.93827000000E+00 0. -1.
     999902    2    1    2    0    0 -0.17374463954E-01  0.18387650342E-01 -0.28301049826E-03  0.10186306368E+01  0.10183164127E+01 0.  0.
     999903    2    3    3    0    0  0.10549449924E+00 -0.57263784282E-01  0.35557881015E-01  0.12615963382E+00  0.15609610590E-01 0.  0.
         14    1    1    2    0    0  0.17374463954E-01 -0.18387650342E-01  0.28301049826E-03  0.25299363188E-01  0.00000000000E+00 0.  1.
     999901    1    3    3    0    0 -0.12286896320E+00  0.75651434624E-01 -0.35840891513E-01  0.89247100299E+00  0.88000000000E+00 0. -1.
        -11    1    4    4    0    0  0.22765129924E-01 -0.19991573133E-01  0.93601058847E-02  0.31714142586E-01  0.51100000000E-03 0. -1.
         11    1    4    4    0    0  0.82729369318E-01 -0.37272211148E-01  0.26197775130E-01  0.94445491234E-01  0.51100000000E-03 0.  1.
</event>
<event>
 8    1  0.1109294E+005  0.1043930E+01  0.7957747E-01            NaN
         13   -1    0    0    0    0  0.00000000000E+00  0.00000000000E+00  0.74505805969E-08  0.10566000000E+00  0.10566000000E+00 0.  1.
     999900   -1    0    0    0    0 -0.00000000000E+00 -0.00000000000E+00 -0.74505805969E-08  0.93827000000E+00  0.93827000000E+00 0.  1.
     999902    2    1    2    0    0 -0.95692167409E-04  0.15455906108E-01  0.17258124544E-01  0.10207624137E+01  0.10204994700E+01 0.  0.
     999903    2    3    3    0    0 -0.12267985207E+00 -0.32023484762E-01 -0.26462880621E-01  0.12992421568E+00  0.10206276986E-01 0.  0.
         14    1    1    2    0    0  0.95692167409E-04 -0.15455906108E-01 -0.17258124544E-01  0.23167586266E-01  0.00000000000E+00 0. -1.
     999901    1    3    3    0    0  0.12258415990E+00  0.47479390871E-01  0.43721005165E-01  0.89083819805E+00  0.88000000000E+00 0. -1.
        -11    1    4    4    0    0 -0.73065037881E-01 -0.21588367385E-01 -0.11446516806E-01  0.77044410796E-01  0.51100000000E-03 0. -1.
         11    1    4    4    0    0 -0.49614814187E-01 -0.10435117377E-01 -0.15016363816E-01  0.52879804885E-01  0.51100000000E-03 0.  1.
</event>
<event>
 8    1  0.1109294E+005  0.1043930E+01  0.7957747E-01            NaN
         13   -1    0    0    0    0  0.00000000000E+00  0.00000000000E+00  0.74505805969E-08  0.10566000000E+00  0.10566000000E+00 0.  1.
     999900   -1    0    0    0    0 -0.00000000000E+00 -0.00000000000E+00 -0.74505805969E-08  0.93827000000E+00  0.93827000000E+00 0. -1.
     999902    2    1    2    0    0 -0.86780621534E-03 -0.49474916078E-02  0.22606707598E-01  0.10207719779E+01  0.10205092537E+01 0.  0.
     999903    2    3    3    0    0  0.10498757021E+00 -0.73612460359E-01  0.22425895041E-01  0.13177238768E+00  0.20490416499E-01 0.  0.
         14    1    1    2    0    0  0.86780621534E-03  0.49474916078E-02 -0.22606707598E-01  0.23158022136E-01  0.00000000000E+00 0. -1.
     999901    1    3    3    0    0 -0.10585537642E+00  0.68664968751E-01  0.18081255735E-03  0.88899959018E+00  0.88000000000E+00 0. -1.
        -11    1    4    4    0    0  0.17119300448E-01 -0.14538837086E-01  0.11754346156E-01  0.25354960189E-01  0.51100000000E-03 0.  1.
         11    1    4    4    0    0  0.87868269761E-01 -0.59073623273E-01  0.10671548885E-01  0.10641742749E+00  0.51100000000E-03 0. -1.
</event>
<event>
 8    1  0.1109294E+005  0.1043930E+01  0.7957747E-01            NaN
         13   -1    0    0    0    0  0.00000000000E+00  0.00000000000E+00  0.74505805969E-08  0.10566000000E+00  0.10566000000E+00 0. -1.
     999900   -1    0    0    0    0 -0.00000000000E+00 -0.00000000000E+00 -0.74505805969E-08  0.93827000000E+00  0.93827000000E+00 0. -1.
     999902    2    1    2    0    0 -0.16702909631E-01 -0.10694030531E-01  0.13206934008E-01  0.10201020210E+01  0.10198236909E+01 0.  0.
     999903    2    3    3    0    0 -0.10133179295E+00  0.83816697882E-02 -0.79901113428E-01  0.13094790680E+00  0.20610233292E-01 0.  0.
         14    1    1    2    0    0  0.16702909631E-01  0.10694030531E-01 -0.13206934008E-01  0.23827979038E-01  0.00000000000E+00 0.  1.
     999901    1    3    3    0    0  0.84628883323E-01 -0.19075700319E-01  0.93108047436E-01  0.88915411416E+00  0.88000000000E+00 0.  1.
        -11    1    4    4    0    0 -0.47583216210E-01 -0.57620865099E-02 -0.32653559648E-01  0.57998967099E-01  0.51100000000E-03 0.  1.
         11    1    4    4    0    0 -0.53748576744E-01  0.14143756298E-01 -0.47247553780E-01  0.72948939701E-01  0.51100000000E-03 0. -1.
</event>
<event>
 8    1  0.1109294E+005  0.1043930E+01  0.7957747E-01            NaN
         13   -1    0    0    0    0  0.00000000000E+00  0.00000000000E+00  0.74505805969E-08  0.10566000000E+00  0.10566000000E+00 0.  1.
     999900   -1    0    0    0    0 -0.00000000000E+00 -0.00000000000E+00 -0.74505805969E-08  0.93827000000E+00  0.93827000000E+00 0. -1.
     999902    2    1    2    0    0 -0.18139348603E-01 -0.68296930659E-03 -0.15657593227E-01  0.10199578778E+01  0.10196761299E+01 0.  0.
     999903    2    3    3    0    0 -0.82380945192E-01  0.83390221385E-01  0.54116334648E-01  0.13087763111E+00  0.21443588698E-01 0.  0.
         14    1    1    2    0    0  0.18139348603E-01  0.68296930659E-03  0.15657593227E-01  0.23972122152E-01  0.00000000000E+00 0.  1.
     999901    1    3    3    0    0  0.64241596589E-01 -0.84073190692E-01 -0.69773927875E-01  0.88908024674E+00  0.88000000000E+00 0. -1.
        -11    1    4    4    0    0 -0.50596901466E-01  0.65192975507E-01  0.38327722361E-01  0.90991460675E-01  0.51100000000E-03 0.  1.
         11    1    4    4    0    0 -0.31784043727E-01  0.18197245879E-01  0.15788612287E-01  0.39886170437E-01  0.51100000000E-03 0. -1.
</event>
<event>
 8    1  0.1109294E+005  0.1043930E+01  0.7957747E-01            NaN
         13   -1    0    0    0    0  0.00000000000E+00  0.00000000000E+00  0.74505805969E-08  0.10566000000E+00  0.10566000000E+00 0. -1.
     999900   -1    0    0    0    0 -0.00000000000E+00 -0.00000000000E+00 -0.74505805969E-08  0.93827000000E+00  0.93827000000E+00 0. -1.
     999902    2    1    2    0    0  0.47188212316E-02 -0.21856349957E-01 -0.10041739299E-01  0.10194186998E+01  0.10191239776E+01 0.  0.
     999903    2    3    3    0    0 -0.15207350801E-01  0.36171040262E-01  0.11999736828E+00  0.12774925445E+00  0.19516555697E-01 0.  0.
         14    1    1    2    0    0 -0.47188212316E-02  0.21856349957E-01  0.10041739299E-01  0.24511300157E-01  0.00000000000E+00 0.  1.
     999901    1    3    3    0    0  0.19926172032E-01 -0.58027390219E-01 -0.13003910758E+00  0.89166944539E+00  0.88000000000E+00 0. -1.
        -11    1    4    4    0    0 -0.95063048293E-02  0.35683767391E-01  0.91379624733E-01  0.98560631208E-01  0.51100000000E-03 0.  1.
         11    1    4    4    0    0 -0.57010459716E-02  0.48727287049E-03  0.28617743547E-01  0.29188623241E-01  0.51100000000E-03 0. -1.
</event>
<event>
 8    1  0.1109294E+005  0.1043930E+01  0.7957747E-01            NaN
         13   -1    0    0    0    0  0.00000000000E+00  0.00000000000E+00  0.74505805969E-08  0.10566000000E+00  0.10566000000E+00 0. -1.
     999900   -1    0    0    0    0 -0.00000000000E+00 -0.00000000000E+00 -0.74505805969E-08  0.93827000000E+00  0.93827000000E+00 0. -1.
     999902    2    1    2    0    0  0.75276083018E-02 -0.21901559228E-01  0.53959716594E-02  0.10201506036E+01  0.10198734207E+01 0.  0.
     999903    2    3    3    0    0  0.50635491374E-01 -0.11678659487E+00 -0.34182652376E-01  0.13311738716E+00  0.18674134867E-01 0.  0.
         14    1    1    2    0    0 -0.75276083018E-02  0.21901559228E-01 -0.53959716594E-02  0.23779396408E-01  0.00000000000E+00 0. -1.
     999901    1    3    3    0    0 -0.43107883072E-01  0.94885035643E-01  0.39578624035E-01  0.88703321643E+00  0.88000000000E+00 0.  1.
        -11    1    4    4    0    0  0.25272405098E-01 -0.78607639430E-01 -0.25882521715E-01  0.86533354768E-01  0.51100000000E-03 0. -1.
         11    1    4    4    0    0  0.25363086276E-01 -0.38178955441E-01 -0.83001306613E-02  0.46584032393E-01  0.51100000000E-03 0.  1.
</event>
<event>
 8    1  0.1109294E+005  0.1043930E+01  0.7957747E-01            NaN
         13   -1    0    0    0    0  0.00000000000E+00  0.00000000000E+00  0.74505805969E-08  0.10566000000E+00  0.10566000000E+00 0.  1.
     999900   -1    0    0    0    0 -0.00000000000E+00 -0.00000000000E+00 -0.74505805969E-08  0.93827000000E+00  0.93827000000E+00 0.  1.
     999902    2    1    2    0    0  0.18379059796E-01 -0.31637922947E-02 -0.13609038659E-01  0.10208430913E+01  0.10205819965E+01 0.  0.
     999903    2    3    3    0    0 -0.12200645534E+00  0.14941270327E-01  0.30890205515E-01  0.12842162758E+00  0.20714558428E-01 0.  0.
         14    1    1    2    0    0 -0.18379059796E-01  0.31637922947E-02  0.13609038659E-01  0.23086908712E-01  0.00000000000E+00 0.  1.
     999901    1    3    3    0    0  0.14038551513E+00 -0.18105062622E-01 -0.44499244173E-01  0.89242146371E+00  0.88000000000E+00 0. -1.
        -11    1    4    4    0    0 -0.77983855673E-02  0.32314941841E-02  0.73953151711E-02  0.11234285896E-01  0.51100000000E-03 0.  1.
         11    1    4    4    0    0 -0.11420806977E+00  0.11709776143E-01  0.23494890344E-01  0.11718734169E+00  0.51100000000E-03 0. -1.
</event>
<event>
 8    1  0.1109294E+005  0.1043930E+01  0.7957747E-01            NaN
         13   -1    0    0    0    0  0.00000000000E+00  0.00000000000E+00  0.74505805969E-08  0.10566000000E+00  0.10566000000E+00 0. -1.
     999900   -1    0    0    0    0 -0.00000000000E+00 -0.00000000000E+00 -0.74505805969E-08  0.93827000000E+00  0.93827000000E+00 0.  1.
     999902    2    1    2    0    0  0.17786457259E-01  0.14037685320E-01 -0.57809262355E-02  0.10205455227E+01  0.10202775750E+01 0.  0.
     999903    2    3    3    0    0 -0.12564857073E+00  0.16863397263E-01 -0.13937646723E-01  0.12889081150E+00  0.18618426284E-01 0.  0.
         14    1    1    2    0    0 -0.17786457259E-01 -0.14037685320E-01  0.57809262355E-02  0.23384477311E-01  0.00000000000E+00 0. -1.
     999901    1    3    3    0    0  0.14343502799E+00 -0.28257119426E-02  0.81567204872E-02  0.89165471119E+00  0.88000000000E+00 0. -1.
        -11    1    4    4    0    0 -0.52533861151E-01  0.15661359752E-01 -0.94250712254E-02  0.55625334563E-01  0.51100000000E-03 0. -1.
         11    1    4    4    0    0 -0.73114709583E-01  0.12020375111E-02 -0.45125754973E-02  0.73265476932E-01  0.51100000000E-03 0.  1.
</event>
<event>
 8    1  0.1109294E+005  0.1043930E+01  0.7957747E-01            NaN
         13   -1    0    0    0    0  0.00000000000E+00  0.00000000000E+00  0.74505805969E-08  0.10566000000E+00  0.10566000000E+00 0.  1.
     999900   -1    0    0    0    0 -0.00000000000E+00 -0.00000000000E+00 -0.74505805969E-08  0.93827000000E+00  0.93827000000E+00 0. -1.
     999902    2    1    2    0    0  0.19516859441E-01 -0.10335171322E-01  0.86027223515E-02  0.10202291477E+01  0.10199538143E+01 0.  0.
     999903    2    3    3    0    0 -0.47569224847E-01  0.11596928461E+00  0.20378968780E-01  0.12860588740E+00  0.20309253542E-01 0.  0.
         14    1    1    2    0    0 -0.19516859441E-01  0.10335171322E-01 -0.86027223515E-02  0.23700852317E-01  0.00000000000E+00 0.  1.
     999901    1    3    3    0    0  0.67086084288E-01 -0.12630445594E+00 -0.11776246428E-01  0.89162326028E+00  0.88000000000E+00 0.  1.
        -11    1    4    4    0    0 -0.28761144054E-01  0.68489549893E-01  0.19498132552E-02  0.74310731019E-01  0.51100000000E-03 0. -1.
         11    1    4    4    0    0 -0.18808080793E-01  0.47479734722E-01  0.18429155524E-01  0.54295156383E-01  0.51100000000E-03 0.  1.
</event>
<event>
 8    1  0.1109294E+005  0.1043930E+01  0.7957747E-01            NaN
         13   -1    0    0    0    0  0.00000000000E+00  0.00000000000E+00  0.74505805969E-08  0.10566000000E+00  0.10566000000E+00 0. -1.
     999900   -1    0    0    0    0 -0.00000000000E+00 -0.00000000000E+00 -0.74505805969E-08  0.93827000000E+00  0.93827000000E+00 0.  1.
     999902    2    1    2    0    0  0.11538169379E-01 -0.70207064676E-02  0.19441628354E-01  0.10202573030E+01  0.10199826311E+01 0.  0.
     999903    2    3    3    0    0  0.12988932009E+00  0.98735167859E-02 -0.13798367746E-02  0.13192969275E+00  0.20852291795E-01 0.  0.
         14    1    1    2    0    0 -0.11538169379E-01  0.70207064676E-02 -0.19441628354E-01  0.23672697036E-01  0.00000000000E+00 0.  1.
     999901    1    3    3    0    0 -0.11835115071E+00 -0.16894223254E-01  0.20821465128E-01  0.88832761021E+00  0.88000000000E+00 0. -1.
        -11    1    4    4    0    0  0.46420316727E-01  0.40158487819E-02  0.94830306129E-02  0.47551675439E-01  0.51100000000E-03 0.  1.
         11    1    4    4    0    0  0.83469003363E-01  0.58576680040E-02 -0.10862867387E-01  0.84378017313E-01  0.51100000000E-03 0. -1.
</event>
<event>
 8    1  0.1109294E+005  0.1043930E+01  0.7957747E-01            NaN
         13   -1    0    0    0    0  0.00000000000E+00  0.00000000000E+00  0.74505805969E-08  0.10566000000E+00  0.10566000000E+00 0. -1.
     999900   -1    0    0    0    0 -0.00000000000E+00 -0.00000000000E+00 -0.74505805969E-08  0.93827000000E+00  0.93827000000E+00 0. -1.
     999902    2    1    2    0    0 -0.36056317871E-02  0.24525171371E-01  0.27436515910E-02  0.10189898269E+01  0.10186845709E+01 0.  0.
     999903    2    3    3    0    0  0.32756690553E-01  0.11751110887E+00 -0.46455472172E-01  0.13197846458E+00  0.19451034308E-01 0.  0.
         14    1    1    2    0    0  0.36056317871E-02 -0.24525171371E-01 -0.27436515910E-02  0.24940173123E-01  0.00000000000E+00 0.  1.
     999901    1    3    3    0    0 -0.36362322341E-01 -0.92985937498E-01  0.49199123763E-01  0.88701136229E+00  0.88000000000E+00 0.  1.
        -11    1    4    4    0    0  0.27211930409E-02  0.30941900741E-01 -0.18586246046E-01  0.36201046616E-01  0.51100000000E-03 0.  1.
         11    1    4    4    0    0  0.30035497512E-01  0.86569208128E-01 -0.27869226126E-01  0.95777417968E-01  0.51100000000E-03 0. -1.
</event>
<event>
 8    1  0.1109294E+005  0.1043930E+01  0.7957747E-01            NaN
         13   -1    0    0    0    0  0.00000000000E+00  0.00000000000E+00  0.74505805969E-08  0.10566000000E+00  0.10566000000E+00 0. -1.
     999900   -1    0    0    0    0 -0.00000000000E+00 -0.00000000000E+00 -0.74505805969E-08  0.93827000000E+00  0.93827000000E+00 0.  1.
     999902    2    1    2    0    0 -0.23013745903E-01  0.41700231365E-02 -0.34730298995E-02  0.10202850528E+01  0.10200110320E+01 0.  0.
     999903    2    3    3    0    0 -0.43814527800E-01  0.12081376929E+00  0.22735513401E-01  0.13195779111E+00  0.19500650450E-01 0.  0.
         14    1    1    2    0    0  0.23013745903E-01 -0.41700231365E-02  0.34730298995E-02  0.23644947243E-01  0.00000000000E+00 0. -1.
     999901    1    3    3    0    0  0.20800781897E-01 -0.11664374615E+00 -0.26208543300E-01  0.88832726165E+00  0.88000000000E+00 0.  1.
        -11    1    4    4    0    0 -0.44228023246E-01  0.10296891836E+00  0.18214572297E-01  0.11353742974E+00  0.51100000000E-03 0. -1.
         11    1    4    4    0    0  0.41349544553E-03  0.17844850936E-01  0.45209411042E-02  0.18420361367E-01  0.51100000000E-03 0.  1.
</event>
<event>
 8    1  0.1109294E+005  0.1043930E+01  0.7957747E-01            NaN
         13   -1    0    0    0    0  0.00000000000E+00  0.00000000000E+00  0.74505805969E-08  0.10566000000E+00  0.10566000000E+00 0. -1.
     999900   -1    0    0    0    0 -0.00000000000E+00 -0.00000000000E+00 -0.74505805969E-08  0.93827000000E+00  0.93827000000E+00 0.  1.
     999902    2    1    2    0    0  0.22557923255E-01  0.51717096580E-02 -0.50637900582E-02  0.10202393172E+01  0.10199642228E+01 0.  0.
     999903    2    3    3    0    0 -0.72838888832E-01 -0.58831219189E-01 -0.86508412595E-01  0.12904340539E+00  0.20046918678E-01 0.  0.
         14    1    1    2    0    0 -0.22557923255E-01 -0.51717096580E-02  0.50637900582E-02  0.23690682812E-01  0.00000000000E+00 0.  1.
     999901    1    3    3    0    0  0.95396812087E-01  0.64002928847E-01  0.81444622537E-01  0.89119591179E+00  0.88000000000E+00 0. -1.
        -11    1    4    4    0    0 -0.20900126276E-01 -0.77273018191E-02 -0.14440101825E-01  0.26557562642E-01  0.51100000000E-03 0.  1.
         11    1    4    4    0    0 -0.51938762556E-01 -0.51103917370E-01 -0.72068310770E-01  0.10248584275E+00  0.51100000000E-03 0. -1.
</event>
<event>
 8    1  0.1109294E+005  0.1043930E+01  0.7957747E-01            NaN
         13   -1    0    0    0    0  0.00000000000E+00  0.00000000000E+00  0.74505805969E-08  0.10566000000E+00  0.10566000000E+00 0.  1.
     999900   -1    0    0    0    0 -0.00000000000E+00 -0.00000000000E+00 -0.74505805969E-08  0.93827000000E+00  0.93827000000E+00 0. -1.
     999902    2    1    2    0    0  0.20285135045E-01  0.11596988821E-01 -0.43804622061E-02  0.10201567944E+01  0.10198797576E+01 0.  0.
     999903    2    3    3    0    0 -0.86813148584E-01  0.13140632593E-01  0.91528522329E-01  0.12848927877E+00  0.20562717862E-01 0.  0.
         14    1    1    2    0    0 -0.20285135045E-01 -0.11596988821E-01  0.43804622061E-02  0.23773205561E-01  0.00000000000E+00 0.  1.
     999901    1    3    3    0    0  0.10709828363E+00 -0.15436437723E-02 -0.95908984535E-01  0.89166751567E+00  0.88000000000E+00 0. -1.
        -11    1    4    4    0    0 -0.46117130521E-01  0.40435217773E-02  0.34025034467E-01  0.57455233768E-01  0.51100000000E-03 0. -1.
         11    1    4    4    0    0 -0.40696018063E-01  0.90971108159E-02  0.57503487863E-01  0.71034044998E-01  0.51100000000E-03 0.  1.
</event>
<event>
 7    1  0.1109294E+005  0.1043930E+01  0.7957747E-01            NaN
         13   -1    0    0    0    0  0.00000000000E+00  0.00000000000E+00  0.74505805969E-08  0.10566000000E+00  0.10566000000E+00 0.  1.
     999900   -1    0    0    0    0 -0.00000000000E+00 -0.00000000000E+00 -0.74505805969E-08  0.93827000000E+00  0.93827000000E+00 0. -1.
     999902    2    1    2    0    0  0.56373291499E-02 -0.23131727632E-01  0.11192663053E-02  0.10200949615E+01  0.10198164646E+01 0.  0.
         14    1    1    2    0    0 -0.56373291499E-02  0.23131727632E-01 -0.11192663053E-02  0.23835038499E-01  0.00000000000E+00 0. -1.
     999901    1    3    3    0    0  0.84699984653E-01  0.47217165285E-01 -0.76778566386E-01  0.88864981649E+00  0.88000000000E+00 0. -1.
        -11    1    3    3    0    0 -0.70333753499E-01 -0.61626573391E-01  0.69420992352E-01  0.11646547441E+00  0.51100000000E-03 0. -1.
         11    1    3    3    0    0 -0.87289020042E-02 -0.87223195256E-02  0.84768403386E-02  0.14979670598E-01  0.51100000000E-03 0.  1.
</event>
<event>
 8    1  0.1109294E+005  0.1043930E+01  0.7957747E-01            NaN
         13   -1    0    0    0    0  0.00000000000E+00  0.00000000000E+00  0.74505805969E-08  0.10566000000E+00  0.10566000000E+00 0.  1.
     999900   -1    0    0    0    0 -0.00000000000E+00 -0.00000000000E+00 -0.74505805969E-08  0.93827000000E+00  0.93827000000E+00 0. -1.
     999902    2    1    2    0    0 -0.10853464953E-01 -0.12691026902E-01 -0.16836643464E-01  0.10202164505E+01  0.10199408186E+01 0.  0.
     999903    2    3    3    0    0 -0.17248662794E-02  0.12742180976E+00 -0.25050778609E-02  0.12896994586E+00  0.19689559543E-01 0.  0.
         14    1    1    2    0    0  0.10853464953E-01  0.12691026902E-01  0.16836643464E-01  0.23713549469E-01  0.00000000000E+00 0. -1.
     999901    1    3    3    0    0 -0.91285986732E-02 -0.14011283666E+00 -0.14331565603E-01  0.89124650467E+00  0.88000000000E+00 0. -1.
        -11    1    4    4    0    0 -0.83877028986E-02  0.81700439009E-01  0.44024773197E-02  0.82249366087E-01  0.51100000000E-03 0.  1.
         11    1    4    4    0    0  0.66628366192E-02  0.45721370749E-01 -0.69075551806E-02  0.46720579776E-01  0.51100000000E-03 0. -1.
</event>
<event>
 8    1  0.1109294E+005  0.1043930E+01  0.7957747E-01            NaN
         13   -1    0    0    0    0  0.00000000000E+00  0.00000000000E+00  0.74505805969E-08  0.10566000000E+00  0.10566000000E+00 0.  1.
     999900   -1    0    0    0    0 -0.00000000000E+00 -0.00000000000E+00 -0.74505805969E-08  0.93827000000E+00  0.93827000000E+00 0.  1.
     999902    2    1    2    0    0 -0.29979168307E-01  0.58824608638E-02  0.14983675204E-02  0.10133424374E+01  0.10128806922E+01 0.  0.
     999903    2    3    3    0    0  0.74593022982E-01 -0.91688095468E-01  0.20478275637E-01  0.12159382176E+00  0.19871381153E-01 0.  0.
         14    1    1    2    0    0  0.29979168307E-01 -0.58824608638E-02 -0.14983675204E-02  0.30587562561E-01  0.00000000000E+00 0. -1.
     999901    1    3    3    0    0 -0.10457219129E+00  0.97570556331E-01 -0.18979908116E-01  0.89174861568E+00  0.88000000000E+00 0.  1.
        -11    1    4    4    0    0  0.33180711774E-01 -0.55722687055E-01  0.14116503590E-01  0.66374048250E-01  0.51100000000E-03 0. -1.
         11    1    4    4    0    0  0.41412311208E-01 -0.35965408413E-01  0.63617720461E-02  0.55219773510E-01  0.51100000000E-03 0.  1.
</event>
<event>
 8    1  0.1109294E+005  0.1043930E+01  0.7957747E-01            NaN
         13   -1    0    0    0    0  0.00000000000E+00  0.00000000000E+00  0.74505805969E-08  0.10566000000E+00  0.10566000000E+00 0.  1.
     999900   -1    0    0    0    0 -0.00000000000E+00 -0.00000000000E+00 -0.74505805969E-08  0.93827000000E+00  0.93827000000E+00 0.  1.
     999902    2    1    2    0    0  0.13086649860E-01  0.18596802607E-01 -0.56489694456E-02  0.10204989879E+01  0.10202299604E+01 0.  0.
     999903    2    3    3    0    0  0.12770988263E+00 -0.24997343759E-02  0.27800992357E-01  0.13218460138E+00  0.19591091703E-01 0.  0.
         14    1    1    2    0    0 -0.13086649860E-01 -0.18596802607E-01  0.56489694456E-02  0.23431012090E-01  0.00000000000E+00 0.  1.
     999901    1    3    3    0    0 -0.11462323277E+00  0.21096536983E-01 -0.33449961802E-01  0.88831438653E+00  0.88000000000E+00 0.  1.
        -11    1    4    4    0    0  0.37446630078E-01 -0.34449531760E-02  0.16996776778E-01  0.41270683886E-01  0.51100000000E-03 0. -1.
         11    1    4    4    0    0  0.90263252551E-01  0.94521880012E-03  0.10804215579E-01  0.90913917499E-01  0.51100000000E-03 0.  1.
</event>
<event>
 8    1  0.1109294E+005  0.1043930E+01  0.7957747E-01            NaN
         13   -1    0    0    0    0  0.00000000000E+00  0.00000000000E+00  0.74505805969E-08  0.10566000000E+00  0.10566000000E+00 0.  1.
     999900   -1    0    0    0    0 -0.00000000000E+00 -0.00000000000E+00 -0.74505805969E-08  0.93827000000E+00  0.93827000000E+00 0. -1.
     999902    2    1    2    0    0 -0.21982950290E-01  0.15572834973E-01  0.22802316223E-02  0.10168936772E+01  0.10165342041E+01 0.  0.
     999903    2    3    3    0    0 -0.24465970706E-01  0.12377060402E+00 -0.22995828066E-01  0.12990337187E+00  0.20696177722E-01 0.  0.
         14    1    1    2    0    0  0.21982950290E-01 -0.15572834973E-01 -0.22802316223E-02  0.27036322768E-01  0.00000000000E+00 0.  1.
     999901    1    3    3    0    0  0.24830204157E-02 -0.10819776905E+00  0.25276059689E-01  0.88699030536E+00  0.88000000000E+00 0.  1.
        -11    1    4    4    0    0 -0.10930113790E-01  0.45294602343E-01 -0.18514422025E-01  0.50140934702E-01  0.51100000000E-03 0.  1.
         11    1    4    4    0    0 -0.13535856916E-01  0.78476001676E-01 -0.44814060417E-02  0.79762437166E-01  0.51100000000E-03 0. -1.
</event>
<event>
 8    1  0.1109294E+005  0.1043930E+01  0.7957747E-01            NaN
         13   -1    0    0    0    0  0.00000000000E+00  0.00000000000E+00  0.74505805969E-08  0.10566000000E+00  0.10566000000E+00 0. -1.
     999900   -1    0    0    0    0 -0.00000000000E+00 -0.00000000000E+00 -0.74505805969E-08  0.93827000000E+00  0.93827000000E+00 0.  1.
     999902    2    1    2    0    0  0.12724423143E-01  0.15974472889E-01  0.19682674977E-01  0.10155662481E+01  0.10151700852E+01 0.  0.
     999903    2    3    3    0    0 -0.88109273484E-02  0.64803758029E-01 -0.10479996222E+00  0.12520452532E+00  0.20395626566E-01 0.  0.
         14    1    1    2    0    0 -0.12724423143E-01 -0.15974472889E-01 -0.19682674977E-01  0.28363751915E-01  0.00000000000E+00 0.  1.
     999901    1    3    3    0    0  0.21535350491E-01 -0.48829285140E-01  0.12448263720E+00  0.89036172277E+00  0.88000000000E+00 0. -1.
        -11    1    4    4    0    0  0.16432192593E-02  0.30599394533E-01 -0.63899566862E-01  0.70869167354E-01  0.51100000000E-03 0. -1.
         11    1    4    4    0    0 -0.10454146608E-01  0.34204363497E-01 -0.40900395358E-01  0.54335357963E-01  0.51100000000E-03 0.  1.
</event>
<event>
 8    1  0.1109294E+005  0.1043930E+01  0.7957747E-01            NaN
         13   -1    0    0    0    0  0.00000000000E+00  0.00000000000E+00  0.74505805969E-08  0.10566000000E+00  0.10566000000E+00 0. -1.
     999900   -1    0    0    0    0 -0.00000000000E+00 -0.00000000000E+00 -0.74505805969E-08  0.93827000000E+00  0.93827000000E+00 0. -1.
     999902    2    1    2    0    0 -0.49218571947E-03  0.14437371967E-01  0.20187547372E-01  0.10191062810E+01  0.10188039041E+01 0.  0.
     999903    2    3    3    0    0  0.16578575073E-01 -0.37217183971E-01  0.12333303688E+00  0.13141343095E+00  0.19962061837E-01 0.  0.
         14    1    1    2    0    0  0.49218571947E-03 -0.14437371967E-01 -0.20187547372E-01  0.24823719000E-01  0.00000000000E+00 0.  1.
     999901    1    3    3    0    0 -0.17070760792E-01  0.51654555938E-01 -0.10314548951E+00  0.88769285005E+00  0.88000000000E+00 0.  1.
        -11    1    4    4    0    0  0.15207386399E-01 -0.10813619748E-01  0.44249459940E-01  0.48025772239E-01  0.51100000000E-03 0. -1.
         11    1    4    4    0    0  0.13711886739E-02 -0.26403564223E-01  0.79083576944E-01  0.83387658711E-01  0.51100000000E-03 0.  1.
</event>
<event>
 8    1  0.1109294E+005  0.1043930E+01  0.7957747E-01            NaN
         13   -1    0    0    0    0  0.00000000000E+00  0.00000000000E+00  0.74505805969E-08  0.10566000000E+00  0.10566000000E+00 0. -1.
     999900   -1    0    0    0    0 -0.00000000000E+00 -0.00000000000E+00 -0.74505805969E-08  0.93827000000E+00  0.93827000000E+00 0.  1.
     999902    2    1    2    0    0 -0.26938165902E-02  0.21432307365E-01 -0.82800492448E-02  0.10207964818E+01  0.10205343197E+01 0.  0.
     999903    2    3    3    0    0 -0.36498070824E-01 -0.12104426775E+00 -0.12748207327E-01  0.12868535284E+00  0.20336649536E-01 0.  0.
         14    1    1    2    0    0  0.26938165902E-02 -0.21432307365E-01  0.82800492448E-02  0.23133518157E-01  0.00000000000E+00 0. -1.
     999901    1    3    3    0    0  0.33804254234E-01  0.14247657512E+00  0.44681580818E-02  0.89211112901E+00  0.88000000000E+00 0. -1.
        -11    1    4    4    0    0 -0.10889788335E-01 -0.65961212729E-01 -0.12974854712E-02  0.66868629896E-01  0.51100000000E-03 0. -1.
         11    1    4    4    0    0 -0.25608282489E-01 -0.55083055026E-01 -0.11450721855E-01  0.61816722940E-01  0.51100000000E-03 0.  1.
</event>
<event>
 8    1  0.1109294E+005  0.1043930E+01  0.7957747E-01            NaN
         13   -1    0    0    0    0  0.00000000000E+00  0.00000000000E+00  0.74505805969E-08  0.10566000000E+00  0.10566000000E+00 0.  1.
     999900   -1    0    0    0    0 -0.00000000000E+00 -0.00000000000E+00 -0.74505805969E-08  0.93827000000E+00  0.93827000000E+00 0. -1.
     999902    2    1    2    0    0 -0.21040665875E-01 -0.32951988348E-02 -0.10132366299E-01  0.10203454118E+01  0.10200728045E+01 0.  0.
     999903    2    3    3    0    0 -0.57335865584E-01  0.93838167764E-01 -0.70567555133E-01  0.13219866460E+00  0.20092383476E-01 0.  0.
         14    1    1    2    0    0  0.21040665875E-01  0.32951988348E-02  0.10132366299E-01  0.23584588245E-01  0.00000000000E+00 0.  1.
     999901    1    3    3    0    0  0.36295199708E-01 -0.97133366599E-01  0.60435188833E-01  0.88814674715E+00  0.88000000000E+00 0.  1.
        -11    1    4    4    0    0 -0.29802496740E-01  0.41744978540E-01 -0.43924126104E-01  0.67530896783E-01  0.51100000000E-03 0.  1.
         11    1    4    4    0    0 -0.27533368843E-01  0.52093189224E-01 -0.26643429028E-01  0.64667767820E-01  0.51100000000E-03 0. -1.
</event>
<event>
 8    1  0.1109294E+005  0.1043930E+01  0.7957747E-01            NaN
         13   -1    0    0    0    0  0.00000000000E+00  0.00000000000E+00  0.74505805969E-08  0.10566000000E+00  0.10566000000E+00 0. -1.
     999900   -1    0    0    0    0 -0.00000000000E+00 -0.00000000000E+00 -0.74505805969E-08  0.93827000000E+00  0.93827000000E+00 0.  1.
     999902    2    1    2    0    0 -0.95031237397E-02  0.97953144428E-02 -0.19566909373E-01  0.10200737327E+01  0.10197947336E+01 0.  0.
     999903    2    3    3    0    0  0.74008811172E-01 -0.80712713029E-01 -0.67566913838E-01  0.13020298552E+00  0.19891792686E-01 0.  0.
         14    1    1    2    0    0  0.95031237397E-02 -0.97953144428E-02  0.19566909373E-01  0.23856267274E-01  0.00000000000E+00 0. -1.
     999901    1    3    3    0    0 -0.83511934912E-01  0.90508027472E-01  0.48000004466E-01  0.88987074721E+00  0.88000000000E+00 0.  1.
        -11    1    4    4    0    0  0.22698701818E-01 -0.26651850368E-01 -0.11219561845E-01  0.36765362520E-01  0.51100000000E-03 0.  1.
         11    1    4    4    0    0  0.51310109354E-01 -0.54060862661E-01 -0.56347351993E-01  0.93437622997E-01  0.51100000000E-03 0. -1.
</event>
<event>
 8    1  0.1109294E+005  0.1043930E+01  0.7957747E-01            NaN
         13   -1    0    0    0    0  0.00000000000E+00  0.00000000000E+00  0.74505805969E-08  0.10566000000E+00  0.10566000000E+00 0.  1.
     999900   -1    0    0    0    0 -0.00000000000E+00 -0.00000000000E+00 -0.74505805969E-08  0.93827000000E+00  0.93827000000E+00 0. -1.
     999902    2    1    2    0    0  0.78268224853E-02  0.18141662312E-01  0.13390150231E-01  0.10200621307E+01  0.10197828569E+01 0.  0.
     999903    2    3    3    0    0  0.10156715134E+00 -0.73636401356E-01 -0.24387096051E-01  0.12953555470E+00  0.21131106044E-01 0.  0.
         14    1    1    2    0    0 -0.78268224853E-02 -0.18141662312E-01 -0.13390150231E-01  0.23867869299E-01  0.00000000000E+00 0. -1.
     999901    1    3    3    0    0 -0.93740328853E-01  0.91778063667E-01  0.37777246283E-01  0.89052657600E+00  0.88000000000E+00 0.  1.
        -11    1    4    4    0    0  0.15926428407E-01 -0.49602142655E-02  0.14729178580E-02  0.16753669908E-01  0.51100000000E-03 0. -1.
         11    1    4    4    0    0  0.85640722931E-01 -0.68676187090E-01 -0.25860013909E-01  0.11278188479E+00  0.51100000000E-03 0.  1.
</event>
<event>
 8    1  0.1109294E+005  0.1043930E+01  0.7957747E-01            NaN
         13   -1    0    0    0    0  0.00000000000E+00  0.00000000000E+00  0.74505805969E-08  0.10566000000E+00  0.10566000000E+00 0. -1.
     999900   -1    0    0    0    0 -0.00000000000E+00 -0.00000000000E+00 -0.74505805969E-08  0.93827000000E+00  0.93827000000E+00 0.  1.
     999902    2    1    2    0    0 -0.85592815740E-02  0.88269869114E-02 -0.19837409946E-01  0.10205911947E+01  0.10203243048E+01 0.  0.
     999903    2    3    3    0    0  0.35457540359E-01  0.11212307335E+00  0.52926882165E-01  0.13047760404E+00  0.19857732901E-01 0.  0.
         14    1    1    2    0    0  0.85592815740E-02 -0.88269869114E-02  0.19837409946E-01  0.23338805290E-01  0.00000000000E+00 0. -1.
     999901    1    3    3    0    0 -0.44016821933E-01 -0.10329608643E+00 -0.72764292111E-01  0.89011359067E+00  0.88000000000E+00 0. -1.
        -11    1    4    4    0    0  0.13562711390E-01  0.38082065356E-01  0.28607224015E-01  0.49526005581E-01  0.51100000000E-03 0.  1.
         11    1    4    4    0    0  0.21894828970E-01  0.74041007990E-01  0.24319658151E-01  0.80951598461E-01  0.51100000000E-03 0. -1.
</event>
<event>
 8    1  0.1109294E+005  0.1043930E+01  0.7957747E-01            NaN
         13   -1    0    0    0    0  0.00000000000E+00  0.00000000000E+00  0.74505805969E-08  0.10566000000E+00  0.10566000000E+00 0. -1.
     999900   -1    0    0    0    0 -0.00000000000E+00 -0.00000000000E+00 -0.74505805969E-08  0.93827000000E+00  0.93827000000E+00 0.  1.
     999902    2    1    2    0    0  0.16096481035E-01  0.59385966950E-02  0.15871443969E-01  0.10205576581E+01  0.10202899917E+01 0.  0.
     999903    2    3    3    0    0  0.41990073284E-02  0.44113206768E-01  0.12158450867E+00  0.13332933191E+00  0.32098462967E-01 0.  0.
         14    1    1    2    0    0 -0.16096481035E-01 -0.59385966950E-02 -0.15871443969E-01  0.23372341904E-01  0.00000000000E+00 0.  1.
     999901    1    3    3    0    0  0.11897473706E-01 -0.38174610073E-01 -0.10571306470E+00  0.88722832618E+00  0.88000000000E+00 0.  1.
        -11    1    4    4    0    0  0.18457843584E-02  0.22246035130E-01  0.10016974851E+00  0.10262812791E+00  0.51100000000E-03 0.  1.
         11    1    4    4    0    0  0.23532229700E-02  0.21867171638E-01  0.21414760159E-01  0.30701204006E-01  0.51100000000E-03 0. -1.
</event>
<event>
 8    1  0.1109294E+005  0.1043930E+01  0.7957747E-01            NaN
         13   -1    0    0    0    0  0.00000000000E+00  0.00000000000E+00  0.74505805969E-08  0.10566000000E+00  0.10566000000E+00 0.  1.
     999900   -1    0    0    0    0 -0.00000000000E+00 -0.00000000000E+00 -0.74505805969E-08  0.93827000000E+00  0.93827000000E+00 0. -1.
     999902    2    1    2    0    0  0.22356632855E-01 -0.46220153411E-02 -0.95354863590E-03  0.10210806824E+01  0.10208249942E+01 0.  0.
     999903    2    3    3    0    0 -0.66905924289E-01  0.36300279644E-01  0.10308792809E+00  0.12952750555E+00  0.18871692244E-01 0.  0.
         14    1    1    2    0    0 -0.22356632855E-01  0.46220153411E-02  0.95354863590E-03  0.22849317570E-01  0.00000000000E+00 0.  1.
     999901    1    3    3    0    0  0.89262557144E-01 -0.40922294985E-01 -0.10404147672E+00  0.89155317688E+00  0.88000000000E+00 0. -1.
        -11    1    4    4    0    0 -0.57718728116E-01  0.28864136236E-01  0.96188469106E-01  0.11583208815E+00  0.51100000000E-03 0. -1.
         11    1    4    4    0    0 -0.91871961728E-02  0.74361434076E-02  0.68994589819E-02  0.13695417392E-01  0.51100000000E-03 0.  1.
</event>
<event>
 8    1  0.1109294E+005  0.1043930E+01  0.7957747E-01            NaN
         13   -1    0    0    0    0  0.00000000000E+00  0.00000000000E+00  0.74505805969E-08  0.10566000000E+00  0.10566000000E+00 0. -1.
     999900   -1    0    0    0    0 -0.00000000000E+00 -0.00000000000E+00 -0.74505805969E-08  0.93827000000E+00  0.93827000000E+00 0.  1.
     999902    2    1    2    0    0 -0.17666995686E-01 -0.29621751814E-02  0.14909273794E-01  0.10206236991E+01  0.10203575606E+01 0.  0.
     999903    2    3    3    0    0  0.64353687482E-01  0.10501603836E+00 -0.33331501689E-01  0.12893212711E+00  0.18513211291E-01 0.  0.
         14    1    1    2    0    0  0.17666995686E-01  0.29621751814E-02 -0.14909273794E-01  0.23306300939E-01  0.00000000000E+00 0.  1.
     999901    1    3    3    0    0 -0.82020683169E-01 -0.10797821354E+00  0.48240775483E-01  0.89169157195E+00  0.88000000000E+00 0. -1.
        -11    1    4    4    0    0  0.47969129988E-01  0.61746128309E-01 -0.18606111088E-01  0.80374562417E-01  0.51100000000E-03 0. -1.
         11    1    4    4    0    0  0.16384557495E-01  0.43269910047E-01 -0.14725390601E-01  0.48557564695E-01  0.51100000000E-03 0.  1.
</event>
<event>
 8    1  0.1109294E+005  0.1043930E+01  0.7957747E-01            NaN
         13   -1    0    0    0    0  0.00000000000E+00  0.00000000000E+00  0.74505805969E-08  0.10566000000E+00  0.10566000000E+00 0.  1.
     999900   -1    0    0    0    0 -0.00000000000E+00 -0.00000000000E+00 -0.74505805969E-08  0.93827000000E+00  0.93827000000E+00 0. -1.
     999902    2    1    2    0    0 -0.67889454317E-02 -0.55074072249E-02  0.23278842797E-01  0.10190638415E+01  0.10187604170E+01 0.  0.
     999903    2    3    3    0    0 -0.38472049218E-01  0.49742965157E-01 -0.10836161310E+00  0.12699566458E+00  0.20765319046E-01 0.  0.
         14    1    1    2    0    0  0.67889454317E-02  0.55074072249E-02 -0.23278842797E-01  0.24866158456E-01  0.00000000000E+00 0. -1.
     999901    1    3    3    0    0  0.31683103786E-01 -0.55250372382E-01  0.13164045590E+00  0.89206817696E+00  0.88000000000E+00 0.  1.
        -11    1    4    4    0    0 -0.80366483498E-02  0.95155846898E-02 -0.40906842520E-01  0.42764061484E-01  0.51100000000E-03 0. -1.
         11    1    4    4    0    0 -0.30435400868E-01  0.40227380467E-01 -0.67454770585E-01  0.84231603100E-01  0.51100000000E-03 0.  1.
</event>
<event>
 8    1  0.1109294E+005  0.1043930E+01  0.7957747E-01            NaN
         13   -1    0    0    0    0  0.00000000000E+00  0.00000000000E+00  0.74505805969E-08  0.10566000000E+00  0.10566000000E+00 0. -1.
     999900   -1    0    0    0    0 -0.00000000000E+00 -0.00000000000E+00 -0.74505805969E-08  0.93827000000E+00  0.93827000000E+00 0. -1.
     999902    2    1    2    0    0 -0.76835777589E-02 -0.34019025050E-02  0.20764004011E-01  0.10215301301E+01  0.10212845111E+01 0.  0.
     999903    2    3    3    0    0  0.67865796111E-01 -0.83955595849E-02 -0.10745707950E+00  0.12902058353E+00  0.20567822861E-01 0.  0.
         14    1    1    2    0    0  0.76835777589E-02  0.34019025050E-02 -0.20764004011E-01  0.22399869875E-01  0.00000000000E+00 0.  1.
     999901    1    3    3    0    0 -0.75549373870E-01  0.49936570799E-02  0.12822108351E+00  0.89250954659E+00  0.88000000000E+00 0.  1.
        -11    1    4    4    0    0  0.12438439874E-01  0.51508109496E-02 -0.13356156967E-01  0.18970864236E-01  0.51100000000E-03 0.  1.
         11    1    4    4    0    0  0.55427356237E-01 -0.13546370535E-01 -0.94100922536E-01  0.11004971930E+00  0.51100000000E-03 0. -1.
</event>
<event>
 8    1  0.1109294E+005  0.1043930E+01  0.7957747E-01            NaN
         13   -1    0    0    0    0  0.00000000000E+00  0.00000000000E+00  0.74505805969E-08  0.10566000000E+00  0.10566000000E+00 0.  1.
     999900   -1    0    0    0    0 -0.00000000000E+00 -0.00000000000E+00 -0.74505805969E-08  0.93827000000E+00  0.93827000000E+00 0.  1.
     999902    2    1    2    0    0 -0.14183385349E-01  0.17313936366E-02  0.19392207258E-01  0.10198421639E+01  0.10195576568E+01 0.  0.
     999903    2    3    3    0    0 -0.30240721644E-01  0.11886566432E+00 -0.38478995356E-01  0.13005154165E+00  0.19728735423E-01 0.  0.
         14    1    1    2    0    0  0.14183385349E-01 -0.17313936366E-02 -0.19392207258E-01  0.24087836063E-01  0.00000000000E+00 0.  1.
     999901    1    3    3    0    0  0.16057336295E-01 -0.11713427069E+00  0.57871202614E-01  0.88979062229E+00  0.88000000000E+00 0. -1.
        -11    1    4    4    0    0 -0.12835143488E-01  0.19587623550E-01 -0.79435294881E-02  0.24734119884E-01  0.51100000000E-03 0. -1.
         11    1    4    4    0    0 -0.17405578156E-01  0.99278040773E-01 -0.30535465868E-01  0.10531742177E+00  0.51100000000E-03 0.  1.
</event>
<event>
 8    1  0.1109294E+005  0.1043930E+01  0.7957747E-01            NaN
         13   -1    0    0    0    0  0.00000000000E+00  0.00000000000E+00  0.74505805969E-08  0.10566000000E+00  0.10566000000E+00 0. -1.
     999900   -1    0    0    0    0 -0.00000000000E+00 -0.00000000000E+00 -0.74505805969E-08  0.93827000000E+00  0.93827000000E+00 0.  1.
     999902    2    1    2    0    0 -0.20579565565E-01  0.77938765048E-02 -0.42141840670E-02  0.10215241441E+01  0.10212783923E+01 0.  0.
     999903    2    3    3    0    0 -0.10257917825E+00  0.16124270992E-01  0.81609171941E-01  0.13351570927E+00  0.19593564048E-01 0.  0.
         14    1    1    2    0    0  0.20579565565E-01 -0.77938765048E-02  0.42141840670E-02  0.22405855868E-01  0.00000000000E+00 0. -1.
     999901    1    3    3    0    0  0.81999612680E-01 -0.83303944877E-02 -0.85823356008E-01  0.88800843486E+00  0.88000000000E+00 0.  1.
        -11    1    4    4    0    0 -0.50058908997E-01 -0.13240420266E-02  0.34219959906E-01  0.60654053733E-01  0.51100000000E-03 0. -1.
         11    1    4    4    0    0 -0.52520269248E-01  0.17448313019E-01  0.47389212034E-01  0.72861655535E-01  0.51100000000E-03 0.  1.
</event>
<event>
 8    1  0.1109294E+005  0.1043930E+01  0.7957747E-01            NaN
         13   -1    0    0    0    0  0.00000000000E+00  0.00000000000E+00  0.74505805969E-08  0.10566000000E+00  0.10566000000E+00 0. -1.
     999900   -1    0    0    0    0 -0.00000000000E+00 -0.00000000000E+00 -0.74505805969E-08  0.93827000000E+00  0.93827000000E+00 0. -1.
     999902    2    1    2    0    0 -0.15310210381E-01  0.13306462885E-01  0.15580941886E-01  0.10183520750E+01  0.10180308043E+01 0.  0.
     999903    2    3    3    0    0 -0.30565873029E-02  0.11901467451E+00 -0.45496486743E-01  0.12983936854E+00  0.24789026625E-01 0.  0.
         14    1    1    2    0    0  0.15310210381E-01 -0.13306462885E-01 -0.15580941886E-01  0.25577924984E-01  0.00000000000E+00 0.  1.
     999901    1    3    3    0    0 -0.12253623078E-01 -0.10570821163E+00  0.61077428629E-01  0.88851270648E+00  0.88000000000E+00 0.  1.
        -11    1    4    4    0    0 -0.22201513074E-03  0.85302613522E-01 -0.20391203783E-01  0.87707738981E-01  0.51100000000E-03 0.  1.
         11    1    4    4    0    0 -0.28345721721E-02  0.33712060992E-01 -0.25105282960E-01  0.42131629558E-01  0.51100000000E-03 0. -1.
</event>
<event>
 8    1  0.1109294E+005  0.1043930E+01  0.7957747E-01            NaN
         13   -1    0    0    0    0  0.00000000000E+00  0.00000000000E+00  0.74505805969E-08  0.10566000000E+00  0.10566000000E+00 0. -1.
     999900   -1    0    0    0    0 -0.00000000000E+00 -0.00000000000E+00 -0.74505805969E-08  0.93827000000E+00  0.93827000000E+00 0.  1.
     999902    2    1    2    0    0  0.67175265190E-02 -0.16355909176E-01  0.13499473941E-01  0.10216841751E+01  0.10214419597E+01 0.  0.
     999903    2    3    3    0    0 -0.55901866771E-01 -0.36452246229E-01  0.11421717391E+00  0.13350113866E+00  0.17977937720E-01 0.  0.
         14    1    1    2    0    0 -0.67175265190E-02  0.16355909176E-01 -0.13499473941E-01  0.22245824871E-01  0.00000000000E+00 0.  1.
     999901    1    3    3    0    0  0.62619393290E-01  0.20096337053E-01 -0.10071769997E+00  0.88818303647E+00  0.88000000000E+00 0.  1.
        -11    1    4    4    0    0 -0.22122968988E-01 -0.13895037650E-01  0.62470164641E-01  0.67714698696E-01  0.51100000000E-03 0.  1.
         11    1    4    4    0    0 -0.33778897783E-01 -0.22557208578E-01  0.51747009269E-01  0.65786439968E-01  0.51100000000E-03 0. -1.
</event>
<event>
 8    1  0.1109294E+005  0.1043930E+01  0.7957747E-01            NaN
         13   -1    0    0    0    0  0.00000000000E+00  0.00000000000E+00  0.74505805969E-08  0.10566000000E+00  0.10566000000E+00 0.  1.
     999900   -1    0    0    0    0 -0.00000000000E+00 -0.00000000000E+00 -0.74505805969E-08  0.93827000000E+00  0.93827000000E+00 0.  1.
     999902    2    1    2    0    0  0.73341562061E-02 -0.13611389842E-01  0.15669945751E-01  0.10219162093E+01  0.10216790748E+01 0.  0.
     999903    2    3    3    0    0  0.60308376748E-01 -0.11794213967E+00  0.15705567479E-02  0.13405925790E+00  0.20541892885E-01 0.  0.
         14    1    1    2    0    0 -0.73341562061E-02  0.13611389842E-01 -0.15669945751E-01  0.22013790690E-01  0.00000000000E+00 0. -1.
     999901    1    3    3    0    0 -0.52974220542E-01  0.10433074983E+00  0.14099389003E-01  0.88785695141E+00  0.88000000000E+00 0.  1.
        -11    1    4    4    0    0  0.14365874465E-01 -0.49750400836E-01  0.21751928884E-02  0.51831200232E-01  0.51100000000E-03 0.  1.
         11    1    4    4    0    0  0.45942502284E-01 -0.68191738835E-01 -0.60463614049E-03  0.82228057665E-01  0.51100000000E-03 0. -1.
</event>
<event>
 8    1  0.1109294E+005  0.1043930E+01  0.7957747E-01            NaN
         13   -1    0    0    0    0  0.00000000000E+00  0.00000000000E+00  0.74505805969E-08  0.10566000000E+00  0.10566000000E+00 0.  1.
     999900   -1    0    0    0    0 -0.00000000000E+00 -0.00000000000E+00 -0.74505805969E-08  0.93827000000E+00  0.93827000000E+00 0.  1.
     999902    2    1    2    0    0 -0.13616618877E-01  0.18480655050E-01 -0.54348110771E-02  0.10203400849E+01  0.10200673531E+01 0.  0.
     999903    2    3    3    0    0 -0.72483881268E-01  0.10189763723E+00 -0.45483751265E-01  0.13353251557E+00  0.11185685868E-01 0.  0.
         14    1    1    2    0    0  0.13616618877E-01 -0.18480655050E-01  0.54348110771E-02  0.23589915052E-01  0.00000000000E+00 0.  1.
     999901    1    3    3    0    0  0.58867262391E-01 -0.83416982181E-01  0.40048940188E-01  0.88680756938E+00  0.88000000000E+00 0. -1.
        -11    1    4    4    0    0 -0.52361723406E-01  0.77525063436E-01 -0.29385453786E-01  0.98059428685E-01  0.51100000000E-03 0. -1.
         11    1    4    4    0    0 -0.20122157861E-01  0.24372573794E-01 -0.16098297479E-01  0.35473086884E-01  0.51100000000E-03 0.  1.
</event>
<event>
 8    1  0.1109294E+005  0.1043930E+01  0.7957747E-01            NaN
         13   -1    0    0    0    0  0.00000000000E+00  0.00000000000E+00  0.74505805969E-08  0.10566000000E+00  0.10566000000E+00 0. -1.
     999900   -1    0    0    0    0 -0.00000000000E+00 -0.00000000000E+00 -0.74505805969E-08  0.93827000000E+00  0.93827000000E+00 0. -1.
     999902    2    1    2    0    0 -0.22140423549E-01 -0.92954744263E-02  0.16557162387E-01  0.10147624868E+01  0.10143432165E+01 0.  0.
     999903    2    3    3    0    0  0.86361532360E-02  0.12060660831E+00 -0.22227715357E-01  0.12384946326E+00  0.14969338929E-01 0.  0.
         14    1    1    2    0    0  0.22140423549E-01  0.92954744263E-02 -0.16557162387E-01  0.29167513196E-01  0.00000000000E+00 0.  1.
     999901    1    3    3    0    0 -0.30776576785E-01 -0.12990208274E+00  0.38784877744E-01  0.89091302354E+00  0.88000000000E+00 0.  1.
        -11    1    4    4    0    0  0.95348140373E-02  0.60465627988E-01 -0.57555074324E-02  0.61484891099E-01  0.51100000000E-03 0.  1.
         11    1    4    4    0    0 -0.89866080136E-03  0.60140980326E-01 -0.16472207925E-01  0.62364572160E-01  0.51100000000E-03 0. -1.
</event>
<event>
 8    1  0.1109294E+005  0.1043930E+01  0.7957747E-01            NaN
         13   -1    0    0    0    0  0.00000000000E+00  0.00000000000E+00  0.74505805969E-08  0.10566000000E+00  0.10566000000E+00 0. -1.
     999900   -1    0    0    0    0 -0.00000000000E+00 -0.00000000000E+00 -0.74505805969E-08  0.93827000000E+00  0.93827000000E+00 0.  1.
     999902    2    1    2    0    0  0.10140615963E-01  0.20318782843E-01  0.10026866688E-01  0.10191061590E+01  0.10188037790E+01 0.  0.
     999903    2    3    3    0    0  0.34239972387E-01  0.99878210423E-01  0.77852109489E-01  0.13259008744E+00  0.19265194269E-01 0.  0.
         14    1    1    2    0    0 -0.10140615963E-01 -0.20318782843E-01 -0.10026866688E-01  0.24823841039E-01  0.00000000000E+00 0.  1.
     999901    1    3    3    0    0 -0.24099356424E-01 -0.79559427580E-01 -0.67825242802E-01  0.88651607152E+00  0.88000000000E+00 0.  1.
        -11    1    4    4    0    0 -0.80786851252E-04  0.23779118204E-01  0.19139342921E-01  0.30529142758E-01  0.51100000000E-03 0.  1.
         11    1    4    4    0    0  0.34320759238E-01  0.76099092218E-01  0.58712766569E-01  0.10206094469E+00  0.51100000000E-03 0. -1.
</event>
<event>
 8    1  0.1109294E+005  0.1043930E+01  0.7957747E-01            NaN
         13   -1    0    0    0    0  0.00000000000E+00  0.00000000000E+00  0.74505805969E-08  0.10566000000E+00  0.10566000000E+00 0. -1.
     999900   -1    0    0    0    0 -0.00000000000E+00 -0.00000000000E+00 -0.74505805969E-08  0.93827000000E+00  0.93827000000E+00 0. -1.
     999902    2    1    2    0    0  0.14847226342E-01  0.18305857072E-01  0.15838133556E-02  0.10203068546E+01  0.10200333448E+01 0.  0.
     999903    2    3    3    0    0  0.11147804220E+00  0.70070208399E-01  0.85805436471E-02  0.13347766200E+00  0.20136348381E-01 0.  0.
         14    1    1    2    0    0 -0.14847226342E-01 -0.18305857072E-01 -0.15838133556E-02  0.23623145386E-01  0.00000000000E+00 0. -1.
     999901    1    3    3    0    0 -0.96630815855E-01 -0.51764351327E-01 -0.69967302915E-02  0.88682919262E+00  0.88000000000E+00 0. -1.
        -11    1    4    4    0    0  0.77372657067E-01  0.56187709938E-01  0.12527758277E-01  0.96440617263E-01  0.51100000000E-03 0. -1.
         11    1    4    4    0    0  0.34105385130E-01  0.13882498461E-01 -0.39472146295E-02  0.37037044735E-01  0.51100000000E-03 0.  1.
</event>
<event>
 8    1  0.1109294E+005  0.1043930E+01  0.7957747E-01            NaN
         13   -1    0    0    0    0  0.00000000000E+00  0.00000000000E+00  0.74505805969E-08  0.10566000000E+00  0.10566000000E+00 0. -1.
     999900   -1    0    0    0    0 -0.00000000000E+00 -0.00000000000E+00 -0.74505805969E-08  0.93827000000E+00  0.93827000000E+00 0. -1.
     999902    2    1    2    0    0 -0.15824509212E-01 -0.17146218805E-01 -0.52367883430E-02  0.10200169938E+01  0.10197366503E+01 0.  0.
     999903    2    3    3    0    0 -0.84029455258E-02 -0.13072598762E+00  0.34062507501E-02  0.13264438574E+00  0.20567867918E-01 0.  0.
         14    1    1    2    0    0  0.15824509212E-01  0.17146218805E-01  0.52367883430E-02  0.23913006153E-01  0.00000000000E+00 0. -1.
     999901    1    3    3    0    0 -0.74215636861E-02  0.11357976882E+00 -0.86430390931E-02  0.88737260811E+00  0.88000000000E+00 0.  1.
        -11    1    4    4    0    0 -0.99167764953E-02 -0.27896827017E-01  0.33720604177E-02  0.29802807353E-01  0.51100000000E-03 0. -1.
         11    1    4    4    0    0  0.15138309695E-02 -0.10282916061E+00  0.34190332369E-04  0.10284157839E+00  0.51100000000E-03 0.  1.
</event>
<event>
 8    1  0.1109294E+005  0.1043930E+01  0.7957747E-01            NaN
         13   -1    0    0    0    0  0.00000000000E+00  0.00000000000E+00  0.74505805969E-08  0.10566000000E+00  0.10566000000E+00 0. -1.
     999900   -1    0    0    0    0 -0.00000000000E+00 -0.00000000000E+00 -0.74505805969E-08  0.93827000000E+00  0.93827000000E+00 0.  1.
     999902    2    1    2    0    0 -0.29070110666E-03 -0.14041801680E-01  0.19117677486E-01  0.10202078101E+01  0.10199319749E+01 0.  0.
     999903    2    3    3    0    0  0.12141726657E+00 -0.26362412253E-01  0.38222869552E-01  0.13154047346E+00  0.20119120256E-01 0.  0.
         14    1    1    2    0    0  0.29070110666E-03  0.14041801680E-01 -0.19117677486E-01  0.23722189908E-01  0.00000000000E+00 0.  1.
     999901    1    3    3    0    0 -0.12170796767E+00  0.12320610573E-01 -0.19105192066E-01  0.88866733664E+00  0.88000000000E+00 0. -1.
        -11    1    4    4    0    0  0.30275440007E-01  0.19123724845E-02  0.11437341000E-01  0.32424270636E-01  0.51100000000E-03 0.  1.
         11    1    4    4    0    0  0.91141826560E-01 -0.28274784738E-01  0.26785528552E-01  0.99116202820E-01  0.51100000000E-03 0. -1.
</event>
<event>
 8    1  0.1109294E+005  0.1043930E+01  0.7957747E-01            NaN
         13   -1    0    0    0    0  0.00000000000E+00  0.00000000000E+00  0.74505805969E-08  0.10566000000E+00  0.10566000000E+00 0.  1.
     999900   -1    0    0    0    0 -0.00000000000E+00 -0.00000000000E+00 -0.74505805969E-08  0.93827000000E+00  0.93827000000E+00 0. -1.
     999902    2    1    2    0    0 -0.38123744621E-02 -0.11141752672E-01  0.20473572558E-01  0.10203113628E+01  0.10200379586E+01 0.  0.
     999903    2    3    3    0    0 -0.10142673863E+00  0.63365514556E-01 -0.44857939615E-01  0.12938594308E+00  0.20637726982E-01 0.  0.
         14    1    1    2    0    0  0.38123744621E-02  0.11141752672E-01 -0.20473572558E-01  0.23618637237E-01  0.00000000000E+00 0. -1.
     999901    1    3    3    0    0  0.97614364169E-01 -0.74507267227E-01  0.65331512173E-01  0.89092541969E+00  0.88000000000E+00 0.  1.
        -11    1    4    4    0    0 -0.52352539813E-01  0.31809491296E-01 -0.33914302724E-01  0.70021948071E-01  0.51100000000E-03 0. -1.
         11    1    4    4    0    0 -0.49074198818E-01  0.31556023260E-01 -0.10943636891E-01  0.59363995005E-01  0.51100000000E-03 0.  1.
</event>
<event>
 8    1  0.1109294E+005  0.1043930E+01  0.7957747E-01            NaN
         13   -1    0    0    0    0  0.00000000000E+00  0.00000000000E+00  0.74505805969E-08  0.10566000000E+00  0.10566000000E+00 0.  1.
     999900   -1    0    0    0    0 -0.00000000000E+00 -0.00000000000E+00 -0.74505805969E-08  0.93827000000E+00  0.93827000000E+00 0.  1.
     999902    2    1    2    0    0 -0.15406249667E-01  0.19335337727E-01 -0.12896745218E-02  0.10191737670E+01  0.10188730520E+01 0.  0.
     999903    2    3    3    0    0 -0.40564500645E-01 -0.11736665496E+00  0.22466103581E-01  0.12794724728E+00  0.21103598421E-01 0.  0.
         14    1    1    2    0    0  0.15406249667E-01 -0.19335337727E-01  0.12896745218E-02  0.24756233038E-01  0.00000000000E+00 0.  1.
     999901    1    3    3    0    0  0.25158250978E-01  0.13670199269E+00 -0.23755778103E-01  0.89122651969E+00  0.88000000000E+00 0.  1.
        -11    1    4    4    0    0 -0.28212314749E-01 -0.86353494513E-01  0.68942539048E-02  0.91107917197E-01  0.51100000000E-03 0. -1.
         11    1    4    4    0    0 -0.12352185897E-01 -0.31013160448E-01  0.15571849676E-01  0.36839330080E-01  0.51100000000E-03 0.  1.
</event>
<event>
 8    1  0.1109294E+005  0.1043930E+01  0.7957747E-01            NaN
         13   -1    0    0    0    0  0.00000000000E+00  0.00000000000E+00  0.74505805969E-08  0.10566000000E+00  0.10566000000E+00 0.  1.
     999900   -1    0    0    0    0 -0.00000000000E+00 -0.00000000000E+00 -0.74505805969E-08  0.93827000000E+00  0.93827000000E+00 0.  1.
     999902    2    1    2    0    0  0.89061677951E-02  0.21359788761E-01 -0.87499907627E-02  0.10191888857E+01  0.10188885424E+01 0.  0.
     999903    2    3    3    0    0  0.29258125094E-01  0.12342793127E+00 -0.33581372050E-01  0.13270780555E+00  0.19828287954E-01 0.  0.
         14    1    1    2    0    0 -0.89061677951E-02 -0.21359788761E-01  0.87499907627E-02  0.24741114345E-01  0.00000000000E+00 0.  1.
     999901    1    3    3    0    0 -0.20351957299E-01 -0.10206814251E+00  0.24831381287E-01  0.88648108010E+00  0.88000000000E+00 0. -1.
        -11    1    4    4    0    0  0.23193550252E-01  0.11093529486E+00 -0.35301045100E-01  0.11870554041E+00  0.51100000000E-03 0.  1.
         11    1    4    4    0    0  0.60645748419E-02  0.12492636416E-01  0.17196730505E-02  0.14002265139E-01  0.51100000000E-03 0. -1.
</event>
<event>
 7    1  0.1109294E+005  0.1043930E+01  0.7957747E-01            NaN
         13   -1    0    0    0    0  0.00000000000E+00  0.00000000000E+00  0.74505805969E-08  0.10566000000E+00  0.10566000000E+00 0.  1.
     999900   -1    0    0    0    0 -0.00000000000E+00 -0.00000000000E+00 -0.74505805969E-08  0.93827000000E+00  0.93827000000E+00 0. -1.
     999903    2    1    2    0    0 -0.36303170804E-01 -0.80232108724E-02  0.99233850491E-01  0.10797778381E+00  0.20725650558E-01 0.  0.
         14    1    1    2    0    0 -0.27868265935E-01  0.79672360710E-03  0.33581430139E-01  0.43646162087E-01  0.00000000000E+00 0.  1.
     999901    1    1    2    0    0  0.64171436739E-01  0.72264872653E-02 -0.13281528063E+00  0.89230605410E+00  0.88000000000E+00 0. -1.
        -11    1    3    3    0    0 -0.31385576799E-01 -0.99730473734E-03  0.90200576597E-01  0.95511539550E-01  0.51100000000E-03 0.  1.
         11    1    3    3    0    0 -0.49175940046E-02 -0.70259061351E-02  0.90332738940E-02  0.12466244264E-01  0.51100000000E-03 0. -1.
</event>
<event>
 8    1  0.1109294E+005  0.1043930E+01  0.7957747E-01            NaN
         13   -1    0    0    0    0  0.00000000000E+00  0.00000000000E+00  0.74505805969E-08  0.10566000000E+00  0.10566000000E+00 0. -1.
     999900   -1    0    0    0    0 -0.00000000000E+00 -0.00000000000E+00 -0.74505805969E-08  0.93827000000E+00  0.93827000000E+00 0.  1.
     999902    2    1    2    0    0 -0.18577970574E-01 -0.11059380891E-01 -0.87910720618E-02  0.10205904661E+01  0.10203235593E+01 0.  0.
     999903    2    3    3    0    0 -0.44998164532E-01 -0.11559198490E-01 -0.12287139443E+00  0.13283340672E+00  0.19720154448E-01 0.  0.
         14    1    1    2    0    0  0.18577970574E-01  0.11059380891E-01  0.87910720618E-02  0.23339533936E-01  0.00000000000E+00 0.  1.
     999901    1    3    3    0    0  0.26420193958E-01  0.49981759818E-03  0.11408032236E+00  0.88775705935E+00  0.88000000000E+00 0. -1.
        -11    1    4    4    0    0 -0.14024634433E-01 -0.13419717764E-01 -0.49122593250E-01  0.52821108323E-01  0.51100000000E-03 0.  1.
         11    1    4    4    0    0 -0.30973530099E-01  0.18605192748E-02 -0.73748801175E-01  0.80012298396E-01  0.51100000000E-03 0. -1.
</event>
<event>
 8    1  0.1109294E+005  0.1043930E+01  0.7957747E-01            NaN
         13   -1    0    0    0    0  0.00000000000E+00  0.00000000000E+00  0.74505805969E-08  0.10566000000E+00  0.10566000000E+00 0.  1.
     999900   -1    0    0    0    0 -0.00000000000E+00 -0.00000000000E+00 -0.74505805969E-08  0.93827000000E+00  0.93827000000E+00 0. -1.
     999902    2    1    2    0    0 -0.17503350190E-01 -0.12813582832E-01  0.10788937823E-01  0.10197028179E+01  0.10194149697E+01 0.  0.
     999903    2    3    3    0    0  0.37573241973E-01  0.50292544406E-01  0.11177057914E+00  0.12997639581E+00  0.21450234745E-01 0.  0.
         14    1    1    2    0    0  0.17503350190E-01  0.12813582832E-01 -0.10788937823E-01  0.24227182094E-01  0.00000000000E+00 0. -1.
     999901    1    3    3    0    0 -0.55076592163E-01 -0.63106127238E-01 -0.10098164132E+00  0.88972642210E+00  0.88000000000E+00 0. -1.
        -11    1    4    4    0    0  0.20830481228E-01  0.36940336382E-01  0.89692007773E-01  0.99213984798E-01  0.51100000000E-03 0.  1.
         11    1    4    4    0    0  0.16742760745E-01  0.13352208024E-01  0.22078571366E-01  0.30762411009E-01  0.51100000000E-03 0. -1.
</event>
<event>
 8    1  0.1109294E+005  0.1043930E+01  0.7957747E-01            NaN
         13   -1    0    0    0    0  0.00000000000E+00  0.00000000000E+00  0.74505805969E-08  0.10566000000E+00  0.10566000000E+00 0. -1.
     999900   -1    0    0    0    0 -0.00000000000E+00 -0.00000000000E+00 -0.74505805969E-08  0.93827000000E+00  0.93827000000E+00 0.  1.
     999902    2    1    2    0    0  0.20155098230E-01  0.10372697705E-01 -0.58325760831E-02  0.10205240224E+01  0.10202555761E+01 0.  0.
     999903    2    3    3    0    0 -0.98436133534E-01  0.80332832509E-01 -0.19548065274E-01  0.12971180015E+00  0.17320158162E-01 0.  0.
         14    1    1    2    0    0 -0.20155098230E-01 -0.10372697705E-01  0.58325760831E-02  0.23405977572E-01  0.00000000000E+00 0. -1.
     999901    1    3    3    0    0  0.11859123176E+00 -0.69960134803E-01  0.13715489191E-01  0.89081222228E+00  0.88000000000E+00 0. -1.
        -11    1    4    4    0    0 -0.65803231672E-01  0.62112799162E-01 -0.18247563355E-01  0.92310886724E-01  0.51100000000E-03 0. -1.
         11    1    4    4    0    0 -0.32632901861E-01  0.18220033347E-01 -0.13005019193E-02  0.37400913428E-01  0.51100000000E-03 0.  1.
</event>
<event>
 8    1  0.1109294E+005  0.1043930E+01  0.7957747E-01            NaN
         13   -1    0    0    0    0  0.00000000000E+00  0.00000000000E+00  0.74505805969E-08  0.10566000000E+00  0.10566000000E+00 0. -1.
     999900   -1    0    0    0    0 -0.00000000000E+00 -0.00000000000E+00 -0.74505805969E-08  0.93827000000E+00  0.93827000000E+00 0.  1.
     999902    2    1    2    0    0  0.48847476833E-02 -0.55658541113E-02 -0.22952912864E-01  0.10198120461E+01  0.10195268185E+01 0.  0.
     999903    2    3    3    0    0  0.25963324987E-01 -0.43322716211E-01  0.11594917611E+00  0.12786828252E+00  0.18845005947E-01 0.  0.
         14    1    1    2    0    0 -0.48847476833E-02  0.55658541113E-02  0.22952912864E-01  0.24117953911E-01  0.00000000000E+00 0. -1.
     999901    1    3    3    0    0 -0.21078577304E-01  0.37756862100E-01 -0.13890208897E+00  0.89194376357E+00  0.88000000000E+00 0.  1.
        -11    1    4    4    0    0  0.94738710922E-02 -0.25938324517E-01  0.43211083716E-01  0.51283621061E-01  0.51100000000E-03 0. -1.
         11    1    4    4    0    0  0.16489453895E-01 -0.17384391694E-01  0.72738092391E-01  0.76584661454E-01  0.51100000000E-03 0.  1.
</event>
<event>
 8    1  0.1109294E+005  0.1043930E+01  0.7957747E-01            NaN
         13   -1    0    0    0    0  0.00000000000E+00  0.00000000000E+00  0.74505805969E-08  0.10566000000E+00  0.10566000000E+00 0. -1.
     999900   -1    0    0    0    0 -0.00000000000E+00 -0.00000000000E+00 -0.74505805969E-08  0.93827000000E+00  0.93827000000E+00 0. -1.
     999902    2    1    2    0    0 -0.68829084139E-02  0.43273294930E-02  0.22076615175E-01  0.10204039050E+01  0.10201326640E+01 0.  0.
     999903    2    3    3    0    0  0.74239421738E-01  0.37319884501E-01  0.10132929187E+00  0.13251296129E+00  0.19692485908E-01 0.  0.
         14    1    1    2    0    0  0.68829084139E-02 -0.43273294930E-02 -0.22076615175E-01  0.23526095009E-01  0.00000000000E+00 0.  1.
     999901    1    3    3    0    0 -0.81122330152E-01 -0.32992555008E-01 -0.79252676694E-01  0.88789094370E+00  0.88000000000E+00 0.  1.
        -11    1    4    4    0    0  0.54131299899E-01  0.18525990275E-01  0.75790642589E-01  0.94962585103E-01  0.51100000000E-03 0.  1.
         11    1    4    4    0    0  0.20108121839E-01  0.18793894226E-01  0.25538649280E-01  0.37550376191E-01  0.51100000000E-03 0. -1.
</event>
<event>
 8    1  0.1109294E+005  0.1043930E+01  0.7957747E-01            NaN
         13   -1    0    0    0    0  0.00000000000E+00  0.00000000000E+00  0.74505805969E-08  0.10566000000E+00  0.10566000000E+00 0. -1.
     999900   -1    0    0    0    0 -0.00000000000E+00 -0.00000000000E+00 -0.74505805969E-08  0.93827000000E+00  0.93827000000E+00 0. -1.
     999902    2    1    2    0    0 -0.97312173475E-02  0.19633862956E-01 -0.85494370975E-02  0.10204081370E+01  0.10201369947E+01 0.  0.
     999903    2    3    3    0    0 -0.94898026110E-01  0.56304150757E-01 -0.71975280576E-01  0.13326613428E+00  0.20090514662E-01 0.  0.
         14    1    1    2    0    0  0.97312173475E-02 -0.19633862956E-01  0.85494370975E-02  0.23521863028E-01  0.00000000000E+00 0. -1.
     999901    1    3    3    0    0  0.85166808763E-01 -0.36670287801E-01  0.63425843478E-01  0.88714200269E+00  0.88000000000E+00 0.  1.
        -11    1    4    4    0    0 -0.84613237100E-01  0.46907362616E-01 -0.69462934206E-01  0.11910105335E+00  0.51100000000E-03 0.  1.
         11    1    4    4    0    0 -0.10284789011E-01  0.93967881404E-02 -0.25123463695E-02  0.14165080926E-01  0.51100000000E-03 0. -1.
</event>
<event>
 8    1  0.1109294E+005  0.1043930E+01  0.7957747E-01            NaN
         13   -1    0    0    0    0  0.00000000000E+00  0.00000000000E+00  0.74505805969E-08  0.10566000000E+00  0.10566000000E+00 0.  1.
     999900   -1    0    0    0    0 -0.00000000000E+00 -0.00000000000E+00 -0.74505805969E-08  0.93827000000E+00  0.93827000000E+00 0. -1.
     999902    2    1    2    0    0 -0.13960187536E-01 -0.99109894481E-02 -0.18342225005E-01  0.10188391298E+01  0.10185301275E+01 0.  0.
     999903    2    3    3    0    0  0.72226828909E-01  0.10243562991E+00  0.67983448655E-02  0.12716541544E+00  0.20372832428E-01 0.  0.
         14    1    1    2    0    0  0.13960187536E-01  0.99109894481E-02  0.18342225005E-01  0.25090870173E-01  0.00000000000E+00 0.  1.
     999901    1    3    3    0    0 -0.86187016445E-01 -0.11234661936E+00 -0.25140569871E-01  0.89167371439E+00  0.88000000000E+00 0. -1.
        -11    1    4    4    0    0  0.22653669969E-01  0.36100749392E-01  0.11722792273E-01  0.44205631422E-01  0.51100000000E-03 0.  1.
         11    1    4    4    0    0  0.49573158940E-01  0.66334880516E-01 -0.49244474075E-02  0.82959784013E-01  0.51100000000E-03 0. -1.
</event>
<event>
 8    1  0.1109294E+005  0.1043930E+01  0.7957747E-01            NaN
         13   -1    0    0    0    0  0.00000000000E+00  0.00000000000E+00  0.74505805969E-08  0.10566000000E+00  0.10566000000E+00 0.  1.
     999900   -1    0    0    0    0 -0.00000000000E+00 -0.00000000000E+00 -0.74505805969E-08  0.93827000000E+00  0.93827000000E+00 0. -1.
     999902    2    1    2    0    0  0.53123986077E-02 -0.64859224471E-02 -0.22387820470E-01  0.10200238653E+01  0.10197436848E+01 0.  0.
     999903    2    3    3    0    0  0.97767947377E-01 -0.63312077885E-01  0.54509944826E-01  0.13002919864E+00  0.19216338742E-01 0.  0.
         14    1    1    2    0    0 -0.53123986077E-02  0.64859224471E-02  0.22387820470E-01  0.23906134660E-01  0.00000000000E+00 0.  1.
     999901    1    3    3    0    0 -0.92455548769E-01  0.56826155438E-01 -0.76897765296E-01  0.88999466670E+00  0.88000000000E+00 0. -1.
        -11    1    4    4    0    0  0.31193747863E-01 -0.12597852484E-01  0.93011773848E-02  0.34907432084E-01  0.51100000000E-03 0. -1.
         11    1    4    4    0    0  0.66574199514E-01 -0.50714225402E-01  0.45208767441E-01  0.95121766561E-01  0.51100000000E-03 0.  1.
</event>
<event>
 8    1  0.1109294E+005  0.1043930E+01  0.7957747E-01            NaN
         13   -1    0    0    0    0  0.00000000000E+00  0.00000000000E+00  0.74505805969E-08  0.10566000000E+00  0.10566000000E+00 0. -1.
     999900   -1    0    0    0    0 -0.00000000000E+00 -0.00000000000E+00 -0.74505805969E-08  0.93827000000E+00  0.93827000000E+00 0.  1.
     999902    2    1    2    0    0  0.28303365599E-01  0.49701005957E-02 -0.71024371328E-02  0.10143288680E+01  0.10138968515E+01 0.  0.
     999903    2    3    3    0    0 -0.52139580577E-01 -0.61525537094E-03  0.10947051558E+00  0.12298633163E+00  0.20565251865E-01 0.  0.
         14    1    1    2    0    0 -0.28303365599E-01 -0.49701005957E-02  0.71024371328E-02  0.29601132029E-01  0.00000000000E+00 0.  1.
     999901    1    3    3    0    0  0.80442946176E-01  0.55853559667E-02 -0.11657295271E+00  0.89134253634E+00  0.88000000000E+00 0.  1.
        -11    1    4    4    0    0 -0.32678386132E-01 -0.41852840242E-02  0.46586120029E-01  0.57060680182E-01  0.51100000000E-03 0. -1.
         11    1    4    4    0    0 -0.19461194445E-01  0.35700286533E-02  0.62884395550E-01  0.65925651446E-01  0.51100000000E-03 0.  1.
</event>
<event>
 8    1  0.1109294E+005  0.1043930E+01  0.7957747E-01            NaN
         13   -1    0    0    0    0  0.00000000000E+00  0.00000000000E+00  0.74505805969E-08  0.10566000000E+00  0.10566000000E+00 0. -1.
     999900   -1    0    0    0    0 -0.00000000000E+00 -0.00000000000E+00 -0.74505805969E-08  0.93827000000E+00  0.93827000000E+00 0. -1.
     999902    2    1    2    0    0 -0.40430265610E-02  0.97168789053E-05  0.23997581702E-01  0.10195942221E+01  0.10193037563E+01 0.  0.
     999903    2    3    3    0    0 -0.34388085974E-01 -0.12390547962E+00  0.28985030506E-02  0.13014440920E+00  0.19850883843E-01 0.  0.
         14    1    1    2    0    0  0.40430265610E-02 -0.97168789053E-05 -0.23997581702E-01  0.24335777894E-01  0.00000000000E+00 0.  1.
     999901    1    3    3    0    0  0.30345059413E-01  0.12391519650E+00  0.21099078651E-01  0.88944981290E+00  0.88000000000E+00 0. -1.
        -11    1    4    4    0    0 -0.25156091905E-01 -0.53723772119E-01  0.13250062898E-02  0.59338768215E-01  0.51100000000E-03 0. -1.
         11    1    4    4    0    0 -0.92319940692E-02 -0.70181707503E-01  0.15734967608E-02  0.70805640987E-01  0.51100000000E-03 0.  1.
</event>
<event>
 8    1  0.1109294E+005  0.1043930E+01  0.7957747E-01            NaN
         13   -1    0    0    0    0  0.00000000000E+00  0.00000000000E+00  0.74505805969E-08  0.10566000000E+00  0.10566000000E+00 0.  1.
     999900   -1    0    0    0    0 -0.00000000000E+00 -0.00000000000E+00 -0.74505805969E-08  0.93827000000E+00  0.93827000000E+00 0.  1.
     999902    2    1    2    0    0  0.16551198824E-01  0.16255671675E-01  0.18853502898E-01  0.10140361275E+01  0.10135953947E+01 0.  0.
     999903    2    3    3    0    0  0.55781674143E-01 -0.64888106645E-01 -0.86372067827E-01  0.12319620711E+00  0.19877368807E-01 0.  0.
         14    1    1    2    0    0 -0.16551198824E-01 -0.16255671675E-01 -0.18853502898E-01  0.29893872543E-01  0.00000000000E+00 0.  1.
     999901    1    3    3    0    0 -0.39230475320E-01  0.81143778320E-01  0.10522557072E+00  0.89083992035E+00  0.88000000000E+00 0. -1.
        -11    1    4    4    0    0  0.46471406291E-01 -0.51283040359E-01 -0.79291281490E-01  0.10524690149E+00  0.51100000000E-03 0. -1.
         11    1    4    4    0    0  0.93102678522E-02 -0.13605066286E-01 -0.70807863369E-02  0.17949305621E-01  0.51100000000E-03 0.  1.
</event>
<event>
 8    1  0.1109294E+005  0.1043930E+01  0.7957747E-01            NaN
         13   -1    0    0    0    0  0.00000000000E+00  0.00000000000E+00  0.74505805969E-08  0.10566000000E+00  0.10566000000E+00 0.  1.
     999900   -1    0    0    0    0 -0.00000000000E+00 -0.00000000000E+00 -0.74505805969E-08  0.93827000000E+00  0.93827000000E+00 0. -1.
     999902    2    1    2    0    0  0.82244347631E-02 -0.24965913070E-01  0.75120559686E-02  0.10165919473E+01  0.10162242952E+01 0.  0.
     999903    2    3    3    0    0  0.53847289268E-01 -0.11745533201E-01 -0.11275010450E+00  0.12714312325E+00  0.20378901195E-01 0.  0.
         14    1    1    2    0    0 -0.82244347631E-02  0.24965913070E-01 -0.75120559686E-02  0.27338052737E-01  0.00000000000E+00 0. -1.
     999901    1    3    3    0    0 -0.45622854505E-01 -0.13220379869E-01  0.12026216047E+00  0.88944882401E+00  0.88000000000E+00 0.  1.
        -11    1    4    4    0    0  0.92627589677E-02  0.50438995722E-02 -0.27908939941E-01  0.29839733180E-01  0.51100000000E-03 0.  1.
         11    1    4    4    0    0  0.44584530300E-01 -0.16789432773E-01 -0.84841164556E-01  0.97303390071E-01  0.51100000000E-03 0. -1.
</event>
<event>
 8    1  0.1109294E+005  0.1043930E+01  0.7957747E-01            NaN
         13   -1    0    0    0    0  0.00000000000E+00  0.00000000000E+00  0.74505805969E-08  0.10566000000E+00  0.10566000000E+00 0. -1.
     999900   -1    0    0    0    0 -0.00000000000E+00 -0.00000000000E+00 -0.74505805969E-08  0.93827000000E+00  0.93827000000E+00 0. -1.
     999902    2    1    2    0    0  0.23309954454E-01 -0.33809245775E-02 -0.64895477687E-02  0.10194984864E+01  0.10192057029E+01 0.  0.
     999903    2    3    3    0    0  0.12360079520E-01  0.95318479747E-01 -0.85723385529E-01  0.13037561904E+00  0.20271138761E-01 0.  0.
         14    1    1    2    0    0 -0.23309954454E-01  0.33809245775E-02  0.64895477687E-02  0.24431513623E-01  0.00000000000E+00 0. -1.
     999901    1    3    3    0    0  0.10949874934E-01 -0.98699404325E-01  0.79233837760E-01  0.88912286734E+00  0.88000000000E+00 0.  1.
        -11    1    4    4    0    0 -0.36082450380E-02  0.48747770361E-01 -0.45822423741E-01  0.67002389405E-01  0.51100000000E-03 0.  1.
         11    1    4    4    0    0  0.15968324558E-01  0.46570709386E-01 -0.39900961788E-01  0.63373229636E-01  0.51100000000E-03 0. -1.
</event>
<event>
 8    1  0.1109294E+005  0.1043930E+01  0.7957747E-01            NaN
         13   -1    0    0    0    0  0.00000000000E+00  0.00000000000E+00  0.74505805969E-08  0.10566000000E+00  0.10566000000E+00 0. -1.
     999900   -1    0    0    0    0 -0.00000000000E+00 -0.00000000000E+00 -0.74505805969E-08  0.93827000000E+00  0.93827000000E+00 0.  1.
     999902    2    1    2    0    0  0.41805166820E-02  0.90343526002E-02  0.21624896319E-01  0.10201238582E+01  0.10198460441E+01 0.  0.
     999903    2    3    3    0    0 -0.19394451152E-02 -0.12804356647E+00  0.27848625694E-02  0.12929123829E+00  0.17594103427E-01 0.  0.
         14    1    1    2    0    0 -0.41805166820E-02 -0.90343526002E-02 -0.21624896319E-01  0.23806141801E-01  0.00000000000E+00 0.  1.
     999901    1    3    3    0    0  0.61199617972E-02  0.13707791907E+00  0.18840033749E-01  0.89083261991E+00  0.88000000000E+00 0.  1.
        -11    1    4    4    0    0  0.62923432203E-02 -0.92884013104E-01  0.36033047031E-02  0.93168011674E-01  0.51100000000E-03 0.  1.
         11    1    4    4    0    0 -0.82317883355E-02 -0.35159553369E-01 -0.81844213368E-03  0.36123226612E-01  0.51100000000E-03 0. -1.
</event>
<event>
 8    1  0.1109294E+005  0.1043930E+01  0.7957747E-01            NaN
         13   -1    0    0    0    0  0.00000000000E+00  0.00000000000E+00  0.74505805969E-08  0.10566000000E+00  0.10566000000E+00 0. -1.
     999900   -1    0    0    0    0 -0.00000000000E+00 -0.00000000000E+00 -0.74505805969E-08  0.93827000000E+00  0.93827000000E+00 0. -1.
     999902    2    1    2    0    0 -0.13599116591E-02  0.22634313377E-01  0.66732140745E-02  0.10202933063E+01  0.10200194791E+01 0.  0.
     999903    2    3    3    0    0 -0.10020809057E+00 -0.48686969155E-02 -0.80239908089E-01  0.13007913611E+00  0.20415023307E-01 0.  0.
         14    1    1    2    0    0  0.13599116591E-02 -0.22634313377E-01 -0.66732140745E-02  0.23636693674E-01  0.00000000000E+00 0. -1.
     999901    1    3    3    0    0  0.98848178906E-01  0.27503010292E-01  0.86913122164E-01  0.89021417022E+00  0.88000000000E+00 0.  1.
        -11    1    4    4    0    0 -0.37603041251E-01 -0.11603551217E-01 -0.33002477054E-01  0.51362006628E-01  0.51100000000E-03 0. -1.
         11    1    4    4    0    0 -0.62605049314E-01  0.67348543016E-02 -0.47237431036E-01  0.78717129483E-01  0.51100000000E-03 0.  1.
</event>
<event>
 8    1  0.1109294E+005  0.1043930E+01  0.7957747E-01            NaN
         13   -1    0    0    0    0  0.00000000000E+00  0.00000000000E+00  0.74505805969E-08  0.10566000000E+00  0.10566000000E+00 0.  1.
     999900   -1    0    0    0    0 -0.00000000000E+00 -0.00000000000E+00 -0.74505805969E-08  0.93827000000E+00  0.93827000000E+00 0. -1.
     999902    2    1    2    0    0  0.49558379055E-02  0.18931001137E-01  0.12102026061E-01  0.10209212589E+01  0.10206619493E+01 0.  0.
     999903    2    3    3    0    0  0.55075980803E-01 -0.11293971959E+00 -0.21497797932E-01  0.12905195013E+00  0.20087473561E-01 0.  0.
         14    1    1    2    0    0 -0.49558379055E-02 -0.18931001137E-01 -0.12102026061E-01  0.23008741125E-01  0.00000000000E+00 0. -1.
     999901    1    3    3    0    0 -0.50120142898E-01  0.13187072073E+00  0.33599823992E-01  0.89186930874E+00  0.88000000000E+00 0.  1.
        -11    1    4    4    0    0  0.52419119733E-01 -0.92118502334E-01 -0.14829605236E-01  0.10702224488E+00  0.51100000000E-03 0. -1.
         11    1    4    4    0    0  0.26568610700E-02 -0.20821217256E-01 -0.66681926954E-02  0.22029705254E-01  0.51100000000E-03 0.  1.
</event>
<event>
 7    1  0.1109294E+005  0.1043930E+01  0.7957747E-01            NaN
         13   -1    0    0    0    0  0.00000000000E+00  0.00000000000E+00  0.74505805969E-08  0.10566000000E+00  0.10566000000E+00 0.  1.
     999900   -1    0    0    0    0 -0.00000000000E+00 -0.00000000000E+00 -0.74505805969E-08  0.93827000000E+00  0.93827000000E+00 0. -1.
     999903    2    1    2    0    0  0.60166732321E-01 -0.85607396951E-01  0.35942463741E-01  0.11230975885E+00  0.19312150124E-01 0.  0.
         14    1    1    2    0    0 -0.16249184722E-01  0.45233554467E-01  0.69223594136E-02  0.48559546062E-01  0.00000000000E+00 0.  1.
     999901    1    1    2    0    0 -0.43917547600E-01  0.40373842484E-01 -0.42864823155E-01  0.88306069509E+00  0.88000000000E+00 0. -1.
        -11    1    3    3    0    0  0.19966511767E-01 -0.24703836637E-01  0.20138017752E-02  0.31831708332E-01  0.51100000000E-03 0. -1.
         11    1    3    3    0    0  0.40200220554E-01 -0.60903560314E-01  0.33928661966E-01  0.80478050519E-01  0.51100000000E-03 0.  1.
</event>
<event>
 8    1  0.1109294E+005  0.1043930E+01  0.7957747E-01            NaN
         13   -1    0    0    0    0  0.00000000000E+00  0.00000000000E+00  0.74505805969E-08  0.10566000000E+00  0.10566000000E+00 0. -1.
     999900   -1    0    0    0    0 -0.00000000000E+00 -0.00000000000E+00 -0.74505805969E-08  0.93827000000E+00  0.93827000000E+00 0.  1.
     999902    2    1    2    0    0  0.21808319352E-01  0.65885593553E-02 -0.74613549509E-02  0.10199574381E+01  0.10196756797E+01 0.  0.
     999903    2    3    3    0    0 -0.15565987437E-01  0.95342963191E-01 -0.86398686373E-01  0.13119127913E+00  0.20343011504E-01 0.  0.
         14    1    1    2    0    0 -0.21808319352E-01 -0.65885593553E-02  0.74613549509E-02  0.23972561920E-01  0.00000000000E+00 0. -1.
     999901    1    3    3    0    0  0.37374306789E-01 -0.88754403836E-01  0.78937331422E-01  0.88876615895E+00  0.88000000000E+00 0. -1.
        -11    1    4    4    0    0 -0.16580682628E-01  0.73219102093E-01 -0.75609832535E-01  0.10655075713E+00  0.51100000000E-03 0. -1.
         11    1    4    4    0    0  0.10146951905E-02  0.22123861098E-01 -0.10788853838E-01  0.24640521998E-01  0.51100000000E-03 0.  1.
</event>
<event>
 8    1  0.1109294E+005  0.1043930E+01  0.7957747E-01            NaN
         13   -1    0    0    0    0  0.00000000000E+00  0.00000000000E+00  0.74505805969E-08  0.10566000000E+00  0.10566000000E+00 0.  1.
     999900   -1    0    0    0    0 -0.00000000000E+00 -0.00000000000E+00 -0.74505805969E-08  0.93827000000E+00  0.93827000000E+00 0. -1.
     999902    2    1    2    0    0 -0.40248149488E-02 -0.60763558374E-02 -0.20640816941E-01  0.10220401722E+01  0.10218057296E+01 0.  0.
     999903    2    3    3    0    0 -0.19133385004E-01 -0.10932391598E+00 -0.72929792835E-01  0.13433387814E+00  0.20224517467E-01 0.  0.
         14    1    1    2    0    0  0.40248149488E-02  0.60763558374E-02  0.20640816941E-01  0.21889827766E-01  0.00000000000E+00 0.  1.
     999901    1    3    3    0    0  0.15108570055E-01  0.10324756015E+00  0.52288975893E-01  0.88770629409E+00  0.88000000000E+00 0.  1.
        -11    1    4    4    0    0  0.54797780877E-03 -0.48697304100E-01 -0.26254512206E-01  0.55328909609E-01  0.51100000000E-03 0.  1.
         11    1    4    4    0    0 -0.19681362812E-01 -0.60626611883E-01 -0.46675280628E-01  0.79004968536E-01  0.51100000000E-03 0. -1.
</event>
<event>
 8    1  0.1109294E+005  0.1043930E+01  0.7957747E-01            NaN
         13   -1    0    0    0    0  0.00000000000E+00  0.00000000000E+00  0.74505805969E-08  0.10566000000E+00  0.10566000000E+00 0. -1.
     999900   -1    0    0    0    0 -0.00000000000E+00 -0.00000000000E+00 -0.74505805969E-08  0.93827000000E+00  0.93827000000E+00 0. -1.
     999902    2    1    2    0    0  0.55927953161E-02 -0.16489914197E-01  0.12776644267E-01  0.10223327949E+01  0.10221046445E+01 0.  0.
     999903    2    3    3    0    0 -0.26374057191E-01  0.53870895041E-01 -0.11349200835E+00  0.12996723316E+00  0.20331785730E-01 0.  0.
         14    1    1    2    0    0 -0.55927953161E-02  0.16489914197E-01 -0.12776644267E-01  0.21597205106E-01  0.00000000000E+00 0.  1.
     999901    1    3    3    0    0  0.31966852507E-01 -0.70360809238E-01  0.12626865262E+00  0.89236556173E+00  0.88000000000E+00 0. -1.
        -11    1    4    4    0    0 -0.13681000752E-01  0.96858247978E-02 -0.38657276831E-01  0.42138238651E-01  0.51100000000E-03 0. -1.
         11    1    4    4    0    0 -0.12693056439E-01  0.44185070244E-01 -0.74834731517E-01  0.87828994509E-01  0.51100000000E-03 0.  1.
</event>
<event>
 8    1  0.1109294E+005  0.1043930E+01  0.7957747E-01            NaN
         13   -1    0    0    0    0  0.00000000000E+00  0.00000000000E+00  0.74505805969E-08  0.10566000000E+00  0.10566000000E+00 0. -1.
     999900   -1    0    0    0    0 -0.00000000000E+00 -0.00000000000E+00 -0.74505805969E-08  0.93827000000E+00  0.93827000000E+00 0.  1.
     999902    2    1    2    0    0  0.19104682759E-01 -0.97309048868E-02 -0.11778670185E-01  0.10194674473E+01  0.10191739104E+01 0.  0.
     999903    2    3    3    0    0 -0.97432546444E-01  0.71685784248E-01  0.33081981489E-01  0.12693056788E+00  0.19621386115E-01 0.  0.
         14    1    1    2    0    0 -0.19104682759E-01  0.97309048868E-02  0.11778670185E-01  0.24462552699E-01  0.00000000000E+00 0. -1.
     999901    1    3    3    0    0  0.11653722920E+00 -0.81416689134E-01 -0.44860651673E-01  0.89253687942E+00  0.88000000000E+00 0.  1.
        -11    1    4    4    0    0 -0.49168504376E-01  0.29120830819E-01  0.73314950945E-02  0.57615766519E-01  0.51100000000E-03 0.  1.
         11    1    4    4    0    0 -0.48264042067E-01  0.42564953428E-01  0.25750486394E-01  0.69314801360E-01  0.51100000000E-03 0. -1.
</event>
<event>
 8    1  0.1109294E+005  0.1043930E+01  0.7957747E-01            NaN
         13   -1    0    0    0    0  0.00000000000E+00  0.00000000000E+00  0.74505805969E-08  0.10566000000E+00  0.10566000000E+00 0.  1.
     999900   -1    0    0    0    0 -0.00000000000E+00 -0.00000000000E+00 -0.74505805969E-08  0.93827000000E+00  0.93827000000E+00 0. -1.
     999902    2    1    2    0    0  0.67992802658E-02 -0.22207954669E-01  0.37729627260E-02  0.10204000465E+01  0.10201287155E+01 0.  0.
     999903    2    3    3    0    0  0.72125048396E-01  0.53838825032E-01  0.92082683969E-01  0.13031624398E+00  0.20061432452E-01 0.  0.
         14    1    1    2    0    0 -0.67992802658E-02  0.22207954669E-01 -0.37729627260E-02  0.23529953473E-01  0.00000000000E+00 0. -1.
     999901    1    3    3    0    0 -0.65325768130E-01 -0.76046779701E-01 -0.88309721243E-01  0.89008380254E+00  0.88000000000E+00 0. -1.
        -11    1    4    4    0    0  0.54210837510E-01  0.31135946747E-01  0.70500280053E-01  0.94227451902E-01  0.51100000000E-03 0.  1.
         11    1    4    4    0    0  0.17914210886E-01  0.22702878285E-01  0.21582403916E-01  0.36088792081E-01  0.51100000000E-03 0. -1.
</event>
<event>
 8    1  0.1109294E+005  0.1043930E+01  0.7957747E-01            NaN
         13   -1    0    0    0    0  0.00000000000E+00  0.00000000000E+00  0.74505805969E-08  0.10566000000E+00  0.10566000000E+00 0.  1.
     999900   -1    0    0    0    0 -0.00000000000E+00 -0.00000000000E+00 -0.74505805969E-08  0.93827000000E+00  0.93827000000E+00 0.  1.
     999902    2    1    2    0    0 -0.17461965847E-01  0.36607017324E-02 -0.15249754667E-01  0.10204592521E+01  0.10201893007E+01 0.  0.
     999903    2    3    3    0    0  0.10862373889E-01  0.93068337440E-01  0.87427531146E-01  0.12953915550E+00  0.18897433833E-01 0.  0.
         14    1    1    2    0    0  0.17461965847E-01 -0.36607017324E-02  0.15249754667E-01  0.23470747875E-01  0.00000000000E+00 0.  1.
     999901    1    3    3    0    0 -0.28324339736E-01 -0.89407635708E-01 -0.10267728581E+00  0.89092009662E+00  0.88000000000E+00 0.  1.
        -11    1    4    4    0    0  0.14452239000E-01  0.70422878530E-01  0.72928292332E-01  0.10240627899E+00  0.51100000000E-03 0.  1.
         11    1    4    4    0    0 -0.35898651109E-02  0.22645458910E-01  0.14499238814E-01  0.27132876514E-01  0.51100000000E-03 0. -1.
</event>
<event>
 8    1  0.1109294E+005  0.1043930E+01  0.7957747E-01            NaN
         13   -1    0    0    0    0  0.00000000000E+00  0.00000000000E+00  0.74505805969E-08  0.10566000000E+00  0.10566000000E+00 0. -1.
     999900   -1    0    0    0    0 -0.00000000000E+00 -0.00000000000E+00 -0.74505805969E-08  0.93827000000E+00  0.93827000000E+00 0. -1.
     999902    2    1    2    0    0  0.19453242134E-02 -0.20856348171E-01  0.65691709831E-02  0.10219771972E+01  0.10217413890E+01 0.  0.
     999903    2    3    3    0    0  0.10178837871E+00 -0.56006875044E-01 -0.61730650782E-01  0.13300640983E+00  0.19554736426E-01 0.  0.
         14    1    1    2    0    0 -0.19453242134E-02  0.20856348171E-01 -0.65691709831E-02  0.21952802844E-01  0.00000000000E+00 0. -1.
     999901    1    3    3    0    0 -0.99843054496E-01  0.35150526873E-01  0.68299821765E-01  0.88897078733E+00  0.88000000000E+00 0.  1.
        -11    1    4    4    0    0  0.92594764891E-01 -0.43767083992E-01 -0.55301141319E-01  0.11639512652E+00  0.51100000000E-03 0.  1.
         11    1    4    4    0    0  0.91936138183E-02 -0.12239791052E-01 -0.64295094626E-02  0.16611283303E-01  0.51100000000E-03 0. -1.
</event>
<event>
 8    1  0.1109294E+005  0.1043930E+01  0.7957747E-01            NaN
         13   -1    0    0    0    0  0.00000000000E+00  0.00000000000E+00  0.74505805969E-08  0.10566000000E+00  0.10566000000E+00 0.  1.
     999900   -1    0    0    0    0 -0.00000000000E+00 -0.00000000000E+00 -0.74505805969E-08  0.93827000000E+00  0.93827000000E+00 0.  1.
     999902    2    1    2    0    0 -0.20251763452E-01 -0.73448219350E-02 -0.63742766663E-02  0.10214642097E+01  0.10212171267E+01 0.  0.
     999903    2    3    3    0    0 -0.87639305147E-01  0.45108317838E-01 -0.87333237253E-01  0.13363158696E+00  0.22691376319E-01 0.  0.
         14    1    1    2    0    0  0.20251763452E-01  0.73448219350E-02  0.63742766663E-02  0.22465790331E-01  0.00000000000E+00 0.  1.
     999901    1    3    3    0    0  0.67387541695E-01 -0.52453139773E-01  0.80958960587E-01  0.88783262271E+00  0.88000000000E+00 0. -1.
        -11    1    4    4    0    0 -0.56435657703E-01  0.34632419893E-01 -0.45243796989E-01  0.80197570132E-01  0.51100000000E-03 0. -1.
         11    1    4    4    0    0 -0.31203647444E-01  0.10475897945E-01 -0.42089440265E-01  0.53434016828E-01  0.51100000000E-03 0.  1.
</event>
<event>
 8    1  0.1109294E+005  0.1043930E+01  0.7957747E-01            NaN
         13   -1    0    0    0    0  0.00000000000E+00  0.00000000000E+00  0.74505805969E-08  0.10566000000E+00  0.10566000000E+00 0.  1.
     999900   -1    0    0    0    0 -0.00000000000E+00 -0.00000000000E+00 -0.74505805969E-08  0.93827000000E+00  0.93827000000E+00 0.  1.
     999902    2    1    2    0    0  0.12104468146E-01 -0.13484073314E-01 -0.15010667444E-01  0.10204000506E+01  0.10201287197E+01 0.  0.
     999903    2    3    3    0    0  0.24876806996E-02  0.20233407676E-01 -0.12933358759E+00  0.13231273439E+00  0.19076253868E-01 0.  0.
         14    1    1    2    0    0 -0.12104468146E-01  0.13484073314E-01  0.15010667444E-01  0.23529949412E-01  0.00000000000E+00 0.  1.
     999901    1    3    3    0    0  0.96167874461E-02 -0.33717480990E-01  0.11432292014E+00  0.88808731620E+00  0.88000000000E+00 0. -1.
        -11    1    4    4    0    0 -0.72761414844E-02  0.12444611531E-01 -0.86420771867E-01  0.87616331367E-01  0.51100000000E-03 0.  1.
         11    1    4    4    0    0  0.97638221840E-02  0.77887961447E-02 -0.42912815720E-01  0.44696403021E-01  0.51100000000E-03 0. -1.
</event>
<event>
 8    1  0.1109294E+005  0.1043930E+01  0.7957747E-01            NaN
         13   -1    0    0    0    0  0.00000000000E+00  0.00000000000E+00  0.74505805969E-08  0.10566000000E+00  0.10566000000E+00 0. -1.
     999900   -1    0    0    0    0 -0.00000000000E+00 -0.00000000000E+00 -0.74505805969E-08  0.93827000000E+00  0.93827000000E+00 0. -1.
     999902    2    1    2    0    0 -0.81454142591E-02 -0.97971121287E-02 -0.20712253064E-01  0.10196127508E+01  0.10193227325E+01 0.  0.
     999903    2    3    3    0    0 -0.17135359383E-01 -0.69010704515E-01 -0.10986159225E+00  0.13308318376E+00  0.24196414362E-01 0.  0.
         14    1    1    2    0    0  0.81454142591E-02  0.97971121287E-02  0.20712253064E-01  0.24317249156E-01  0.00000000000E+00 0. -1.
     999901    1    3    3    0    0  0.89899451240E-02  0.59213592386E-01  0.89149339191E-01  0.88652956708E+00  0.88000000000E+00 0.  1.
        -11    1    4    4    0    0 -0.10845117128E-01 -0.78951506850E-02 -0.24063721312E-01  0.27554922868E-01  0.51100000000E-03 0. -1.
         11    1    4    4    0    0 -0.62902422550E-02 -0.61115553830E-01 -0.85797870943E-01  0.10552826089E+00  0.51100000000E-03 0.  1.
</event>
<event>
 8    1  0.1109294E+005  0.1043930E+01  0.7957747E-01            NaN
         13   -1    0    0    0    0  0.00000000000E+00  0.00000000000E+00  0.74505805969E-08  0.10566000000E+00  0.10566000000E+00 0.  1.
     999900   -1    0    0    0    0 -0.00000000000E+00 -0.00000000000E+00 -0.74505805969E-08  0.93827000000E+00  0.93827000000E+00 0. -1.
     999902    2    1    2    0    0 -0.23767847456E-01 -0.59706405510E-02 -0.25892034629E-02  0.10192872912E+01  0.10189893616E+01 0.  0.
     999903    2    3    3    0    0  0.56575592459E-01 -0.87869659282E-01  0.72169598993E-01  0.12869681511E+00  0.20797704565E-01 0.  0.
         14    1    1    2    0    0  0.23767847456E-01  0.59706405510E-02  0.25892034629E-02  0.24642708777E-01  0.00000000000E+00 0.  1.
     999901    1    3    3    0    0 -0.80343439916E-01  0.81899018731E-01 -0.74758802456E-01  0.89059047612E+00  0.88000000000E+00 0. -1.
        -11    1    4    4    0    0  0.29335779073E-01 -0.27019650338E-01  0.27108904684E-01  0.48226582632E-01  0.51100000000E-03 0.  1.
         11    1    4    4    0    0  0.27239813387E-01 -0.60850008944E-01  0.45060694309E-01  0.80470232474E-01  0.51100000000E-03 0. -1.
</event>
<event>
 8    1  0.1109294E+005  0.1043930E+01  0.7957747E-01            NaN
         13   -1    0    0    0    0  0.00000000000E+00  0.00000000000E+00  0.74505805969E-08  0.10566000000E+00  0.10566000000E+00 0. -1.
     999900   -1    0    0    0    0 -0.00000000000E+00 -0.00000000000E+00 -0.74505805969E-08  0.93827000000E+00  0.93827000000E+00 0.  1.
     999902    2    1    2    0    0  0.14064986389E-01 -0.19421372124E-01  0.58181552335E-02  0.10192548208E+01  0.10189560959E+01 0.  0.
     999903    2    3    3    0    0 -0.49676097398E-01  0.70884255465E-02  0.11769589062E+00  0.12948950187E+00  0.19931081153E-01 0.  0.
         14    1    1    2    0    0 -0.14064986389E-01  0.19421372124E-01 -0.58181552335E-02  0.24675179181E-01  0.00000000000E+00 0.  1.
     999901    1    3    3    0    0  0.63741083787E-01 -0.26509797670E-01 -0.11187773538E+00  0.88976531895E+00  0.88000000000E+00 0.  1.
        -11    1    4    4    0    0 -0.11339050597E-01  0.75403203282E-02  0.48526255409E-01  0.50403264618E-01  0.51100000000E-03 0. -1.
         11    1    4    4    0    0 -0.38337046800E-01 -0.45189478165E-03  0.69169635209E-01  0.79086237249E-01  0.51100000000E-03 0.  1.
</event>
<event>
 8    1  0.1109294E+005  0.1043930E+01  0.7957747E-01            NaN
         13   -1    0    0    0    0  0.00000000000E+00  0.00000000000E+00  0.74505805969E-08  0.10566000000E+00  0.10566000000E+00 0.  1.
     999900   -1    0    0    0    0 -0.00000000000E+00 -0.00000000000E+00 -0.74505805969E-08  0.93827000000E+00  0.93827000000E+00 0.  1.
     999902    2    1    2    0    0 -0.40867721355E-03  0.74168111171E-02  0.22772201663E-01  0.10199769360E+01  0.10196956413E+01 0.  0.
     999903    2    3    3    0    0  0.74679558132E-01 -0.10279311822E+00  0.19502801066E-01  0.12992347665E+00  0.18875618619E-01 0.  0.
         14    1    1    2    0    0  0.40867721355E-03 -0.74168111171E-02 -0.22772201663E-01  0.23953063954E-01  0.00000000000E+00 0. -1.
     999901    1    3    3    0    0 -0.75088235345E-01  0.11020992934E+00  0.32694005969E-02  0.89005345940E+00  0.88000000000E+00 0. -1.
        -11    1    4    4    0    0  0.34989159835E-01 -0.54875679250E-01  0.18619841880E-01  0.67694468842E-01  0.51100000000E-03 0.  1.
         11    1    4    4    0    0  0.39690398296E-01 -0.47917438969E-01  0.88295918541E-03  0.62229007803E-01  0.51100000000E-03 0. -1.
</event>
<event>
 8    1  0.1109294E+005  0.1043930E+01  0.7957747E-01            NaN
         13   -1    0    0    0    0  0.00000000000E+00  0.00000000000E+00  0.74505805969E-08  0.10566000000E+00  0.10566000000E+00 0.  1.
     999900   -1    0    0    0    0 -0.00000000000E+00 -0.00000000000E+00 -0.74505805969E-08  0.93827000000E+00  0.93827000000E+00 0.  1.
     999902    2    1    2    0    0 -0.22398607828E-02  0.92365534197E-02  0.21693908119E-01  0.10202454788E+01  0.10199705292E+01 0.  0.
     999903    2    3    3    0    0  0.40972156817E-02  0.10314881095E+00  0.81609497353E-01  0.13320007495E+00  0.20632148002E-01 0.  0.
         14    1    1    2    0    0  0.22398607828E-02 -0.92365534197E-02 -0.21693908119E-01  0.23684521208E-01  0.00000000000E+00 0. -1.
     999901    1    3    3    0    0 -0.63370764645E-02 -0.93912257527E-01 -0.59915589234E-01  0.88704540385E+00  0.88000000000E+00 0. -1.
        -11    1    4    4    0    0  0.34724308897E-02  0.96155390439E-01  0.67824280477E-01  0.11772132785E+00  0.51100000000E-03 0.  1.
         11    1    4    4    0    0  0.62478479202E-03  0.69934205080E-02  0.13785216876E-01  0.15478747099E-01  0.51100000000E-03 0. -1.
</event>
<event>
 8    1  0.1109294E+005  0.1043930E+01  0.7957747E-01            NaN
         13   -1    0    0    0    0  0.00000000000E+00  0.00000000000E+00  0.74505805969E-08  0.10566000000E+00  0.10566000000E+00 0. -1.
     999900   -1    0    0    0    0 -0.00000000000E+00 -0.00000000000E+00 -0.74505805969E-08  0.93827000000E+00  0.93827000000E+00 0.  1.
     999902    2    1    2    0    0 -0.59922594658E-02  0.22208980058E-01 -0.28668795566E-02  0.10207488661E+01  0.10204856112E+01 0.  0.
     999903    2    3    3    0    0  0.96510480313E-01 -0.54028282776E-02 -0.85417406180E-01  0.13053326693E+00  0.19983421481E-01 0.  0.
         14    1    1    2    0    0  0.59922594658E-02 -0.22208980058E-01  0.28668795566E-02  0.23181133862E-01  0.00000000000E+00 0.  1.
     999901    1    3    3    0    0 -0.10250273978E+00  0.27611808336E-01  0.82550526624E-01  0.89021559920E+00  0.88000000000E+00 0.  1.
        -11    1    4    4    0    0  0.83061429324E-01 -0.10839081484E-01 -0.76846735066E-01  0.11367659627E+00  0.51100000000E-03 0. -1.
         11    1    4    4    0    0  0.13449050989E-01  0.54362532063E-02 -0.85706711145E-02  0.16856670661E-01  0.51100000000E-03 0.  1.
</event>
<event>
 8    1  0.1109294E+005  0.1043930E+01  0.7957747E-01            NaN
         13   -1    0    0    0    0  0.00000000000E+00  0.00000000000E+00  0.74505805969E-08  0.10566000000E+00  0.10566000000E+00 0.  1.
     999900   -1    0    0    0    0 -0.00000000000E+00 -0.00000000000E+00 -0.74505805969E-08  0.93827000000E+00  0.93827000000E+00 0. -1.
     999902    2    1    2    0    0  0.10851751189E-01 -0.27273417839E-01  0.31405983422E-02  0.10144094447E+01  0.10139798116E+01 0.  0.
     999903    2    3    3    0    0  0.24737385438E-01  0.10058911482E+00  0.63113097069E-01  0.12304064414E+00  0.20630773861E-01 0.  0.
         14    1    1    2    0    0 -0.10851751189E-01  0.27273417839E-01 -0.31405983422E-02  0.29520555252E-01  0.00000000000E+00 0. -1.
     999901    1    3    3    0    0 -0.13885634249E-01 -0.12786253266E+00 -0.59972498726E-01  0.89136880061E+00  0.88000000000E+00 0. -1.
        -11    1    4    4    0    0  0.67215094782E-02  0.19935637106E-01  0.23008178531E-01  0.31180854972E-01  0.51100000000E-03 0. -1.
         11    1    4    4    0    0  0.18015875960E-01  0.80653477712E-01  0.40104918538E-01  0.91859789166E-01  0.51100000000E-03 0.  1.
</event>
<event>
 8    1  0.1109294E+005  0.1043930E+01  0.7957747E-01            NaN
         13   -1    0    0    0    0  0.00000000000E+00  0.00000000000E+00  0.74505805969E-08  0.10566000000E+00  0.10566000000E+00 0.  1.
     999900   -1    0    0    0    0 -0.00000000000E+00 -0.00000000000E+00 -0.74505805969E-08  0.93827000000E+00  0.93827000000E+00 0. -1.
     999902    2    1    2    0    0 -0.78390625799E-03  0.21628392273E-01 -0.35816125485E-02  0.10219930492E+01  0.10217575852E+01 0.  0.
     999903    2    3    3    0    0 -0.31258798841E-01 -0.12298972360E+00  0.14795089830E-01  0.12947928366E+00  0.21033439986E-01 0.  0.
         14    1    1    2    0    0  0.78390625799E-03 -0.21628392273E-01  0.35816125485E-02  0.21936950786E-01  0.00000000000E+00 0.  1.
     999901    1    3    3    0    0  0.30474892583E-01  0.14461811587E+00 -0.18376702378E-01  0.89251376556E+00  0.88000000000E+00 0.  1.
        -11    1    4    4    0    0 -0.90418276019E-02 -0.65269747293E-01  0.15210040735E-01  0.67627664593E-01  0.51100000000E-03 0.  1.
         11    1    4    4    0    0 -0.22216971239E-01 -0.57719976306E-01 -0.41495090543E-03  0.61851619066E-01  0.51100000000E-03 0. -1.
</event>
<event>
 8    1  0.1109294E+005  0.1043930E+01  0.7957747E-01            NaN
         13   -1    0    0    0    0  0.00000000000E+00  0.00000000000E+00  0.74505805969E-08  0.10566000000E+00  0.10566000000E+00 0. -1.
     999900   -1    0    0    0    0 -0.00000000000E+00 -0.00000000000E+00 -0.74505805969E-08  0.93827000000E+00  0.93827000000E+00 0.  1.
     999902    2    1    2    0    0 -0.77978832380E-03  0.13208375393E-01  0.19690872468E-01  0.10202066000E+01  0.10199307363E+01 0.  0.
     999903    2    3    3    0    0  0.71268655652E-01 -0.10569269265E+00  0.12972742642E-02  0.12910235988E+00  0.20385530305E-01 0.  0.
         14    1    1    2    0    0  0.77978832380E-03 -0.13208375393E-01 -0.19690872468E-01  0.23723400028E-01  0.00000000000E+00 0.  1.
     999901    1    3    3    0    0 -0.72048443976E-01  0.11890106805E+00  0.18393598204E-01  0.89110424010E+00  0.88000000000E+00 0.  1.
        -11    1    4    4    0    0  0.33702944735E-01 -0.38824789190E-01 -0.72686299899E-02  0.51926359803E-01  0.51100000000E-03 0.  1.
         11    1    4    4    0    0  0.37565710917E-01 -0.66867903465E-01  0.85659042542E-02  0.77176000072E-01  0.51100000000E-03 0. -1.
</event>
<event>
 8    1  0.1109294E+005  0.1043930E+01  0.7957747E-01            NaN
         13   -1    0    0    0    0  0.00000000000E+00  0.00000000000E+00  0.74505805969E-08  0.10566000000E+00  0.10566000000E+00 0. -1.
     999900   -1    0    0    0    0 -0.00000000000E+00 -0.00000000000E+00 -0.74505805969E-08  0.93827000000E+00  0.93827000000E+00 0.  1.
     999902    2    1    2    0    0  0.13719508439E-02 -0.16910589111E-01 -0.13300236132E-01  0.10223720188E+01  0.10221447051E+01 0.  0.
     999903    2    3    3    0    0  0.21738255026E-01  0.12445520414E+00  0.23614328283E-01  0.13009304956E+00  0.20122511649E-01 0.  0.
         14    1    1    2    0    0 -0.13719508439E-02  0.16910589111E-01  0.13300236132E-01  0.21557981222E-01  0.00000000000E+00 0. -1.
     999901    1    3    3    0    0 -0.20366304182E-01 -0.14136579325E+00 -0.36914564415E-01  0.89227896922E+00  0.88000000000E+00 0. -1.
        -11    1    4    4    0    0  0.16466071214E-02  0.31311497757E-01  0.13933764385E-01  0.34315187858E-01  0.51100000000E-03 0.  1.
         11    1    4    4    0    0  0.20091647904E-01  0.93143706379E-01  0.96805638980E-02  0.95777861700E-01  0.51100000000E-03 0. -1.
</event>
<event>
 8    1  0.1109294E+005  0.1043930E+01  0.7957747E-01            NaN
         13   -1    0    0    0    0  0.00000000000E+00  0.00000000000E+00  0.74505805969E-08  0.10566000000E+00  0.10566000000E+00 0. -1.
     999900   -1    0    0    0    0 -0.00000000000E+00 -0.00000000000E+00 -0.74505805969E-08  0.93827000000E+00  0.93827000000E+00 0.  1.
     999902    2    1    2    0    0 -0.22099205089E-01  0.10104679199E-01 -0.39746661743E-02  0.10193072995E+01  0.10190098594E+01 0.  0.
     999903    2    3    3    0    0  0.77029160792E-01  0.41070391278E-01  0.91533995857E-01  0.12806815498E+00  0.20067667311E-01 0.  0.
         14    1    1    2    0    0  0.22099205089E-01 -0.10104679199E-01  0.39746661743E-02  0.24622700471E-01  0.00000000000E+00 0.  1.
     999901    1    3    3    0    0 -0.99128365881E-01 -0.30965712079E-01 -0.95508662032E-01  0.89123914455E+00  0.88000000000E+00 0. -1.
        -11    1    4    4    0    0  0.19258744852E-01  0.10758720701E-01  0.36796041217E-01  0.42905233884E-01  0.51100000000E-03 0. -1.
         11    1    4    4    0    0  0.57770415940E-01  0.30311670578E-01  0.54737954640E-01  0.85162921100E-01  0.51100000000E-03 0.  1.
</event>
<event>
 8    1  0.1109294E+005  0.1043930E+01  0.7957747E-01            NaN
         13   -1    0    0    0    0  0.00000000000E+00  0.00000000000E+00  0.74505805969E-08  0.10566000000E+00  0.10566000000E+00 0.  1.
     999900   -1    0    0    0    0 -0.00000000000E+00 -0.00000000000E+00 -0.74505805969E-08  0.93827000000E+00  0.93827000000E+00 0. -1.
     999902    2    1    2    0    0  0.13493271885E-01 -0.65058369011E-02 -0.17693386323E-01  0.10207470274E+01  0.10204837302E+01 0.  0.
     999903    2    3    3    0    0  0.12167565815E+00 -0.44102839998E-01 -0.24489900264E-01  0.13329947629E+00  0.20468729341E-01 0.  0.
         14    1    1    2    0    0 -0.13493271885E-01  0.65058369011E-02  0.17693386323E-01  0.23182972620E-01  0.00000000000E+00 0.  1.
     999901    1    3    3    0    0 -0.10818238627E+00  0.37597003097E-01  0.67965139409E-02  0.88744755109E+00  0.88000000000E+00 0.  1.
        -11    1    4    4    0    0  0.23773757034E-01 -0.74533264132E-02  0.32821285578E-02  0.25135176288E-01  0.51100000000E-03 0. -1.
         11    1    4    4    0    0  0.97901901117E-01 -0.36649513585E-01 -0.27772028821E-01  0.10816430000E+00  0.51100000000E-03 0.  1.
</event>
<event>
 8    1  0.1109294E+005  0.1043930E+01  0.7957747E-01            NaN
         13   -1    0    0    0    0  0.00000000000E+00  0.00000000000E+00  0.74505805969E-08  0.10566000000E+00  0.10566000000E+00 0. -1.
     999900   -1    0    0    0    0 -0.00000000000E+00 -0.00000000000E+00 -0.74505805969E-08  0.93827000000E+00  0.93827000000E+00 0.  1.
     999902    2    1    2    0    0  0.11120350296E-01  0.11097430301E-01 -0.18491006847E-01  0.10196661898E+01  0.10193774601E+01 0.  0.
     999903    2    3    3    0    0  0.58895922486E-01 -0.60332964278E-01 -0.99272535296E-01  0.13179769624E+00  0.20169288662E-01 0.  0.
         14    1    1    2    0    0 -0.11120350296E-01 -0.11097430301E-01  0.18491006847E-01  0.24263810175E-01  0.00000000000E+00 0. -1.
     999901    1    3    3    0    0 -0.47775572190E-01  0.71430394579E-01  0.80781528449E-01  0.88786849359E+00  0.88000000000E+00 0. -1.
        -11    1    4    4    0    0  0.24538530300E-01 -0.12584964040E-01 -0.36774793005E-01  0.45969199587E-01  0.51100000000E-03 0.  1.
         11    1    4    4    0    0  0.34357392186E-01 -0.47748000238E-01 -0.62497742292E-01  0.85828496649E-01  0.51100000000E-03 0. -1.
</event>
<event>
 8    1  0.1109294E+005  0.1043930E+01  0.7957747E-01            NaN
         13   -1    0    0    0    0  0.00000000000E+00  0.00000000000E+00  0.74505805969E-08  0.10566000000E+00  0.10566000000E+00 0. -1.
     999900   -1    0    0    0    0 -0.00000000000E+00 -0.00000000000E+00 -0.74505805969E-08  0.93827000000E+00  0.93827000000E+00 0. -1.
     999902    2    1    2    0    0  0.67038452325E-02  0.12653628547E-01  0.18114367024E-01  0.10208391761E+01  0.10205779918E+01 0.  0.
     999903    2    3    3    0    0 -0.20856487467E-01  0.11356977614E+00  0.64267434983E-01  0.13344200094E+00  0.18530442347E-01 0.  0.
         14    1    1    2    0    0 -0.67038452325E-02 -0.12653628547E-01 -0.18114367024E-01  0.23090823913E-01  0.00000000000E+00 0. -1.
     999901    1    3    3    0    0  0.27560332699E-01 -0.10091614759E+00 -0.46153067959E-01  0.88739717515E+00  0.88000000000E+00 0. -1.
        -11    1    4    4    0    0 -0.82119291475E-03  0.46399356327E-01  0.31314243986E-01  0.55985869849E-01  0.51100000000E-03 0.  1.
         11    1    4    4    0    0 -0.20035294552E-01  0.67170419809E-01  0.32953190997E-01  0.77456131087E-01  0.51100000000E-03 0. -1.
</event>
<event>
 8    1  0.1109294E+005  0.1043930E+01  0.7957747E-01            NaN
         13   -1    0    0    0    0  0.00000000000E+00  0.00000000000E+00  0.74505805969E-08  0.10566000000E+00  0.10566000000E+00 0.  1.
     999900   -1    0    0    0    0 -0.00000000000E+00 -0.00000000000E+00 -0.74505805969E-08  0.93827000000E+00  0.93827000000E+00 0.  1.
     999902    2    1    2    0    0 -0.32597194258E-02 -0.21113032879E-01  0.17921938645E-01  0.10160448460E+01  0.10156621226E+01 0.  0.
     999903    2    3    3    0    0 -0.29674362795E-01 -0.12443358458E+00 -0.95421778546E-03  0.12940558506E+00  0.19509231988E-01 0.  0.
         14    1    1    2    0    0  0.32597194258E-02  0.21113032879E-01 -0.17921938645E-01  0.27885153987E-01  0.00000000000E+00 0.  1.
     999901    1    3    3    0    0  0.26414643369E-01  0.10332055170E+00  0.18876156431E-01  0.88663926096E+00  0.88000000000E+00 0. -1.
        -11    1    4    4    0    0 -0.87174544753E-02 -0.77595220032E-01 -0.27310713967E-03  0.78085516537E-01  0.51100000000E-03 0. -1.
         11    1    4    4    0    0 -0.20956908319E-01 -0.46838364551E-01 -0.68111064579E-03  0.51320068519E-01  0.51100000000E-03 0.  1.
</event>
<event>
 8    1  0.1109294E+005  0.1043930E+01  0.7957747E-01            NaN
         13   -1    0    0    0    0  0.00000000000E+00  0.00000000000E+00  0.74505805969E-08  0.10566000000E+00  0.10566000000E+00 0.  1.
     999900   -1    0    0    0    0 -0.00000000000E+00 -0.00000000000E+00 -0.74505805969E-08  0.93827000000E+00  0.93827000000E+00 0.  1.
     999902    2    1    2    0    0 -0.23398035406E-02  0.23575328245E-01 -0.51217436606E-02  0.10196915380E+01  0.10194034185E+01 0.  0.
     999903    2    3    3    0    0  0.41389093171E-02  0.34201303113E-01  0.12446206960E+00  0.13011475675E+00  0.15880284977E-01 0.  0.
         14    1    1    2    0    0  0.23398035406E-02 -0.23575328245E-01  0.51217436606E-02  0.24238462010E-01  0.00000000000E+00 0.  1.
     999901    1    3    3    0    0 -0.64787128577E-02 -0.10625974867E-01 -0.12958381326E+00  0.88957678124E+00  0.88000000000E+00 0.  1.
        -11    1    4    4    0    0  0.90352205502E-03  0.14434475094E-02  0.30510186109E-01  0.30561944804E-01  0.51100000000E-03 0.  1.
         11    1    4    4    0    0  0.32353872621E-02  0.32757855603E-01  0.93951883488E-01  0.99552811946E-01  0.51100000000E-03 0. -1.
</event>
<event>
 8    1  0.1109294E+005  0.1043930E+01  0.7957747E-01            NaN
         13   -1    0    0    0    0  0.00000000000E+00  0.00000000000E+00  0.74505805969E-08  0.10566000000E+00  0.10566000000E+00 0.  1.
     999900   -1    0    0    0    0 -0.00000000000E+00 -0.00000000000E+00 -0.74505805969E-08  0.93827000000E+00  0.93827000000E+00 0.  1.
     999902    2    1    2    0    0  0.41307410465E-02 -0.14369512026E-01 -0.18334929897E-01  0.10202716917E+01  0.10199973575E+01 0.  0.
     999903    2    3    3    0    0 -0.92706841405E-01  0.48555835283E-01  0.71233672425E-01  0.12821807715E+00  0.20332526572E-01 0.  0.
         14    1    1    2    0    0 -0.41307410465E-02  0.14369512026E-01  0.18334929897E-01  0.23658308303E-01  0.00000000000E+00 0.  1.
     999901    1    3    3    0    0  0.96837582452E-01 -0.62925347309E-01 -0.89568602321E-01  0.89205361455E+00  0.88000000000E+00 0.  1.
        -11    1    4    4    0    0 -0.38494997838E-01  0.27007784342E-01  0.22175055730E-01  0.51993071570E-01  0.51100000000E-03 0.  1.
         11    1    4    4    0    0 -0.54211843567E-01  0.21548050941E-01  0.49058616694E-01  0.76225005578E-01  0.51100000000E-03 0. -1.
</event>
<event>
 8    1  0.1109294E+005  0.1043930E+01  0.7957747E-01            NaN
         13   -1    0    0    0    0  0.00000000000E+00  0.00000000000E+00  0.74505805969E-08  0.10566000000E+00  0.10566000000E+00 0.  1.
     999900   -1    0    0    0    0 -0.00000000000E+00 -0.00000000000E+00 -0.74505805969E-08  0.93827000000E+00  0.93827000000E+00 0.  1.
     999902    2    1    2    0    0 -0.75492099959E-02 -0.39448797241E-02  0.21044891744E-01  0.10212266937E+01  0.10209742993E+01 0.  0.
     999903    2    3    3    0    0 -0.10621479277E+00  0.61028668223E-01 -0.42093268876E-01  0.13109025110E+00  0.20167550673E-01 0.  0.
         14    1    1    2    0    0  0.75492099959E-02  0.39448797241E-02 -0.21044891744E-01  0.22703306281E-01  0.00000000000E+00 0. -1.
     999901    1    3    3    0    0  0.98665582772E-01 -0.64973547947E-01  0.63138160620E-01  0.89013644262E+00  0.88000000000E+00 0. -1.
        -11    1    4    4    0    0 -0.66695674522E-01  0.26996252558E-01 -0.26015129794E-01  0.76512474482E-01  0.51100000000E-03 0.  1.
         11    1    4    4    0    0 -0.39519118246E-01  0.34032415664E-01 -0.16078139082E-01  0.54577776615E-01  0.51100000000E-03 0. -1.
</event>
<event>
 8    1  0.1109294E+005  0.1043930E+01  0.7957747E-01            NaN
         13   -1    0    0    0    0  0.00000000000E+00  0.00000000000E+00  0.74505805969E-08  0.10566000000E+00  0.10566000000E+00 0.  1.
     999900   -1    0    0    0    0 -0.00000000000E+00 -0.00000000000E+00 -0.74505805969E-08  0.93827000000E+00  0.93827000000E+00 0.  1.
     999902    2    1    2    0    0 -0.78062435615E-02 -0.26442354405E-02 -0.21868521970E-01  0.10205598979E+01  0.10202922834E+01 0.  0.
     999903    2    3    3    0    0  0.10425538498E+00 -0.74988650299E-01  0.35903670929E-02  0.13014444542E+00  0.20789491754E-01 0.  0.
         14    1    1    2    0    0  0.78062435615E-02  0.26442354405E-02  0.21868521970E-01  0.23370102113E-01  0.00000000000E+00 0.  1.
     999901    1    3    3    0    0 -0.11206162854E+00  0.72344414859E-01 -0.25458889063E-01  0.89041545246E+00  0.88000000000E+00 0.  1.
        -11    1    4    4    0    0  0.72407509914E-01 -0.47807174051E-01 -0.66973489115E-02  0.87025794946E-01  0.51100000000E-03 0.  1.
         11    1    4    4    0    0  0.31847875068E-01 -0.27181476249E-01  0.10287716004E-01  0.43118650477E-01  0.51100000000E-03 0. -1.
</event>
<event>
 8    1  0.1109294E+005  0.1043930E+01  0.7957747E-01            NaN
         13   -1    0    0    0    0  0.00000000000E+00  0.00000000000E+00  0.74505805969E-08  0.10566000000E+00  0.10566000000E+00 0.  1.
     999900   -1    0    0    0    0 -0.00000000000E+00 -0.00000000000E+00 -0.74505805969E-08  0.93827000000E+00  0.93827000000E+00 0. -1.
     999902    2    1    2    0    0 -0.19476186649E-01 -0.67754763381E-02  0.11228329044E-01  0.10204501299E+01  0.10201799662E+01 0.  0.
     999903    2    3    3    0    0 -0.84868678044E-01  0.92430250849E-01  0.36387780454E-01  0.13210844327E+00  0.19558282956E-01 0.  0.
         14    1    1    2    0    0  0.19476186649E-01  0.67754763381E-02 -0.11228329044E-01  0.23479870083E-01  0.00000000000E+00 0.  1.
     999901    1    3    3    0    0  0.65392491394E-01 -0.99205727187E-01 -0.25159451409E-01  0.88834168665E+00  0.88000000000E+00 0. -1.
        -11    1    4    4    0    0 -0.64135964542E-01  0.58981443995E-01  0.30474306465E-01  0.92310222397E-01  0.51100000000E-03 0. -1.
         11    1    4    4    0    0 -0.20732713502E-01  0.33448806854E-01  0.59134739886E-02  0.39798220874E-01  0.51100000000E-03 0.  1.
</event>
<event>
 8    1  0.1109294E+005  0.1043930E+01  0.7957747E-01            NaN
         13   -1    0    0    0    0  0.00000000000E+00  0.00000000000E+00  0.74505805969E-08  0.10566000000E+00  0.10566000000E+00 0.  1.
     999900   -1    0    0    0    0 -0.00000000000E+00 -0.00000000000E+00 -0.74505805969E-08  0.93827000000E+00  0.93827000000E+00 0. -1.
     999902    2    1    2    0    0 -0.18745218212E-01  0.41537730272E-03 -0.11059872707E-01  0.10221612947E+01  0.10219294672E+01 0.  0.
     999903    2    3    3    0    0  0.28403770518E-01 -0.10682524513E+00 -0.70306492956E-01  0.13242327699E+00  0.19352368313E-01 0.  0.
         14    1    1    2    0    0  0.18745218212E-01 -0.41537730272E-03  0.11059872707E-01  0.21768705254E-01  0.00000000000E+00 0. -1.
     999901    1    3    3    0    0 -0.47148988730E-01  0.10724062243E+00  0.59246620249E-01  0.88973801776E+00  0.88000000000E+00 0.  1.
        -11    1    4    4    0    0  0.19352826102E-01 -0.74047626006E-01 -0.58819288763E-01  0.96527470944E-01  0.51100000000E-03 0. -1.
         11    1    4    4    0    0  0.90509444166E-02 -0.32777619123E-01 -0.11487204193E-01  0.35895806042E-01  0.51100000000E-03 0.  1.
</event>
<event>
 8    1  0.1109294E+005  0.1043930E+01  0.7957747E-01            NaN
         13   -1    0    0    0    0  0.00000000000E+00  0.00000000000E+00  0.74505805969E-08  0.10566000000E+00  0.10566000000E+00 0.  1.
     999900   -1    0    0    0    0 -0.00000000000E+00 -0.00000000000E+00 -0.74505805969E-08  0.93827000000E+00  0.93827000000E+00 0.  1.
     999902    2    1    2    0    0 -0.24597549038E-01 -0.11286731579E-03 -0.38257659342E-02  0.10190364538E+01  0.10187323522E+01 0.  0.
     999903    2    3    3    0    0  0.98043225167E-01 -0.22816221099E-01 -0.75369609173E-01  0.12736682704E+00  0.20215753688E-01 0.  0.
         14    1    1    2    0    0  0.24597549038E-01  0.11286731579E-03  0.38257659342E-02  0.24893546205E-01  0.00000000000E+00 0. -1.
     999901    1    3    3    0    0 -0.12264077420E+00  0.22703353783E-01  0.71543843239E-01  0.89166962675E+00  0.88000000000E+00 0. -1.
        -11    1    4    4    0    0  0.52043897076E-01 -0.19506724879E-01 -0.32428306674E-01  0.64350102821E-01  0.51100000000E-03 0.  1.
         11    1    4    4    0    0  0.45999328090E-01 -0.33094962201E-02 -0.42941302499E-01  0.63016724219E-01  0.51100000000E-03 0. -1.
</event>
<event>
 8    1  0.1109294E+005  0.1043930E+01  0.7957747E-01            NaN
         13   -1    0    0    0    0  0.00000000000E+00  0.00000000000E+00  0.74505805969E-08  0.10566000000E+00  0.10566000000E+00 0. -1.
     999900   -1    0    0    0    0 -0.00000000000E+00 -0.00000000000E+00 -0.74505805969E-08  0.93827000000E+00  0.93827000000E+00 0. -1.
     999902    2    1    2    0    0  0.10406074416E-01 -0.21740622807E-01  0.14898296839E-01  0.10155945044E+01  0.10151991415E+01 0.  0.
     999903    2    3    3    0    0 -0.73468814443E-01  0.96235492328E-01  0.13349206077E-01  0.12376730113E+00  0.21936427410E-01 0.  0.
         14    1    1    2    0    0 -0.10406074416E-01  0.21740622807E-01 -0.14898296839E-01  0.28335495646E-01  0.00000000000E+00 0.  1.
     999901    1    3    3    0    0  0.83874888859E-01 -0.11797611514E+00  0.15490907622E-02  0.89182720322E+00  0.88000000000E+00 0.  1.
        -11    1    4    4    0    0 -0.35378874174E-01  0.63245680290E-01  0.45583701049E-02  0.72613501996E-01  0.51100000000E-03 0.  1.
         11    1    4    4    0    0 -0.38089940269E-01  0.32989812038E-01  0.87908359722E-02  0.51153799137E-01  0.51100000000E-03 0. -1.
</event>
<event>
 8    1  0.1109294E+005  0.1043930E+01  0.7957747E-01            NaN
         13   -1    0    0    0    0  0.00000000000E+00  0.00000000000E+00  0.74505805969E-08  0.10566000000E+00  0.10566000000E+00 0.  1.
     999900   -1    0    0    0    0 -0.00000000000E+00 -0.00000000000E+00 -0.74505805969E-08  0.93827000000E+00  0.93827000000E+00 0.  1.
     999902    2    1    2    0    0 -0.34841095884E-02  0.13497837571E-01 -0.18100963866E-01  0.10210832162E+01  0.10208275852E+01 0.  0.
     999903    2    3    3    0    0  0.81168943218E-01 -0.95583825904E-01 -0.28460466393E-01  0.13025648332E+00  0.20786730926E-01 0.  0.
         14    1    1    2    0    0  0.34841095884E-02 -0.13497837571E-01  0.18100963866E-01  0.22846783834E-01  0.00000000000E+00 0.  1.
     999901    1    3    3    0    0 -0.84653052806E-01  0.10908166347E+00  0.10359502527E-01  0.89082673284E+00  0.88000000000E+00 0.  1.
        -11    1    4    4    0    0  0.72590511180E-01 -0.83324184053E-01 -0.31640646896E-01  0.11495083131E+00  0.51100000000E-03 0. -1.
         11    1    4    4    0    0  0.85784320379E-02 -0.12259641851E-01  0.31801805025E-02  0.15305652014E-01  0.51100000000E-03 0.  1.
</event>
<event>
 8    1  0.1109294E+005  0.1043930E+01  0.7957747E-01            NaN
         13   -1    0    0    0    0  0.00000000000E+00  0.00000000000E+00  0.74505805969E-08  0.10566000000E+00  0.10566000000E+00 0.  1.
     999900   -1    0    0    0    0 -0.00000000000E+00 -0.00000000000E+00 -0.74505805969E-08  0.93827000000E+00  0.93827000000E+00 0.  1.
     999902    2    1    2    0    0  0.83399370579E-02 -0.60088611113E-02  0.16542905055E-01  0.10244536382E+01  0.10242684844E+01 0.  0.
     999903    2    3    3    0    0 -0.10014055755E+00  0.62064705673E-01  0.60840806936E-01  0.13408049600E+00  0.19895141680E-01 0.  0.
         14    1    1    2    0    0 -0.83399370579E-02  0.60088611113E-02 -0.16542905055E-01  0.19476361817E-01  0.00000000000E+00 0. -1.
     999901    1    3    3    0    0  0.10848049461E+00 -0.68073566784E-01 -0.44297901881E-01  0.89037314218E+00  0.88000000000E+00 0.  1.
        -11    1    4    4    0    0 -0.53695256403E-01  0.43026624008E-01  0.41035068831E-01  0.80116221382E-01  0.51100000000E-03 0. -1.
         11    1    4    4    0    0 -0.46445301149E-01  0.19038081665E-01  0.19805738106E-01  0.53964274620E-01  0.51100000000E-03 0.  1.
</event>
<event>
 8    1  0.1109294E+005  0.1043930E+01  0.7957747E-01            NaN
         13   -1    0    0    0    0  0.00000000000E+00  0.00000000000E+00  0.74505805969E-08  0.10566000000E+00  0.10566000000E+00 0.  1.
     999900   -1    0    0    0    0 -0.00000000000E+00 -0.00000000000E+00 -0.74505805969E-08  0.93827000000E+00  0.93827000000E+00 0.  1.
     999902    2    1    2    0    0 -0.12286500195E-01 -0.42511770741E-02  0.26471495795E-01  0.10144381251E+01  0.10140093387E+01 0.  0.
     999903    2    3    3    0    0 -0.16160052697E-01  0.10584626349E+00  0.64515032621E-01  0.12675363078E+00  0.20969374882E-01 0.  0.
         14    1    1    2    0    0  0.12286500195E-01  0.42511770741E-02 -0.26471495795E-01  0.29491874867E-01  0.00000000000E+00 0. -1.
     999901    1    3    3    0    0  0.38735525024E-02 -0.11009744056E+00 -0.38043536827E-01  0.88768449436E+00  0.88000000000E+00 0.  1.
        -11    1    4    4    0    0 -0.95841903508E-02  0.68013194311E-01  0.29394866629E-01  0.74712586692E-01  0.51100000000E-03 0.  1.
         11    1    4    4    0    0 -0.65758623464E-02  0.37833069179E-01  0.35120165992E-01  0.52041044085E-01  0.51100000000E-03 0. -1.
</event>
<event>
 8    1  0.1109294E+005  0.1043930E+01  0.7957747E-01            NaN
         13   -1    0    0    0    0  0.00000000000E+00  0.00000000000E+00  0.74505805969E-08  0.10566000000E+00  0.10566000000E+00 0.  1.
     999900   -1    0    0    0    0 -0.00000000000E+00 -0.00000000000E+00 -0.74505805969E-08  0.93827000000E+00  0.93827000000E+00 0. -1.
     999902    2    1    2    0    0  0.15241171465E-01 -0.11137309554E-01  0.14008922404E-01  0.10204229185E+01  0.10201521209E+01 0.  0.
     999903    2    3    3    0    0 -0.89921195567E-01  0.28961334582E-01 -0.83945532443E-01  0.12786362083E+00  0.19433805669E-01 0.  0.
         14    1    1    2    0    0 -0.15241171465E-01  0.11137309554E-01 -0.14008922404E-01  0.23507081457E-01  0.00000000000E+00 0. -1.
     999901    1    3    3    0    0  0.10516236703E+00 -0.40098644136E-01  0.97954454847E-01  0.89255929771E+00  0.88000000000E+00 0. -1.
        -11    1    4    4    0    0 -0.72647719205E-01  0.21383737695E-01 -0.56184984145E-01  0.94297237011E-01  0.51100000000E-03 0. -1.
         11    1    4    4    0    0 -0.17273476363E-01  0.75775968872E-02 -0.27760548297E-01  0.33566383824E-01  0.51100000000E-03 0.  1.
</event>
<event>
 7    1  0.1109294E+005  0.1043930E+01  0.7957747E-01            NaN
         13   -1    0    0    0    0  0.00000000000E+00  0.00000000000E+00  0.74505805969E-08  0.10566000000E+00  0.10566000000E+00 0.  1.
     999900   -1    0    0    0    0 -0.00000000000E+00 -0.00000000000E+00 -0.74505805969E-08  0.93827000000E+00  0.93827000000E+00 0.  1.
     999902    2    1    2    0    0 -0.22237353209E-01  0.73612146950E-02 -0.53971149860E-02  0.10198921921E+01  0.10196088795E+01 0.  0.
         14    1    1    2    0    0  0.22237353209E-01 -0.73612146950E-02  0.53971149860E-02  0.24037807922E-01  0.00000000000E+00 0. -1.
     999901    1    3    3    0    0  0.43550732430E-01  0.69783179128E-01  0.77217195669E-01  0.88720282557E+00  0.88000000000E+00 0.  1.
        -11    1    3    3    0    0 -0.56661880151E-01 -0.19689127010E-01 -0.51255333740E-01  0.78902476149E-01  0.51100000000E-03 0. -1.
         11    1    3    3    0    0 -0.91262054873E-02 -0.42732837423E-01 -0.31358976915E-01  0.53786890364E-01  0.51100000000E-03 0.  1.
</event>
<event>
 8    1  0.1109294E+005  0.1043930E+01  0.7957747E-01            NaN
         13   -1    0    0    0    0  0.00000000000E+00  0.00000000000E+00  0.74505805969E-08  0.10566000000E+00  0.10566000000E+00 0. -1.
     999900   -1    0    0    0    0 -0.00000000000E+00 -0.00000000000E+00 -0.74505805969E-08  0.93827000000E+00  0.93827000000E+00 0. -1.
     999902    2    1    2    0    0 -0.56325748965E-02 -0.28030708867E-02  0.23677656535E-01  0.10194307240E+01  0.10191362944E+01 0.  0.
     999903    2    3    3    0    0 -0.45928844749E-02 -0.12047132963E+00  0.48119672730E-01  0.13126164536E+00  0.19485399336E-01 0.  0.
         14    1    1    2    0    0  0.56325748965E-02  0.28030708867E-02 -0.23677656535E-01  0.24499276016E-01  0.00000000000E+00 0.  1.
     999901    1    3    3    0    0 -0.10396904216E-02  0.11766825874E+00 -0.24442016195E-01  0.88816907863E+00  0.88000000000E+00 0. -1.
        -11    1    4    4    0    0 -0.10510666977E-01 -0.41325924703E-01  0.14166656173E-01  0.44936192997E-01  0.51100000000E-03 0.  1.
         11    1    4    4    0    0  0.59177825024E-02 -0.79145404928E-01  0.33953016557E-01  0.86325452361E-01  0.51100000000E-03 0. -1.
</event>
<event>
 8    1  0.1109294E+005  0.1043930E+01  0.7957747E-01            NaN
         13   -1    0    0    0    0  0.00000000000E+00  0.00000000000E+00  0.74505805969E-08  0.10566000000E+00  0.10566000000E+00 0. -1.
     999900   -1    0    0    0    0 -0.00000000000E+00 -0.00000000000E+00 -0.74505805969E-08  0.93827000000E+00  0.93827000000E+00 0.  1.
     999902    2    1    2    0    0 -0.84572858173E-02  0.16096810884E-01  0.15473263714E-01  0.10200541776E+01  0.10197747155E+01 0.  0.
     999903    2    3    3    0    0  0.70980791895E-02  0.43391677138E-01 -0.11969571103E+00  0.12917953390E+00  0.20665632463E-01 0.  0.
         14    1    1    2    0    0  0.84572858173E-02 -0.16096810884E-01 -0.15473263714E-01  0.23875822374E-01  0.00000000000E+00 0.  1.
     999901    1    3    3    0    0 -0.15555365007E-01 -0.27294866254E-01  0.13516897475E+00  0.89087464373E+00  0.88000000000E+00 0. -1.
        -11    1    4    4    0    0  0.11950313954E-01  0.19992769342E-01 -0.43824332929E-01  0.49632188217E-01  0.51100000000E-03 0.  1.
         11    1    4    4    0    0 -0.48522347648E-02  0.23398907796E-01 -0.75871378105E-01  0.79547345681E-01  0.51100000000E-03 0. -1.
</event>
<event>
 8    1  0.1109294E+005  0.1043930E+01  0.7957747E-01            NaN
         13   -1    0    0    0    0  0.00000000000E+00  0.00000000000E+00  0.74505805969E-08  0.10566000000E+00  0.10566000000E+00 0.  1.
     999900   -1    0    0    0    0 -0.00000000000E+00 -0.00000000000E+00 -0.74505805969E-08  0.93827000000E+00  0.93827000000E+00 0. -1.
     999902    2    1    2    0    0  0.18883970518E-01  0.12975862167E-01  0.58923889804E-02  0.10202720713E+01  0.10199977460E+01 0.  0.
     999903    2    3    3    0    0 -0.67094477502E-01 -0.13925096032E-01  0.10822767159E+00  0.12977307349E+00  0.20790490456E-01 0.  0.
         14    1    1    2    0    0 -0.18883970518E-01 -0.12975862167E-01 -0.58923889804E-02  0.23657928679E-01  0.00000000000E+00 0. -1.
     999901    1    3    3    0    0  0.85978448019E-01  0.26900958199E-01 -0.10233528261E+00  0.89049899783E+00  0.88000000000E+00 0. -1.
        -11    1    4    4    0    0 -0.21536844948E-01  0.32742736927E-02  0.44689143784E-01  0.49718580547E-01  0.51100000000E-03 0.  1.
         11    1    4    4    0    0 -0.45557632554E-01 -0.17199369724E-01  0.63538527808E-01  0.80054492940E-01  0.51100000000E-03 0. -1.
</event>
<event>
 7    1  0.1175003E+005  0.1043930E+01  0.7957747E-01            NaN
         13   -1    0    0    0    0  0.00000000000E+00  0.00000000000E+00  0.74505805969E-08  0.10566000000E+00  0.10566000000E+00 0. -1.
     999900   -1    0    0    0    0 -0.00000000000E+00 -0.00000000000E+00 -0.74505805969E-08  0.93827000000E+00  0.93827000000E+00 0.  1.
     999903    2    1    2    0    0  0.80323402109E-02 -0.87962564695E-01  0.61048546676E-01  0.10928533287E+00  0.20357496211E-01 0.  0.
         14    1    1    2    0    0  0.33419070619E-01 -0.15261237758E-01 -0.29439946648E-01  0.47079189857E-01  0.00000000000E+00 0.  1.
     999901    1    1    2    0    0 -0.41451410830E-01  0.10322380245E+00 -0.31608600028E-01  0.88756547727E+00  0.88000000000E+00 0.  1.
        -11    1    3    3    0    0  0.24661527374E-02 -0.48558533042E-01  0.45390344194E-01  0.66517347418E-01  0.51100000000E-03 0.  1.
         11    1    3    3    0    0  0.55661874735E-02 -0.39404031654E-01  0.15658202482E-01  0.42767985451E-01  0.51100000000E-03 0. -1.
</event>
<event>
 8    1  0.1109294E+005  0.1043930E+01  0.7957747E-01            NaN
         13   -1    0    0    0    0  0.00000000000E+00  0.00000000000E+00  0.74505805969E-08  0.10566000000E+00  0.10566000000E+00 0. -1.
     999900   -1    0    0    0    0 -0.00000000000E+00 -0.00000000000E+00 -0.74505805969E-08  0.93827000000E+00  0.93827000000E+00 0. -1.
     999902    2    1    2    0    0 -0.22415220966E-01  0.47967972216E-02 -0.40053846728E-02  0.10206599656E+01  0.10203946643E+01 0.  0.
     999903    2    3    3    0    0  0.10779498327E-01 -0.10548629298E+00 -0.73289913435E-01  0.13045516035E+00  0.20089346904E-01 0.  0.
         14    1    1    2    0    0  0.22415220966E-01 -0.47967972216E-02  0.40053846728E-02  0.23270034399E-01  0.00000000000E+00 0.  1.
     999901    1    3    3    0    0 -0.33194719293E-01  0.11028309020E+00  0.69284528762E-01  0.89020480525E+00  0.88000000000E+00 0.  1.
        -11    1    4    4    0    0  0.99322507392E-03 -0.64528211765E-01 -0.53928654826E-01  0.84103730845E-01  0.51100000000E-03 0.  1.
         11    1    4    4    0    0  0.97862732529E-02 -0.40958081214E-01 -0.19361258609E-01  0.46351429501E-01  0.51100000000E-03 0. -1.
</event>
<event>
 8    1  0.1109294E+005  0.1043930E+01  0.7957747E-01            NaN
         13   -1    0    0    0    0  0.00000000000E+00  0.00000000000E+00  0.74505805969E-08  0.10566000000E+00  0.10566000000E+00 0.  1.
     999900   -1    0    0    0    0 -0.00000000000E+00 -0.00000000000E+00 -0.74505805969E-08  0.93827000000E+00  0.93827000000E+00 0.  1.
     999902    2    1    2    0    0 -0.18963151098E-01 -0.46178033038E-03  0.13425862372E-01  0.10206906342E+01  0.10204260398E+01 0.  0.
     999903    2    3    3    0    0 -0.95026855469E-01  0.13375212142E-02 -0.88662169681E-01  0.13152760594E+00  0.20165281242E-01 0.  0.
         14    1    1    2    0    0  0.18963151098E-01  0.46178033038E-03 -0.13425862372E-01  0.23239365763E-01  0.00000000000E+00 0.  1.
     999901    1    3    3    0    0  0.76063704371E-01 -0.17993015446E-02  0.10208803205E+00  0.88916302830E+00  0.88000000000E+00 0. -1.
        -11    1    4    4    0    0 -0.45575849570E-01 -0.92158346765E-02 -0.45206950287E-01  0.64853829093E-01  0.51100000000E-03 0. -1.
         11    1    4    4    0    0 -0.49451005899E-01  0.10553355891E-01 -0.43455219393E-01  0.66673776843E-01  0.51100000000E-03 0.  1.
</event>
<event>
 8    1  0.1109294E+005  0.1043930E+01  0.7957747E-01            NaN
         13   -1    0    0    0    0  0.00000000000E+00  0.00000000000E+00  0.74505805969E-08  0.10566000000E+00  0.10566000000E+00 0.  1.
     999900   -1    0    0    0    0 -0.00000000000E+00 -0.00000000000E+00 -0.74505805969E-08  0.93827000000E+00  0.93827000000E+00 0.  1.
     999902    2    1    2    0    0 -0.22906209875E-02 -0.22798419283E-01 -0.21387837987E-02  0.10209171935E+01  0.10206577912E+01 0.  0.
     999903    2    3    3    0    0  0.12765181409E-03  0.10856056362E+00 -0.66894952135E-01  0.12881047805E+00  0.18215168568E-01 0.  0.
         14    1    1    2    0    0  0.22906209875E-02  0.22798419283E-01  0.21387837987E-02  0.23012806488E-01  0.00000000000E+00 0.  1.
     999901    1    3    3    0    0 -0.24182728016E-02 -0.13135898290E+00  0.64756168336E-01  0.89210671546E+00  0.88000000000E+00 0. -1.
        -11    1    4    4    0    0 -0.21002974973E-02  0.82416623674E-01 -0.41537470133E-01  0.92317569582E-01  0.51100000000E-03 0. -1.
         11    1    4    4    0    0  0.22279493114E-02  0.26143939946E-01 -0.25357482002E-01  0.36492908469E-01  0.51100000000E-03 0.  1.
</event>
<event>
 8    1  0.1109294E+005  0.1043930E+01  0.7957747E-01            NaN
         13   -1    0    0    0    0  0.00000000000E+00  0.00000000000E+00  0.74505805969E-08  0.10566000000E+00  0.10566000000E+00 0.  1.
     999900   -1    0    0    0    0 -0.00000000000E+00 -0.00000000000E+00 -0.74505805969E-08  0.93827000000E+00  0.93827000000E+00 0.  1.
     999902    2    1    2    0    0  0.13774355172E-01 -0.13482574333E-01  0.13825719620E-01  0.10202094774E+01  0.10199336814E+01 0.  0.
     999903    2    3    3    0    0 -0.10353171406E+00 -0.32742564425E-03  0.76279543900E-01  0.13013405810E+00  0.19934423405E-01 0.  0.
         14    1    1    2    0    0 -0.13774355172E-01  0.13482574333E-01 -0.13825719620E-01  0.23720522634E-01  0.00000000000E+00 0.  1.
     999901    1    3    3    0    0  0.11730606923E+00 -0.13155148689E-01 -0.62453824281E-01  0.89007541927E+00  0.88000000000E+00 0.  1.
        -11    1    4    4    0    0 -0.82655911054E-01 -0.82400822191E-02  0.61488174394E-01  0.10334870729E+00  0.51100000000E-03 0.  1.
         11    1    4    4    0    0 -0.20875803004E-01  0.79126565748E-02  0.14791369506E-01  0.26785350809E-01  0.51100000000E-03 0. -1.
</event>
<event>
 8    1  0.1109294E+005  0.1043930E+01  0.7957747E-01            NaN
         13   -1    0    0    0    0  0.00000000000E+00  0.00000000000E+00  0.74505805969E-08  0.10566000000E+00  0.10566000000E+00 0.  1.
     999900   -1    0    0    0    0 -0.00000000000E+00 -0.00000000000E+00 -0.74505805969E-08  0.93827000000E+00  0.93827000000E+00 0.  1.
     999902    2    1    2    0    0 -0.25337154576E-01  0.18182334117E-02  0.69356478737E-02  0.10175978792E+01  0.10172571274E+01 0.  0.
     999903    2    3    3    0    0 -0.84821109784E-01  0.95300941662E-01 -0.17193082749E-01  0.13032139843E+00  0.20277441859E-01 0.  0.
         14    1    1    2    0    0  0.25337154576E-01 -0.18182334117E-02 -0.69356478737E-02  0.26332120807E-01  0.00000000000E+00 0. -1.
     999901    1    3    3    0    0  0.59483955208E-01 -0.93482708251E-01  0.24128730622E-01  0.88727648076E+00  0.88000000000E+00 0.  1.
        -11    1    4    4    0    0 -0.43819372135E-01  0.54761933325E-01 -0.18884679345E-01  0.72635383600E-01  0.51100000000E-03 0. -1.
         11    1    4    4    0    0 -0.41001737649E-01  0.40539008337E-01  0.16915965960E-02  0.57686014832E-01  0.51100000000E-03 0.  1.
</event>
<event>
 8    1  0.1109294E+005  0.1043930E+01  0.7957747E-01            NaN
         13   -1    0    0    0    0  0.00000000000E+00  0.00000000000E+00  0.74505805969E-08  0.10566000000E+00  0.10566000000E+00 0.  1.
     999900   -1    0    0    0    0 -0.00000000000E+00 -0.00000000000E+00 -0.74505805969E-08  0.93827000000E+00  0.93827000000E+00 0. -1.
     999902    2    1    2    0    0 -0.12992334237E-01  0.39787061323E-02 -0.24148185052E-02  0.10301291957E+01  0.10300367458E+01 0.  0.
     999903    2    3    3    0    0 -0.56467724964E-02 -0.12281469729E+00  0.61131529448E-01  0.13874338540E+00  0.19933067756E-01 0.  0.
         14    1    1    2    0    0  0.12992334237E-01 -0.39787061323E-02  0.24148185052E-02  0.13800804318E-01  0.00000000000E+00 0. -1.
     999901    1    3    3    0    0 -0.73455617402E-02  0.12679340342E+00 -0.63546347953E-01  0.89138581028E+00  0.88000000000E+00 0. -1.
        -11    1    4    4    0    0 -0.43828841492E-02 -0.38128819611E-01  0.94703879911E-02  0.39534363889E-01  0.51100000000E-03 0.  1.
         11    1    4    4    0    0 -0.12638883472E-02 -0.84685877679E-01  0.51661141457E-01  0.99209021514E-01  0.51100000000E-03 0. -1.
</event>
<event>
 8    1  0.1109294E+005  0.1043930E+01  0.7957747E-01            NaN
         13   -1    0    0    0    0  0.00000000000E+00  0.00000000000E+00  0.74505805969E-08  0.10566000000E+00  0.10566000000E+00 0.  1.
     999900   -1    0    0    0    0 -0.00000000000E+00 -0.00000000000E+00 -0.74505805969E-08  0.93827000000E+00  0.93827000000E+00 0. -1.
     999902    2    1    2    0    0 -0.21231233204E-01  0.55603607629E-02 -0.82644900446E-02  0.10204782480E+01  0.10202087385E+01 0.  0.
     999903    2    3    3    0    0 -0.93415903183E-01 -0.22143937707E-01 -0.90403101351E-01  0.13327764714E+00  0.19321634225E-01 0.  0.
         14    1    1    2    0    0  0.21231233204E-01 -0.55603607629E-02  0.82644900446E-02  0.23451751978E-01  0.00000000000E+00 0.  1.
     999901    1    3    3    0    0  0.72184669979E-01  0.27704298470E-01  0.82138611307E-01  0.88720060088E+00  0.88000000000E+00 0.  1.
        -11    1    4    4    0    0 -0.82794482304E-01 -0.22631171055E-01 -0.72068285870E-01  0.11207673779E+00  0.51100000000E-03 0. -1.
         11    1    4    4    0    0 -0.10621420879E-01  0.48723334824E-03 -0.18334815481E-01  0.21200909357E-01  0.51100000000E-03 0.  1.
</event>
<event>
 8    1  0.1109294E+005  0.1043930E+01  0.7957747E-01            NaN
         13   -1    0    0    0    0  0.00000000000E+00  0.00000000000E+00  0.74505805969E-08  0.10566000000E+00  0.10566000000E+00 0. -1.
     999900   -1    0    0    0    0 -0.00000000000E+00 -0.00000000000E+00 -0.74505805969E-08  0.93827000000E+00  0.93827000000E+00 0. -1.
     999902    2    1    2    0    0  0.18294612639E-01 -0.76204813545E-02  0.13186275832E-01  0.10201257471E+01  0.10198479776E+01 0.  0.
     999903    2    3    3    0    0 -0.75330096254E-01  0.82442977786E-01  0.61812762052E-01  0.12926012984E+00  0.20393519198E-01 0.  0.
         14    1    1    2    0    0 -0.18294612639E-01  0.76204813545E-02 -0.13186275832E-01  0.23804252939E-01  0.00000000000E+00 0.  1.
     999901    1    3    3    0    0  0.93624708893E-01 -0.90063459140E-01 -0.48626486220E-01  0.89086561722E+00  0.88000000000E+00 0. -1.
        -11    1    4    4    0    0 -0.37328292200E-01  0.45020868722E-01  0.21154450991E-01  0.62193664764E-01  0.51100000000E-03 0.  1.
         11    1    4    4    0    0 -0.38001804054E-01  0.37422109064E-01  0.40658311061E-01  0.67066465074E-01  0.51100000000E-03 0. -1.
</event>
