<event>
 8    1  0.1163913E+005  0.1043930E+01  0.7957747E-01            NaN
         13   -1    0    0    0    0  0.00000000000E+00  0.00000000000E+00  0.74505805969E-08  0.10566000000E+00  0.10566000000E+00 0. -1.
     999900   -1    0    0    0    0 -0.00000000000E+00 -0.00000000000E+00 -0.74505805969E-08  0.93827000000E+00  0.93827000000E+00 0. -1.
     999902    2    1    2    0    0  0.23996330998E-02 -0.40398278590E-02  0.24488950971E-01  0.10189943394E+01  0.10186891953E+01 0.  0.
     999903    2    3    3    0    0 -0.75167284764E-01  0.24120426917E-01 -0.96713994975E-01  0.12686218510E+00  0.22549977613E-01 0.  0.
         14    1    1    2    0    0 -0.23996330998E-02  0.40398278590E-02 -0.24488950971E-01  0.24935660565E-01  0.00000000000E+00 0.  1.
     999901    1    3    3    0    0  0.77566917864E-01 -0.28160254776E-01  0.12120294595E+00  0.89213215434E+00  0.88000000000E+00 0.  1.
        -11    1    4    4    0    0 -0.35245065122E-01  0.22789379946E-01 -0.45372359047E-01  0.61810052097E-01  0.51100000000E-03 0. -1.
         11    1    4    4    0    0 -0.39922219643E-01  0.13310469714E-02 -0.51341635928E-01  0.65052133001E-01  0.51100000000E-03 0.  1.
</event>
<event>
 8    1  0.1163913E+005  0.1043930E+01  0.7957747E-01            NaN
         13   -1    0    0    0    0  0.00000000000E+00  0.00000000000E+00  0.74505805969E-08  0.10566000000E+00  0.10566000000E+00 0. -1.
     999900   -1    0    0    0    0 -0.00000000000E+00 -0.00000000000E+00 -0.74505805969E-08  0.93827000000E+00  0.93827000000E+00 0. -1.
     999902    2    1    2    0    0 -0.20121327902E-01 -0.21202087479E-02 -0.10837587575E-01  0.10209775181E+01  0.10207194894E+01 0.  0.
     999903    2    3    3    0    0  0.33593118196E-01  0.79359466582E-01  0.94471461230E-01  0.12934184418E+00  0.19443074430E-01 0.  0.
         14    1    1    2    0    0  0.20121327902E-01  0.21202087479E-02  0.10837587575E-01  0.22952481917E-01  0.00000000000E+00 0. -1.
     999901    1    3    3    0    0 -0.53714446099E-01 -0.81479675330E-01 -0.10530904881E+00  0.89163567390E+00  0.88000000000E+00 0. -1.
        -11    1    4    4    0    0  0.26226270789E-01  0.71740024100E-01  0.74358367384E-01  0.10660148338E+00  0.51100000000E-03 0. -1.
         11    1    4    4    0    0  0.73668474078E-02  0.76194424819E-02  0.20113093846E-01  0.22740360805E-01  0.51100000000E-03 0.  1.
</event>
<event>
 8    1  0.1163913E+005  0.1043930E+01  0.7957747E-01            NaN
         13   -1    0    0    0    0  0.00000000000E+00  0.00000000000E+00  0.74505805969E-08  0.10566000000E+00  0.10566000000E+00 0.  1.
     999900   -1    0    0    0    0 -0.00000000000E+00 -0.00000000000E+00 -0.74505805969E-08  0.93827000000E+00  0.93827000000E+00 0.  1.
     999902    2    1    2    0    0  0.20557194425E-01 -0.26515062240E-02 -0.11643578579E-01  0.10201560300E+01  0.10198789751E+01 0.  0.
     999903    2    3    3    0    0 -0.24249966097E-01  0.10895634873E+00 -0.64195740948E-01  0.13042251669E+00  0.20721798197E-01 0.  0.
         14    1    1    2    0    0 -0.20557194425E-01  0.26515062240E-02  0.11643578579E-01  0.23773970009E-01  0.00000000000E+00 0.  1.
     999901    1    3    3    0    0  0.44807160522E-01 -0.11160785495E+00  0.52552162369E-01  0.88973351330E+00  0.88000000000E+00 0.  1.
        -11    1    4    4    0    0 -0.47048508902E-02  0.27968441079E-02 -0.42573356304E-02  0.69529840020E-02  0.51100000000E-03 0. -1.
         11    1    4    4    0    0 -0.19545115206E-01  0.10615950462E+00 -0.59938405317E-01  0.12346953269E+00  0.51100000000E-03 0.  1.
</event>
<event>
 8    1  0.1163913E+005  0.1043930E+01  0.7957747E-01            NaN
         13   -1    0    0    0    0  0.00000000000E+00  0.00000000000E+00  0.74505805969E-08  0.10566000000E+00  0.10566000000E+00 0. -1.
     999900   -1    0    0    0    0 -0.00000000000E+00 -0.00000000000E+00 -0.74505805969E-08  0.93827000000E+00  0.93827000000E+00 0. -1.
     999902    2    1    2    0    0 -0.69490209415E-02  0.92291551870E-02 -0.20079145942E-01  0.10207645451E+01  0.10205016503E+01 0.  0.
     999903    2    3    3    0    0 -0.22343907107E-01 -0.59981698693E-01 -0.11466925040E+00  0.13286002736E+00  0.20141884714E-01 0.  0.
         14    1    1    2    0    0  0.69490209415E-02 -0.92291551870E-02  0.20079145942E-01  0.23165454868E-01  0.00000000000E+00 0. -1.
     999901    1    3    3    0    0  0.15394886165E-01  0.69210853880E-01  0.94590104460E-01  0.88790451777E+00  0.88000000000E+00 0. -1.
        -11    1    4    4    0    0 -0.13228970118E-01 -0.49059660830E-01 -0.73962590699E-01  0.89736179521E-01  0.51100000000E-03 0.  1.
         11    1    4    4    0    0 -0.91149369887E-02 -0.10922037863E-01 -0.40706659702E-01  0.43123847840E-01  0.51100000000E-03 0. -1.
</event>
<event>
 8    1  0.1163913E+005  0.1043930E+01  0.7957747E-01            NaN
         13   -1    0    0    0    0  0.00000000000E+00  0.00000000000E+00  0.74505805969E-08  0.10566000000E+00  0.10566000000E+00 0.  1.
     999900   -1    0    0    0    0 -0.00000000000E+00 -0.00000000000E+00 -0.74505805969E-08  0.93827000000E+00  0.93827000000E+00 0.  1.
     999902    2    1    2    0    0  0.14619616292E-01 -0.10053455346E-02 -0.18584039799E-01  0.10202633476E+01  0.10199888176E+01 0.  0.
     999903    2    3    3    0    0 -0.49149103689E-01 -0.69383666188E-01 -0.98652375952E-01  0.13169540826E+00  0.19536165142E-01 0.  0.
         14    1    1    2    0    0 -0.14619616292E-01  0.10053455346E-02  0.18584039799E-01  0.23666652392E-01  0.00000000000E+00 0.  1.
     999901    1    3    3    0    0  0.63768719982E-01  0.68378320654E-01  0.80068336153E-01  0.88856793935E+00  0.88000000000E+00 0. -1.
        -11    1    4    4    0    0 -0.42540385871E-01 -0.46401428207E-01 -0.65871842164E-01  0.91116067084E-01  0.51100000000E-03 0. -1.
         11    1    4    4    0    0 -0.66087178180E-02 -0.22982237981E-01 -0.32780533788E-01  0.40579341176E-01  0.51100000000E-03 0.  1.
</event>
<event>
 8    1  0.1163913E+005  0.1043930E+01  0.7957747E-01            NaN
         13   -1    0    0    0    0  0.00000000000E+00  0.00000000000E+00  0.74505805969E-08  0.10566000000E+00  0.10566000000E+00 0. -1.
     999900   -1    0    0    0    0 -0.00000000000E+00 -0.00000000000E+00 -0.74505805969E-08  0.93827000000E+00  0.93827000000E+00 0.  1.
     999902    2    1    2    0    0 -0.17033167577E-01  0.15703482234E-01  0.34320775435E-02  0.10205097671E+01  0.10202409899E+01 0.  0.
     999903    2    3    3    0    0  0.10939219005E+00  0.24798036949E-01  0.61571200731E-01  0.12952927372E+00  0.20130228738E-01 0.  0.
         14    1    1    2    0    0  0.17033167577E-01 -0.15703482234E-01 -0.34320775435E-02  0.23420232882E-01  0.00000000000E+00 0. -1.
     999901    1    3    3    0    0 -0.12642535763E+00 -0.90945547148E-02 -0.58139123188E-01  0.89098049340E+00  0.88000000000E+00 0. -1.
        -11    1    4    4    0    0  0.60549745288E-01  0.71436416023E-02  0.41948310022E-01  0.74008277270E-01  0.51100000000E-03 0. -1.
         11    1    4    4    0    0  0.48842444764E-01  0.17654395347E-01  0.19622890710E-01  0.55520996447E-01  0.51100000000E-03 0.  1.
</event>
<event>
 8    1  0.1163913E+005  0.1043930E+01  0.7957747E-01            NaN
         13   -1    0    0    0    0  0.00000000000E+00  0.00000000000E+00  0.74505805969E-08  0.10566000000E+00  0.10566000000E+00 0.  1.
     999900   -1    0    0    0    0 -0.00000000000E+00 -0.00000000000E+00 -0.74505805969E-08  0.93827000000E+00  0.93827000000E+00 0. -1.
     999902    2    1    2    0    0  0.21525758625E-01  0.44076477025E-03  0.91585275320E-02  0.10205327526E+01  0.10202645088E+01 0.  0.
     999903    2    3    3    0    0 -0.68820390060E-01 -0.76714255788E-01  0.76922310095E-01  0.12996705937E+00  0.18790199637E-01 0.  0.
         14    1    1    2    0    0 -0.21525758625E-01 -0.44076477025E-03 -0.91585275320E-02  0.23397247371E-01  0.00000000000E+00 0. -1.
     999901    1    3    3    0    0  0.90346148686E-01  0.77155020558E-01 -0.67763782563E-01  0.89056569326E+00  0.88000000000E+00 0.  1.
        -11    1    4    4    0    0 -0.56931195568E-01 -0.72386242293E-01  0.67324291992E-01  0.11407782657E+00  0.51100000000E-03 0.  1.
         11    1    4    4    0    0 -0.11889194492E-01 -0.43280134950E-02  0.95980181023E-02  0.15889232800E-01  0.51100000000E-03 0. -1.
</event>
<event>
 8    1  0.1163913E+005  0.1043930E+01  0.7957747E-01            NaN
         13   -1    0    0    0    0  0.00000000000E+00  0.00000000000E+00  0.74505805969E-08  0.10566000000E+00  0.10566000000E+00 0.  1.
     999900   -1    0    0    0    0 -0.00000000000E+00 -0.00000000000E+00 -0.74505805969E-08  0.93827000000E+00  0.93827000000E+00 0.  1.
     999902    2    1    2    0    0 -0.11219679972E-01 -0.88415195057E-02  0.17594493779E-01  0.10212668163E+01  0.10210153231E+01 0.  0.
     999903    2    3    3    0    0  0.89373320895E-01  0.87035216300E-01 -0.27495218661E-01  0.12922175997E+00  0.19482218441E-01 0.  0.
         14    1    1    2    0    0  0.11219679972E-01  0.88415195057E-02 -0.17594493779E-01  0.22663183739E-01  0.00000000000E+00 0. -1.
     999901    1    3    3    0    0 -0.10059300087E+00 -0.95876735806E-01  0.45089712440E-01  0.89204505629E+00  0.88000000000E+00 0.  1.
        -11    1    4    4    0    0  0.59485756705E-02  0.15774586413E-02  0.14351541561E-02  0.63399303407E-02  0.51100000000E-03 0.  1.
         11    1    4    4    0    0  0.83424745225E-01  0.85457757659E-01 -0.28930372817E-01  0.12288182963E+00  0.51100000000E-03 0. -1.
</event>
<event>
 8    1  0.1163913E+005  0.1043930E+01  0.7957747E-01            NaN
         13   -1    0    0    0    0  0.00000000000E+00  0.00000000000E+00  0.74505805969E-08  0.10566000000E+00  0.10566000000E+00 0. -1.
     999900   -1    0    0    0    0 -0.00000000000E+00 -0.00000000000E+00 -0.74505805969E-08  0.93827000000E+00  0.93827000000E+00 0.  1.
     999902    2    1    2    0    0  0.10348458916E-01  0.18185184119E-01  0.13381578522E-01  0.10190933705E+01  0.10187906750E+01 0.  0.
     999903    2    3    3    0    0 -0.77629488873E-01  0.10116905353E+00  0.20747475362E-01  0.13079122686E+00  0.20356137992E-01 0.  0.
         14    1    1    2    0    0 -0.10348458916E-01 -0.18185184119E-01 -0.13381578522E-01  0.24836629545E-01  0.00000000000E+00 0.  1.
     999901    1    3    3    0    0  0.87977947789E-01 -0.82983869414E-01 -0.73658968402E-02  0.88830214360E+00  0.88000000000E+00 0.  1.
        -11    1    4    4    0    0 -0.30179178279E-01  0.26749229472E-01  0.97723456312E-03  0.40342535708E-01  0.51100000000E-03 0. -1.
         11    1    4    4    0    0 -0.47450310594E-01  0.74419824062E-01  0.19770240799E-01  0.90448691152E-01  0.51100000000E-03 0.  1.
</event>
<event>
 8    1  0.1163913E+005  0.1043930E+01  0.7957747E-01            NaN
         13   -1    0    0    0    0  0.00000000000E+00  0.00000000000E+00  0.74505805969E-08  0.10566000000E+00  0.10566000000E+00 0. -1.
     999900   -1    0    0    0    0 -0.00000000000E+00 -0.00000000000E+00 -0.74505805969E-08  0.93827000000E+00  0.93827000000E+00 0. -1.
     999902    2    1    2    0    0  0.97151342534E-02  0.83705917093E-02  0.19764727988E-01  0.10203695435E+01  0.10200975003E+01 0.  0.
     999903    2    3    3    0    0  0.12872137256E+00 -0.31640282797E-03 -0.17863055523E-01  0.13151983812E+00  0.20225904214E-01 0.  0.
         14    1    1    2    0    0 -0.97151342534E-02 -0.83705917093E-02 -0.19764727988E-01  0.23560456523E-01  0.00000000000E+00 0. -1.
     999901    1    3    3    0    0 -0.11900623831E+00  0.86869945373E-02  0.37627783511E-01  0.88884970536E+00  0.88000000000E+00 0.  1.
        -11    1    4    4    0    0  0.10226700920E+00  0.41386665959E-02 -0.70607519028E-02  0.10259524877E+00  0.51100000000E-03 0. -1.
         11    1    4    4    0    0  0.26454363359E-01 -0.44550694239E-02 -0.10802303620E-01  0.28924589345E-01  0.51100000000E-03 0.  1.
</event>
<event>
 8    1  0.1328712E+005  0.1043930E+01  0.7957747E-01            NaN
         13   -1    0    0    0    0  0.00000000000E+00  0.00000000000E+00  0.74505805969E-08  0.10566000000E+00  0.10566000000E+00 0. -1.
     999900   -1    0    0    0    0 -0.00000000000E+00 -0.00000000000E+00 -0.74505805969E-08  0.93827000000E+00  0.93827000000E+00 0. -1.
     999902    2    1    2    0    0 -0.24239367226E-01  0.79562702894E-03  0.61713001385E-02  0.10189047150E+01  0.10185973460E+01 0.  0.
     999903    2    3    3    0    0 -0.12828099737E+00  0.98459059322E-02 -0.23342145687E-01  0.13223814187E+00  0.19725979068E-01 0.  0.
         14    1    1    2    0    0  0.24239367226E-01 -0.79562702894E-03 -0.61713001385E-02  0.25025285039E-01  0.00000000000E+00 0.  1.
     999901    1    3    3    0    0  0.10404163014E+00 -0.90502789033E-02  0.29513445826E-01  0.88666657309E+00  0.88000000000E+00 0.  1.
        -11    1    4    4    0    0 -0.46864816471E-01  0.12996610187E-01 -0.10441752490E-01  0.49744489296E-01  0.51100000000E-03 0.  1.
         11    1    4    4    0    0 -0.81416180899E-01 -0.31507042550E-02 -0.12900393197E-01  0.82493652575E-01  0.51100000000E-03 0. -1.
</event>
<event>
 8    1  0.1163913E+005  0.1043930E+01  0.7957747E-01            NaN
         13   -1    0    0    0    0  0.00000000000E+00  0.00000000000E+00  0.74505805969E-08  0.10566000000E+00  0.10566000000E+00 0. -1.
     999900   -1    0    0    0    0 -0.00000000000E+00 -0.00000000000E+00 -0.74505805969E-08  0.93827000000E+00  0.93827000000E+00 0.  1.
     999902    2    1    2    0    0 -0.12332561425E-01  0.16797923311E-01 -0.11281130780E-01  0.10202334557E+01  0.10199582236E+01 0.  0.
     999903    2    3    3    0    0 -0.61734494160E-02 -0.65344655336E-01  0.10923263156E+00  0.12820828523E+00  0.14055644592E-01 0.  0.
         14    1    1    2    0    0  0.12332561425E-01 -0.16797923311E-01  0.11281130780E-01  0.23696544275E-01  0.00000000000E+00 0. -1.
     999901    1    3    3    0    0 -0.61591120095E-02  0.82142578647E-01 -0.12051376234E+00  0.89202517050E+00  0.88000000000E+00 0.  1.
        -11    1    4    4    0    0 -0.12286061135E-02 -0.53452412469E-01  0.79569127934E-01  0.95865411452E-01  0.51100000000E-03 0. -1.
         11    1    4    4    0    0 -0.49448433025E-02 -0.11892242867E-01  0.29663503626E-01  0.32342873776E-01  0.51100000000E-03 0.  1.
</event>
<event>
 8    1  0.1163913E+005  0.1043930E+01  0.7957747E-01            NaN
         13   -1    0    0    0    0  0.00000000000E+00  0.00000000000E+00  0.74505805969E-08  0.10566000000E+00  0.10566000000E+00 0.  1.
     999900   -1    0    0    0    0 -0.00000000000E+00 -0.00000000000E+00 -0.74505805969E-08  0.93827000000E+00  0.93827000000E+00 0.  1.
     999902    2    1    2    0    0 -0.54332853857E-02 -0.11346652477E-01  0.20044168994E-01  0.10202649240E+01  0.10199904310E+01 0.  0.
     999903    2    3    3    0    0 -0.85945668078E-01  0.93049785278E-01 -0.18606740084E-01  0.12960519504E+00  0.20158754984E-01 0.  0.
         14    1    1    2    0    0  0.54332853857E-02  0.11346652477E-01 -0.20044168994E-01  0.23665076023E-01  0.00000000000E+00 0. -1.
     999901    1    3    3    0    0  0.80512382693E-01 -0.10439643775E+00  0.38650909078E-01  0.89065972894E+00  0.88000000000E+00 0.  1.
        -11    1    4    4    0    0 -0.59477884936E-01  0.49915097125E-01 -0.11703492189E-01  0.78526228534E-01  0.51100000000E-03 0.  1.
         11    1    4    4    0    0 -0.26467783143E-01  0.43134688153E-01 -0.69032478944E-02  0.51078966503E-01  0.51100000000E-03 0. -1.
</event>
<event>
 8    1  0.1163913E+005  0.1043930E+01  0.7957747E-01            NaN
         13   -1    0    0    0    0  0.00000000000E+00  0.00000000000E+00  0.74505805969E-08  0.10566000000E+00  0.10566000000E+00 0.  1.
     999900   -1    0    0    0    0 -0.00000000000E+00 -0.00000000000E+00 -0.74505805969E-08  0.93827000000E+00  0.93827000000E+00 0. -1.
     999902    2    1    2    0    0  0.86185672871E-03  0.27534225290E-03 -0.25159650541E-01  0.10187540864E+01  0.10184429596E+01 0.  0.
     999903    2    3    3    0    0  0.62603476480E-01  0.55932821082E-01  0.92977644187E-01  0.12697709468E+00  0.20752457979E-01 0.  0.
         14    1    1    2    0    0 -0.86185672871E-03 -0.27534225290E-03  0.25159650541E-01  0.25175913603E-01  0.00000000000E+00 0.  1.
     999901    1    3    3    0    0 -0.61741619752E-01 -0.55657478829E-01 -0.11813729473E+00  0.89177699172E+00  0.88000000000E+00 0. -1.
        -11    1    4    4    0    0  0.35915511467E-01  0.37612403783E-01  0.70311587128E-01  0.87456259283E-01  0.51100000000E-03 0.  1.
         11    1    4    4    0    0  0.26687965013E-01  0.18320417299E-01  0.22666057058E-01  0.39520835393E-01  0.51100000000E-03 0. -1.
</event>
<event>
 8    1  0.1163913E+005  0.1043930E+01  0.7957747E-01            NaN
         13   -1    0    0    0    0  0.00000000000E+00  0.00000000000E+00  0.74505805969E-08  0.10566000000E+00  0.10566000000E+00 0. -1.
     999900   -1    0    0    0    0 -0.00000000000E+00 -0.00000000000E+00 -0.74505805969E-08  0.93827000000E+00  0.93827000000E+00 0.  1.
     999902    2    1    2    0    0  0.15594913846E-01 -0.13938456656E-01 -0.79533389780E-02  0.10215528350E+01  0.10213077192E+01 0.  0.
     999903    2    3    3    0    0 -0.10255138242E-01 -0.83026394652E-01  0.99972912790E-01  0.13189591002E+00  0.20084763364E-01 0.  0.
         14    1    1    2    0    0 -0.15594913846E-01  0.13938456656E-01  0.79533389780E-02  0.22377164984E-01  0.00000000000E+00 0.  1.
     999901    1    3    3    0    0  0.25850052088E-01  0.69087937996E-01 -0.10792625177E+00  0.88965692499E+00  0.88000000000E+00 0.  1.
        -11    1    4    4    0    0 -0.75027062713E-02 -0.77962390974E-01  0.83731196171E-01  0.11465426002E+00  0.51100000000E-03 0. -1.
         11    1    4    4    0    0 -0.27524319709E-02 -0.50640036787E-02  0.16241716620E-01  0.17241650001E-01  0.51100000000E-03 0.  1.
</event>
<event>
 8    1  0.1163913E+005  0.1043930E+01  0.7957747E-01            NaN
         13   -1    0    0    0    0  0.00000000000E+00  0.00000000000E+00  0.74505805969E-08  0.10566000000E+00  0.10566000000E+00 0. -1.
     999900   -1    0    0    0    0 -0.00000000000E+00 -0.00000000000E+00 -0.74505805969E-08  0.93827000000E+00  0.93827000000E+00 0. -1.
     999902    2    1    2    0    0 -0.11850259937E-01 -0.19560991557E-01  0.34502407481E-02  0.10208006850E+01  0.10205386192E+01 0.  0.
     999903    2    3    3    0    0  0.89113474121E-01  0.30626521548E-01 -0.86441626987E-01  0.12906473195E+00  0.17503001627E-01 0.  0.
         14    1    1    2    0    0  0.11850259937E-01  0.19560991557E-01 -0.34502407481E-02  0.23129315002E-01  0.00000000000E+00 0.  1.
     999901    1    3    3    0    0 -0.10096373406E+00 -0.50187513105E-01  0.89891867735E-01  0.89173595304E+00  0.88000000000E+00 0.  1.
        -11    1    4    4    0    0  0.28377243546E-01  0.12149147608E-01 -0.18111559281E-01  0.35793287632E-01  0.51100000000E-03 0.  1.
         11    1    4    4    0    0  0.60736230575E-01  0.18477373940E-01 -0.68330067706E-01  0.93271444322E-01  0.51100000000E-03 0. -1.
</event>
<event>
 8    1  0.1163913E+005  0.1043930E+01  0.7957747E-01            NaN
         13   -1    0    0    0    0  0.00000000000E+00  0.00000000000E+00  0.74505805969E-08  0.10566000000E+00  0.10566000000E+00 0. -1.
     999900   -1    0    0    0    0 -0.00000000000E+00 -0.00000000000E+00 -0.74505805969E-08  0.93827000000E+00  0.93827000000E+00 0.  1.
     999902    2    1    2    0    0  0.12375035099E-01 -0.19833753096E-01  0.75990101052E-03  0.10205399016E+01  0.10202718236E+01 0.  0.
     999903    2    3    3    0    0 -0.12321116254E+00 -0.20954307396E-01  0.28131790803E-01  0.12973459568E+00  0.20483995916E-01 0.  0.
         14    1    1    2    0    0 -0.12375035099E-01  0.19833753096E-01 -0.75990101052E-03  0.23390098442E-01  0.00000000000E+00 0. -1.
     999901    1    3    3    0    0  0.13558619764E+00  0.11205542993E-02 -0.27371889792E-01  0.89080530588E+00  0.88000000000E+00 0.  1.
        -11    1    4    4    0    0 -0.11077722295E+00 -0.15801140616E-01  0.19101185142E-01  0.11351821688E+00  0.51100000000E-03 0. -1.
         11    1    4    4    0    0 -0.12433939589E-01 -0.51531667798E-02  0.90306056610E-02  0.16216378793E-01  0.51100000000E-03 0.  1.
</event>
<event>
 8    1  0.1163913E+005  0.1043930E+01  0.7957747E-01            NaN
         13   -1    0    0    0    0  0.00000000000E+00  0.00000000000E+00  0.74505805969E-08  0.10566000000E+00  0.10566000000E+00 0. -1.
     999900   -1    0    0    0    0 -0.00000000000E+00 -0.00000000000E+00 -0.74505805969E-08  0.93827000000E+00  0.93827000000E+00 0. -1.
     999902    2    1    2    0    0 -0.77558783396E-02 -0.12944302371E-01  0.56101879903E-02  0.10278308441E+01  0.10277047539E+01 0.  0.
     999903    2    3    3    0    0 -0.93766547363E-01  0.94017456378E-01  0.28002621753E-01  0.13690993056E+00  0.18131043905E-01 0.  0.
         14    1    1    2    0    0  0.77558783396E-02  0.12944302371E-01 -0.56101879903E-02  0.16099155940E-01  0.00000000000E+00 0.  1.
     999901    1    3    3    0    0  0.86010669023E-01 -0.10696175875E+00 -0.22392433763E-01  0.89092091350E+00  0.88000000000E+00 0.  1.
        -11    1    4    4    0    0 -0.85839957230E-01  0.87587643371E-01  0.20758673214E-01  0.12438358880E+00  0.51100000000E-03 0. -1.
         11    1    4    4    0    0 -0.79265901331E-02  0.64298130066E-02  0.72439485393E-02  0.12526341760E-01  0.51100000000E-03 0.  1.
</event>
<event>
 8    1  0.1163913E+005  0.1043930E+01  0.7957747E-01            NaN
         13   -1    0    0    0    0  0.00000000000E+00  0.00000000000E+00  0.74505805969E-08  0.10566000000E+00  0.10566000000E+00 0. -1.
     999900   -1    0    0    0    0 -0.00000000000E+00 -0.00000000000E+00 -0.74505805969E-08  0.93827000000E+00  0.93827000000E+00 0.  1.
     999902    2    1    2    0    0  0.22387285392E-01  0.78007639848E-02  0.26087552329E-02  0.10200794640E+01  0.10198006005E+01 0.  0.
     999903    2    3    3    0    0 -0.63492566737E-01  0.92653310568E-01 -0.61944965989E-01  0.12949398990E+00  0.17764363748E-01 0.  0.
         14    1    1    2    0    0 -0.22387285392E-01 -0.78007639848E-02 -0.26087552329E-02  0.23850536049E-01  0.00000000000E+00 0.  1.
     999901    1    3    3    0    0  0.85879852129E-01 -0.84852546583E-01  0.64553721221E-01  0.89058547405E+00  0.88000000000E+00 0. -1.
        -11    1    4    4    0    0 -0.55375731404E-01  0.87590355290E-01 -0.53034962642E-01  0.11641095460E+00  0.51100000000E-03 0. -1.
         11    1    4    4    0    0 -0.81168353330E-02  0.50629552773E-02 -0.89100033468E-02  0.13083035298E-01  0.51100000000E-03 0.  1.
</event>
<event>
 8    1  0.1163913E+005  0.1043930E+01  0.7957747E-01            NaN
         13   -1    0    0    0    0  0.00000000000E+00  0.00000000000E+00  0.74505805969E-08  0.10566000000E+00  0.10566000000E+00 0.  1.
     999900   -1    0    0    0    0 -0.00000000000E+00 -0.00000000000E+00 -0.74505805969E-08  0.93827000000E+00  0.93827000000E+00 0.  1.
     999902    2    1    2    0    0 -0.80285089887E-02  0.22263560927E-01 -0.18544222489E-02  0.10201905395E+01  0.10199142978E+01 0.  0.
     999903    2    3    3    0    0  0.10210366552E+00 -0.49593189920E-01 -0.57669731408E-01  0.12867058056E+00  0.18592401157E-01 0.  0.
         14    1    1    2    0    0  0.80285089887E-02 -0.22263560927E-01  0.18544222489E-02  0.23739460474E-01  0.00000000000E+00 0.  1.
     999901    1    3    3    0    0 -0.11013217451E+00  0.71856750847E-01  0.55815309160E-01  0.89151995897E+00  0.88000000000E+00 0. -1.
        -11    1    4    4    0    0  0.34658452594E-01 -0.25277295153E-01 -0.16282809221E-01  0.45886174209E-01  0.51100000000E-03 0. -1.
         11    1    4    4    0    0  0.67445212927E-01 -0.24315894767E-01 -0.41386922187E-01  0.82784406347E-01  0.51100000000E-03 0.  1.
</event>
<event>
 8    1  0.1163913E+005  0.1043930E+01  0.7957747E-01            NaN
         13   -1    0    0    0    0  0.00000000000E+00  0.00000000000E+00  0.74505805969E-08  0.10566000000E+00  0.10566000000E+00 0. -1.
     999900   -1    0    0    0    0 -0.00000000000E+00 -0.00000000000E+00 -0.74505805969E-08  0.93827000000E+00  0.93827000000E+00 0.  1.
     999902    2    1    2    0    0 -0.18143989355E-02 -0.21417072037E-01  0.72106673340E-02  0.10212589449E+01  0.10210072750E+01 0.  0.
     999903    2    3    3    0    0  0.67574586202E-01 -0.71847639425E-01  0.87714469303E-01  0.13343073201E+00  0.19532642636E-01 0.  0.
         14    1    1    2    0    0  0.18143989355E-02  0.21417072037E-01 -0.72106673340E-02  0.22671055148E-01  0.00000000000E+00 0. -1.
     999901    1    3    3    0    0 -0.69388985137E-01  0.50430567389E-01 -0.80503801969E-01  0.88782821284E+00  0.88000000000E+00 0.  1.
        -11    1    4    4    0    0  0.31136168675E-01 -0.46865374293E-01  0.52035398062E-01  0.76640512002E-01  0.51100000000E-03 0. -1.
         11    1    4    4    0    0  0.36438417527E-01 -0.24982265132E-01  0.35679071241E-01  0.56790220009E-01  0.51100000000E-03 0.  1.
</event>
<event>
 8    1  0.1163913E+005  0.1043930E+01  0.7957747E-01            NaN
         13   -1    0    0    0    0  0.00000000000E+00  0.00000000000E+00  0.74505805969E-08  0.10566000000E+00  0.10566000000E+00 0.  1.
     999900   -1    0    0    0    0 -0.00000000000E+00 -0.00000000000E+00 -0.74505805969E-08  0.93827000000E+00  0.93827000000E+00 0.  1.
     999902    2    1    2    0    0  0.10343885790E-01 -0.11484198007E-01  0.16458031281E-01  0.10213523657E+01  0.10211027888E+01 0.  0.
     999903    2    3    3    0    0 -0.74913155669E-01 -0.10626839016E+00  0.11767635841E-01  0.13215339696E+00  0.20520512528E-01 0.  0.
         14    1    1    2    0    0 -0.10343885790E-01  0.11484198007E-01 -0.16458031281E-01  0.22577634303E-01  0.00000000000E+00 0. -1.
     999901    1    3    3    0    0  0.85257041458E-01  0.94784192153E-01  0.46903954397E-02  0.88919896874E+00  0.88000000000E+00 0.  1.
        -11    1    4    4    0    0 -0.24480659118E-01 -0.19783320346E-01  0.40676579842E-02  0.31740973477E-01  0.51100000000E-03 0.  1.
         11    1    4    4    0    0 -0.50432496550E-01 -0.86485069814E-01  0.76999778568E-02  0.10041242348E+00  0.51100000000E-03 0. -1.
</event>
<event>
 8    1  0.1163913E+005  0.1043930E+01  0.7957747E-01            NaN
         13   -1    0    0    0    0  0.00000000000E+00  0.00000000000E+00  0.74505805969E-08  0.10566000000E+00  0.10566000000E+00 0. -1.
     999900   -1    0    0    0    0 -0.00000000000E+00 -0.00000000000E+00 -0.74505805969E-08  0.93827000000E+00  0.93827000000E+00 0.  1.
     999902    2    1    2    0    0 -0.13490738354E-01  0.15869556549E-01  0.97482498611E-02  0.10209327997E+01  0.10206737531E+01 0.  0.
     999903    2    3    3    0    0  0.84639665919E-01  0.61191502932E-01  0.78028886781E-01  0.13169385518E+00  0.18614275230E-01 0.  0.
         14    1    1    2    0    0  0.13490738354E-01 -0.15869556549E-01 -0.97482498611E-02  0.22997200302E-01  0.00000000000E+00 0.  1.
     999901    1    3    3    0    0 -0.98130404273E-01 -0.45321946383E-01 -0.68280636920E-01  0.88923894452E+00  0.88000000000E+00 0. -1.
        -11    1    4    4    0    0  0.54424612233E-01  0.43085004275E-01  0.41167818251E-01  0.80705677561E-01  0.51100000000E-03 0. -1.
         11    1    4    4    0    0  0.30215053686E-01  0.18106498657E-01  0.36861068530E-01  0.50988177620E-01  0.51100000000E-03 0.  1.
</event>
<event>
 8    1  0.1163913E+005  0.1043930E+01  0.7957747E-01            NaN
         13   -1    0    0    0    0  0.00000000000E+00  0.00000000000E+00  0.74505805969E-08  0.10566000000E+00  0.10566000000E+00 0. -1.
     999900   -1    0    0    0    0 -0.00000000000E+00 -0.00000000000E+00 -0.74505805969E-08  0.93827000000E+00  0.93827000000E+00 0. -1.
     999902    2    1    2    0    0 -0.22446772357E-01  0.61347930458E-02 -0.62336547621E-04  0.10206599084E+01  0.10203946058E+01 0.  0.
     999903    2    3    3    0    0 -0.11936118430E+00 -0.51795813794E-01 -0.20925879505E-01  0.13320081312E+00  0.19356279098E-01 0.  0.
         14    1    1    2    0    0  0.22446772357E-01 -0.61347930458E-02  0.62336547621E-04  0.23270091552E-01  0.00000000000E+00 0.  1.
     999901    1    3    3    0    0  0.96914411939E-01  0.57930606839E-01  0.20863542957E-01  0.88745909532E+00  0.88000000000E+00 0.  1.
        -11    1    4    4    0    0 -0.63009557679E-01 -0.31382440961E-01 -0.20291274815E-01  0.73260213720E-01  0.51100000000E-03 0.  1.
         11    1    4    4    0    0 -0.56351626617E-01 -0.20413372833E-01 -0.63460468970E-03  0.59940599404E-01  0.51100000000E-03 0. -1.
</event>
<event>
 8    1  0.1163913E+005  0.1043930E+01  0.7957747E-01            NaN
         13   -1    0    0    0    0  0.00000000000E+00  0.00000000000E+00  0.74505805969E-08  0.10566000000E+00  0.10566000000E+00 0. -1.
     999900   -1    0    0    0    0 -0.00000000000E+00 -0.00000000000E+00 -0.74505805969E-08  0.93827000000E+00  0.93827000000E+00 0. -1.
     999902    2    1    2    0    0 -0.27947679693E-02 -0.24921659498E-01  0.33031101369E-02  0.10186355268E+01  0.10183214257E+01 0.  0.
     999903    2    3    3    0    0  0.63111125061E-01 -0.98903534061E-01 -0.55047372644E-01  0.13115500114E+00  0.20161793914E-01 0.  0.
         14    1    1    2    0    0  0.27947679693E-02  0.24921659498E-01 -0.33031101369E-02  0.25294473245E-01  0.00000000000E+00 0.  1.
     999901    1    3    3    0    0 -0.65905893030E-01  0.73981874562E-01  0.58350482781E-01  0.88748052561E+00  0.88000000000E+00 0.  1.
        -11    1    4    4    0    0  0.46137514542E-01 -0.80814122680E-01 -0.50675692116E-01  0.10596168914E+00  0.51100000000E-03 0.  1.
         11    1    4    4    0    0  0.16973610518E-01 -0.18089411380E-01 -0.43716805276E-02  0.25193312004E-01  0.51100000000E-03 0. -1.
</event>
<event>
 8    1  0.1163913E+005  0.1043930E+01  0.7957747E-01            NaN
         13   -1    0    0    0    0  0.00000000000E+00  0.00000000000E+00  0.74505805969E-08  0.10566000000E+00  0.10566000000E+00 0.  1.
     999900   -1    0    0    0    0 -0.00000000000E+00 -0.00000000000E+00 -0.74505805969E-08  0.93827000000E+00  0.93827000000E+00 0. -1.
     999902    2    1    2    0    0  0.53429103204E-02  0.50365065250E-02  0.22390681084E-01  0.10203661360E+01  0.10200940132E+01 0.  0.
     999903    2    3    3    0    0 -0.12055756778E+00  0.44572746205E-01 -0.38522447257E-02  0.13013990866E+00  0.20017471957E-01 0.  0.
         14    1    1    2    0    0 -0.53429103204E-02 -0.50365065250E-02 -0.22390681084E-01  0.23563864031E-01  0.00000000000E+00 0. -1.
     999901    1    3    3    0    0  0.12590047810E+00 -0.39536239680E-01  0.26242925810E-01  0.89022622731E+00  0.88000000000E+00 0.  1.
        -11    1    4    4    0    0 -0.58385473326E-01  0.16942711850E-01 -0.10803371361E-01  0.61748626982E-01  0.51100000000E-03 0. -1.
         11    1    4    4    0    0 -0.62172094452E-01  0.27630034355E-01  0.69511266351E-02  0.68391281678E-01  0.51100000000E-03 0.  1.
</event>
<event>
 8    1  0.1163913E+005  0.1043930E+01  0.7957747E-01            NaN
         13   -1    0    0    0    0  0.00000000000E+00  0.00000000000E+00  0.74505805969E-08  0.10566000000E+00  0.10566000000E+00 0.  1.
     999900   -1    0    0    0    0 -0.00000000000E+00 -0.00000000000E+00 -0.74505805969E-08  0.93827000000E+00  0.93827000000E+00 0.  1.
     999902    2    1    2    0    0 -0.82503213917E-02  0.22515557004E-01  0.55996374390E-02  0.10193053366E+01  0.10190078484E+01 0.  0.
     999903    2    3    3    0    0  0.24266993840E-01 -0.73143979635E-01  0.10084561330E+00  0.12841818396E+00  0.19556674131E-01 0.  0.
         14    1    1    2    0    0  0.82503213917E-02 -0.22515557004E-01 -0.55996374390E-02  0.24624663443E-01  0.00000000000E+00 0. -1.
     999901    1    3    3    0    0 -0.32517315232E-01  0.95659536639E-01 -0.95245975863E-01  0.89088715259E+00  0.88000000000E+00 0.  1.
        -11    1    4    4    0    0  0.72490238880E-03 -0.29033119879E-01  0.43847410265E-01  0.52595665613E-01  0.51100000000E-03 0. -1.
         11    1    4    4    0    0  0.23542091451E-01 -0.44110859756E-01  0.56998203037E-01  0.75822518349E-01  0.51100000000E-03 0.  1.
</event>
<event>
 8    1  0.1208186E+005  0.1043930E+01  0.7957747E-01            NaN
         13   -1    0    0    0    0  0.00000000000E+00  0.00000000000E+00  0.74505805969E-08  0.10566000000E+00  0.10566000000E+00 0.  1.
     999900   -1    0    0    0    0 -0.00000000000E+00 -0.00000000000E+00 -0.74505805969E-08  0.93827000000E+00  0.93827000000E+00 0. -1.
     999902    2    1    2    0    0  0.20808370689E-01  0.78199432032E-02 -0.76616850959E-02  0.10204174242E+01  0.10201464985E+01 0.  0.
     999903    2    3    3    0    0 -0.89905351153E-01  0.90788686631E-01  0.71349585779E-02  0.12948517018E+00  0.19746996618E-01 0.  0.
         14    1    1    2    0    0 -0.20808370689E-01 -0.78199432032E-02  0.76616850959E-02  0.23512575804E-01  0.00000000000E+00 0. -1.
     999901    1    3    3    0    0  0.11071372184E+00 -0.82968743427E-01 -0.14796643674E-01  0.89093225402E+00  0.88000000000E+00 0. -1.
        -11    1    4    4    0    0 -0.41973516237E-01  0.29231270679E-01  0.55226657863E-02  0.51449044784E-01  0.51100000000E-03 0. -1.
         11    1    4    4    0    0 -0.47931834916E-01  0.61557415952E-01  0.16122927916E-02  0.78036125391E-01  0.51100000000E-03 0.  1.
</event>
<event>
 8    1  0.1163913E+005  0.1043930E+01  0.7957747E-01            NaN
         13   -1    0    0    0    0  0.00000000000E+00  0.00000000000E+00  0.74505805969E-08  0.10566000000E+00  0.10566000000E+00 0.  1.
     999900   -1    0    0    0    0 -0.00000000000E+00 -0.00000000000E+00 -0.74505805969E-08  0.93827000000E+00  0.93827000000E+00 0.  1.
     999902    2    1    2    0    0  0.22823857475E-01 -0.88931049749E-02 -0.11837221090E-02  0.10194061956E+01  0.10191111689E+01 0.  0.
     999903    2    3    3    0    0 -0.34238488581E-01 -0.25605712044E-01  0.12026180929E+00  0.12907791921E+00  0.19242657406E-01 0.  0.
         14    1    1    2    0    0 -0.22823857475E-01  0.88931049749E-02  0.11837221090E-02  0.24523804439E-01  0.00000000000E+00 0. -1.
     999901    1    3    3    0    0  0.57062346056E-01  0.16712607069E-01 -0.12144553140E+00  0.89032827635E+00  0.88000000000E+00 0.  1.
        -11    1    4    4    0    0 -0.24309437421E-01 -0.79121839200E-02  0.53445739261E-01  0.59247443559E-01  0.51100000000E-03 0.  1.
         11    1    4    4    0    0 -0.99290511605E-02 -0.17693528124E-01  0.66816070030E-01  0.69830475652E-01  0.51100000000E-03 0. -1.
</event>
<event>
 8    1  0.1163913E+005  0.1043930E+01  0.7957747E-01            NaN
         13   -1    0    0    0    0  0.00000000000E+00  0.00000000000E+00  0.74505805969E-08  0.10566000000E+00  0.10566000000E+00 0. -1.
     999900   -1    0    0    0    0 -0.00000000000E+00 -0.00000000000E+00 -0.74505805969E-08  0.93827000000E+00  0.93827000000E+00 0. -1.
     999902    2    1    2    0    0 -0.10046754439E-01  0.19524398975E-01 -0.10566517857E-01  0.10195621784E+01  0.10192709379E+01 0.  0.
     999903    2    3    3    0    0  0.10723800032E+00  0.58948485980E-01 -0.40481516146E-01  0.13040253049E+00  0.19777616106E-01 0.  0.
         14    1    1    2    0    0  0.10046754439E-01 -0.19524398975E-01  0.10566517857E-01  0.24367821604E-01  0.00000000000E+00 0. -1.
     999901    1    3    3    0    0 -0.11728475476E+00 -0.39424087005E-01  0.29914998289E-01  0.88915964790E+00  0.88000000000E+00 0. -1.
        -11    1    4    4    0    0  0.11973348709E-01  0.33828798141E-02  0.11819656778E-02  0.12508521855E-01  0.51100000000E-03 0.  1.
         11    1    4    4    0    0  0.95264651607E-01  0.55565606165E-01 -0.41663481823E-01  0.11789400864E+00  0.51100000000E-03 0. -1.
</event>
<event>
 8    1  0.1163913E+005  0.1043930E+01  0.7957747E-01            NaN
         13   -1    0    0    0    0  0.00000000000E+00  0.00000000000E+00  0.74505805969E-08  0.10566000000E+00  0.10566000000E+00 0.  1.
     999900   -1    0    0    0    0 -0.00000000000E+00 -0.00000000000E+00 -0.74505805969E-08  0.93827000000E+00  0.93827000000E+00 0. -1.
     999902    2    1    2    0    0 -0.21416063073E-01  0.56409682424E-02  0.31408743985E-02  0.10215618670E+01  0.10213169512E+01 0.  0.
     999903    2    3    3    0    0  0.63823486043E-01  0.11268767414E-01  0.11184345461E+00  0.13076800547E+00  0.19770949066E-01 0.  0.
         14    1    1    2    0    0  0.21416063073E-01 -0.56409682424E-02 -0.31408743985E-02  0.22368132963E-01  0.00000000000E+00 0. -1.
     999901    1    3    3    0    0 -0.85239549116E-01 -0.56277991717E-02 -0.10870258021E+00  0.89079386156E+00  0.88000000000E+00 0. -1.
        -11    1    4    4    0    0  0.32677734747E-01  0.15122720081E-01  0.52994729933E-01  0.64072096364E-01  0.51100000000E-03 0. -1.
         11    1    4    4    0    0  0.31145751296E-01 -0.38539526665E-02  0.58848724674E-01  0.66695909108E-01  0.51100000000E-03 0.  1.
</event>
<event>
 8    1  0.1163913E+005  0.1043930E+01  0.7957747E-01            NaN
         13   -1    0    0    0    0  0.00000000000E+00  0.00000000000E+00  0.74505805969E-08  0.10566000000E+00  0.10566000000E+00 0.  1.
     999900   -1    0    0    0    0 -0.00000000000E+00 -0.00000000000E+00 -0.74505805969E-08  0.93827000000E+00  0.93827000000E+00 0.  1.
     999902    2    1    2    0    0  0.16011493760E-01  0.17029319971E-01 -0.28740401412E-02  0.10203795058E+01  0.10201076953E+01 0.  0.
     999903    2    3    3    0    0  0.10170578505E+00 -0.42188017334E-01  0.68819485674E-01  0.13134060549E+00  0.19756961360E-01 0.  0.
         14    1    1    2    0    0 -0.16011493760E-01 -0.17029319971E-01  0.28740401412E-02  0.23550494216E-01  0.00000000000E+00 0. -1.
     999901    1    3    3    0    0 -0.85694291290E-01  0.59217337305E-01 -0.71693525815E-01  0.88903890030E+00  0.88000000000E+00 0.  1.
        -11    1    4    4    0    0  0.77679778881E-01 -0.22710363390E-01  0.49655608962E-01  0.94951826074E-01  0.51100000000E-03 0. -1.
         11    1    4    4    0    0  0.24026006168E-01 -0.19477653944E-01  0.19163876712E-01  0.36388779414E-01  0.51100000000E-03 0.  1.
</event>
<event>
 8    1  0.1163913E+005  0.1043930E+01  0.7957747E-01            NaN
         13   -1    0    0    0    0  0.00000000000E+00  0.00000000000E+00  0.74505805969E-08  0.10566000000E+00  0.10566000000E+00 0.  1.
     999900   -1    0    0    0    0 -0.00000000000E+00 -0.00000000000E+00 -0.74505805969E-08  0.93827000000E+00  0.93827000000E+00 0. -1.
     999902    2    1    2    0    0 -0.39116913709E-02  0.53552905078E-02 -0.24804588521E-01  0.10182541733E+01  0.10179304069E+01 0.  0.
     999903    2    3    3    0    0  0.45764258031E-01 -0.11772492590E+00  0.67558972875E-03  0.12793643275E+00  0.20340818863E-01 0.  0.
         14    1    1    2    0    0  0.39116913709E-02 -0.53552905078E-02  0.24804588521E-01  0.25675826715E-01  0.00000000000E+00 0.  1.
     999901    1    3    3    0    0 -0.49675949402E-01  0.12308021641E+00 -0.25480178250E-01  0.89031774053E+00  0.88000000000E+00 0. -1.
        -11    1    4    4    0    0  0.24146529204E-01 -0.66685647795E-01  0.10323959188E-01  0.71672001150E-01  0.51100000000E-03 0. -1.
         11    1    4    4    0    0  0.21617728827E-01 -0.51039278109E-01 -0.96483694592E-02  0.56264431604E-01  0.51100000000E-03 0.  1.
</event>
<event>
 8    1  0.1163913E+005  0.1043930E+01  0.7957747E-01            NaN
         13   -1    0    0    0    0  0.00000000000E+00  0.00000000000E+00  0.74505805969E-08  0.10566000000E+00  0.10566000000E+00 0. -1.
     999900   -1    0    0    0    0 -0.00000000000E+00 -0.00000000000E+00 -0.74505805969E-08  0.93827000000E+00  0.93827000000E+00 0. -1.
     999902    2    1    2    0    0  0.10177410883E-01  0.20037214371E-01  0.70347090520E-02  0.10203809706E+01  0.10201091944E+01 0.  0.
     999903    2    3    3    0    0 -0.58415065833E-01 -0.11114012956E+00 -0.14145529244E-01  0.12776625762E+00  0.18965027596E-01 0.  0.
         14    1    1    2    0    0 -0.10177410883E-01 -0.20037214371E-01 -0.70347090520E-02  0.23549029353E-01  0.00000000000E+00 0.  1.
     999901    1    3    3    0    0  0.68592476717E-01  0.13117734394E+00  0.21180238296E-01  0.89261471303E+00  0.88000000000E+00 0.  1.
        -11    1    4    4    0    0 -0.18034729374E-01 -0.48582500050E-01  0.75531143588E-03  0.51829937209E-01  0.51100000000E-03 0.  1.
         11    1    4    4    0    0 -0.40380336459E-01 -0.62557629515E-01 -0.14900840680E-01  0.75936320408E-01  0.51100000000E-03 0. -1.
</event>
<event>
 8    1  0.1163913E+005  0.1043930E+01  0.7957747E-01            NaN
         13   -1    0    0    0    0  0.00000000000E+00  0.00000000000E+00  0.74505805969E-08  0.10566000000E+00  0.10566000000E+00 0.  1.
     999900   -1    0    0    0    0 -0.00000000000E+00 -0.00000000000E+00 -0.74505805969E-08  0.93827000000E+00  0.93827000000E+00 0. -1.
     999902    2    1    2    0    0 -0.21641724276E-01 -0.13614681020E-02  0.73670696734E-02  0.10210282197E+01  0.10207713426E+01 0.  0.
     999903    2    3    3    0    0 -0.88032618605E-01  0.44756281833E-01 -0.85741867644E-01  0.13243164537E+00  0.20823211262E-01 0.  0.
         14    1    1    2    0    0  0.21641724276E-01  0.13614681020E-02 -0.73670696734E-02  0.22901780293E-01  0.00000000000E+00 0. -1.
     999901    1    3    3    0    0  0.66390894330E-01 -0.46117749935E-01  0.93108937317E-01  0.88859657433E+00  0.88000000000E+00 0.  1.
        -11    1    4    4    0    0 -0.64424685280E-01  0.25942211936E-01 -0.49642967867E-01  0.85371094717E-01  0.51100000000E-03 0. -1.
         11    1    4    4    0    0 -0.23607933325E-01  0.18814069897E-01 -0.36098899777E-01  0.47060550656E-01  0.51100000000E-03 0.  1.
</event>
<event>
 8    1  0.1163913E+005  0.1043930E+01  0.7957747E-01            NaN
         13   -1    0    0    0    0  0.00000000000E+00  0.00000000000E+00  0.74505805969E-08  0.10566000000E+00  0.10566000000E+00 0. -1.
     999900   -1    0    0    0    0 -0.00000000000E+00 -0.00000000000E+00 -0.74505805969E-08  0.93827000000E+00  0.93827000000E+00 0. -1.
     999902    2    1    2    0    0  0.18929910064E-01 -0.29157973757E-04 -0.13339482276E-01  0.10207721907E+01  0.10205094714E+01 0.  0.
     999903    2    3    3    0    0  0.79671058223E-01  0.86034740877E-01 -0.60033621615E-01  0.13326059953E+00  0.20122065196E-01 0.  0.
         14    1    1    2    0    0 -0.18929910064E-01  0.29157973758E-04  0.13339482276E-01  0.23157809323E-01  0.00000000000E+00 0. -1.
     999901    1    3    3    0    0 -0.60741148158E-01 -0.86063898851E-01  0.46694139339E-01  0.88751159114E+00  0.88000000000E+00 0.  1.
        -11    1    4    4    0    0  0.58930709143E-01  0.59224206356E-01 -0.52037171729E-01  0.98429992691E-01  0.51100000000E-03 0. -1.
         11    1    4    4    0    0  0.20740349080E-01  0.26810534521E-01 -0.79964498860E-02  0.34830606843E-01  0.51100000000E-03 0.  1.
</event>
<event>
 8    1  0.1163913E+005  0.1043930E+01  0.7957747E-01            NaN
         13   -1    0    0    0    0  0.00000000000E+00  0.00000000000E+00  0.74505805969E-08  0.10566000000E+00  0.10566000000E+00 0.  1.
     999900   -1    0    0    0    0 -0.00000000000E+00 -0.00000000000E+00 -0.74505805969E-08  0.93827000000E+00  0.93827000000E+00 0.  1.
     999902    2    1    2    0    0 -0.16090744454E-02 -0.16931919994E-01  0.16941089238E-01  0.10199241770E+01  0.10196416269E+01 0.  0.
     999903    2    3    3    0    0 -0.47328340675E-01 -0.10815720904E+00 -0.53355829068E-01  0.13124315354E+00  0.20975394084E-01 0.  0.
         14    1    1    2    0    0  0.16090744454E-02  0.16931919994E-01 -0.16941089238E-01  0.24005823040E-01  0.00000000000E+00 0. -1.
     999901    1    3    3    0    0  0.45719266229E-01  0.91225289045E-01  0.70296918306E-01  0.88868102342E+00  0.88000000000E+00 0. -1.
        -11    1    4    4    0    0 -0.37597844787E-01 -0.66543191250E-01 -0.27159164263E-01  0.81113966484E-01  0.51100000000E-03 0. -1.
         11    1    4    4    0    0 -0.97304958878E-02 -0.41614017790E-01 -0.26196664805E-01  0.50129187054E-01  0.51100000000E-03 0.  1.
</event>
<event>
 8    1  0.1163913E+005  0.1043930E+01  0.7957747E-01            NaN
         13   -1    0    0    0    0  0.00000000000E+00  0.00000000000E+00  0.74505805969E-08  0.10566000000E+00  0.10566000000E+00 0. -1.
     999900   -1    0    0    0    0 -0.00000000000E+00 -0.00000000000E+00 -0.74505805969E-08  0.93827000000E+00  0.93827000000E+00 0. -1.
     999902    2    1    2    0    0 -0.16329877709E-01 -0.91032287799E-02 -0.24244729377E-01  0.10133139816E+01  0.10128513636E+01 0.  0.
     999903    2    3    3    0    0  0.11576688997E+00 -0.34890160206E-01  0.56804971427E-02  0.12257830754E+00  0.19335907988E-01 0.  0.
         14    1    1    2    0    0  0.16329877709E-01  0.91032287799E-02  0.24244729377E-01  0.30616018402E-01  0.00000000000E+00 0. -1.
     999901    1    3    3    0    0 -0.13209676768E+00  0.25786931427E-01 -0.29925226520E-01  0.89073567406E+00  0.88000000000E+00 0.  1.
        -11    1    4    4    0    0  0.42993470242E-01 -0.10987664122E-01 -0.70278350886E-02  0.44931267881E-01  0.51100000000E-03 0.  1.
         11    1    4    4    0    0  0.72773419729E-01 -0.23902496084E-01  0.12708332231E-01  0.77647039656E-01  0.51100000000E-03 0. -1.
</event>
<event>
 8    1  0.1163913E+005  0.1043930E+01  0.7957747E-01            NaN
         13   -1    0    0    0    0  0.00000000000E+00  0.00000000000E+00  0.74505805969E-08  0.10566000000E+00  0.10566000000E+00 0. -1.
     999900   -1    0    0    0    0 -0.00000000000E+00 -0.00000000000E+00 -0.74505805969E-08  0.93827000000E+00  0.93827000000E+00 0. -1.
     999902    2    1    2    0    0 -0.15401592504E-01  0.14294159157E-01 -0.10250342745E-01  0.10205504884E+01  0.10202826558E+01 0.  0.
     999903    2    3    3    0    0 -0.81358472072E-01 -0.97886124350E-01 -0.21888596021E-01  0.13090439305E+00  0.21353106733E-01 0.  0.
         14    1    1    2    0    0  0.15401592504E-01 -0.14294159157E-01  0.10250342745E-01  0.23379511630E-01  0.00000000000E+00 0. -1.
     999901    1    3    3    0    0  0.65956879568E-01  0.11218028351E+00  0.11638253275E-01  0.88964609532E+00  0.88000000000E+00 0.  1.
        -11    1    4    4    0    0 -0.37490613647E-01 -0.59295929879E-01 -0.63328365344E-02  0.70440892608E-01  0.51100000000E-03 0. -1.
         11    1    4    4    0    0 -0.43867858425E-01 -0.38590194471E-01 -0.15555759486E-01  0.60463500447E-01  0.51100000000E-03 0.  1.
</event>
<event>
 8    1  0.1163913E+005  0.1043930E+01  0.7957747E-01            NaN
         13   -1    0    0    0    0  0.00000000000E+00  0.00000000000E+00  0.74505805969E-08  0.10566000000E+00  0.10566000000E+00 0.  1.
     999900   -1    0    0    0    0 -0.00000000000E+00 -0.00000000000E+00 -0.74505805969E-08  0.93827000000E+00  0.93827000000E+00 0.  1.
     999902    2    1    2    0    0 -0.15776320279E-03 -0.13780548581E-01  0.19899251329E-01  0.10197244508E+01  0.10194371226E+01 0.  0.
     999903    2    3    3    0    0 -0.58187581349E-01 -0.84305212619E-01 -0.76916079780E-01  0.12971636299E+00  0.20422732472E-01 0.  0.
         14    1    1    2    0    0  0.15776320279E-03  0.13780548581E-01 -0.19899251329E-01  0.24205549195E-01  0.00000000000E+00 0. -1.
     999901    1    3    3    0    0  0.58029818146E-01  0.70524664038E-01  0.96815331108E-01  0.89000808781E+00  0.88000000000E+00 0. -1.
        -11    1    4    4    0    0 -0.10786490809E-01 -0.32194762110E-01 -0.26886274366E-01  0.43312630509E-01  0.51100000000E-03 0.  1.
         11    1    4    4    0    0 -0.47401090539E-01 -0.52110450509E-01 -0.50029805413E-01  0.86403732485E-01  0.51100000000E-03 0. -1.
</event>
<event>
 8    1  0.1163913E+005  0.1043930E+01  0.7957747E-01            NaN
         13   -1    0    0    0    0  0.00000000000E+00  0.00000000000E+00  0.74505805969E-08  0.10566000000E+00  0.10566000000E+00 0.  1.
     999900   -1    0    0    0    0 -0.00000000000E+00 -0.00000000000E+00 -0.74505805969E-08  0.93827000000E+00  0.93827000000E+00 0.  1.
     999902    2    1    2    0    0  0.90211847120E-02  0.11127691373E-01 -0.18637036280E-01  0.10204236942E+01  0.10201529147E+01 0.  0.
     999903    2    3    3    0    0  0.11713101947E+00  0.50184054175E-02  0.56446037601E-01  0.13061330561E+00  0.11349904262E-01 0.  0.
         14    1    1    2    0    0 -0.90211847120E-02 -0.11127691373E-01  0.18637036280E-01  0.23506305754E-01  0.00000000000E+00 0.  1.
     999901    1    3    3    0    0 -0.10810983475E+00  0.61092859551E-02 -0.75083073881E-01  0.88981038864E+00  0.88000000000E+00 0.  1.
        -11    1    4    4    0    0  0.51627233687E-01  0.76978413028E-02  0.23670757396E-01  0.57316610992E-01  0.51100000000E-03 0.  1.
         11    1    4    4    0    0  0.65503785780E-01 -0.26794358854E-02  0.32775280204E-01  0.73296694616E-01  0.51100000000E-03 0. -1.
</event>
<event>
 8    1  0.1163913E+005  0.1043930E+01  0.7957747E-01            NaN
         13   -1    0    0    0    0  0.00000000000E+00  0.00000000000E+00  0.74505805969E-08  0.10566000000E+00  0.10566000000E+00 0.  1.
     999900   -1    0    0    0    0 -0.00000000000E+00 -0.00000000000E+00 -0.74505805969E-08  0.93827000000E+00  0.93827000000E+00 0. -1.
     999902    2    1    2    0    0 -0.15254151060E-01 -0.14157146802E-01 -0.17676304049E-02  0.10230436780E+01  0.10228304496E+01 0.  0.
     999903    2    3    3    0    0 -0.82274958841E-02  0.68398847184E-01 -0.11109415443E+00  0.13241628402E+00  0.21120301622E-01 0.  0.
         14    1    1    2    0    0  0.15254151060E-01  0.14157146802E-01  0.17676304049E-02  0.20886322017E-01  0.00000000000E+00 0.  1.
     999901    1    3    3    0    0 -0.70266551756E-02 -0.82555993986E-01  0.10932652402E+00  0.89062739397E+00  0.88000000000E+00 0.  1.
        -11    1    4    4    0    0 -0.10986041207E-01  0.42185208916E-01 -0.53043854430E-01  0.68660007038E-01  0.51100000000E-03 0. -1.
         11    1    4    4    0    0  0.27585453233E-02  0.26213638268E-01 -0.58050299998E-01  0.63756276980E-01  0.51100000000E-03 0.  1.
</event>
<event>
 8    1  0.1163913E+005  0.1043930E+01  0.7957747E-01            NaN
         13   -1    0    0    0    0  0.00000000000E+00  0.00000000000E+00  0.74505805969E-08  0.10566000000E+00  0.10566000000E+00 0.  1.
     999900   -1    0    0    0    0 -0.00000000000E+00 -0.00000000000E+00 -0.74505805969E-08  0.93827000000E+00  0.93827000000E+00 0.  1.
     999902    2    1    2    0    0 -0.22154055417E-01  0.23712767131E-02  0.82935764708E-02  0.10201558852E+01  0.10198788269E+01 0.  0.
     999903    2    3    3    0    0  0.28419187476E-01 -0.11456462058E+00  0.50509089512E-01  0.12997960685E+00  0.20268881725E-01 0.  0.
         14    1    1    2    0    0  0.22154055417E-01 -0.23712767131E-02 -0.82935764708E-02  0.23774114817E-01  0.00000000000E+00 0. -1.
     999901    1    3    3    0    0 -0.50573242893E-01  0.11693589730E+00 -0.42215513041E-01  0.89017627834E+00  0.88000000000E+00 0.  1.
        -11    1    4    4    0    0  0.18050963580E-01 -0.37363008585E-01  0.22465917916E-01  0.47189090747E-01  0.51100000000E-03 0. -1.
         11    1    4    4    0    0  0.10368223896E-01 -0.77201611997E-01  0.28043171596E-01  0.82790516099E-01  0.51100000000E-03 0.  1.
</event>
<event>
 8    1  0.1163913E+005  0.1043930E+01  0.7957747E-01            NaN
         13   -1    0    0    0    0  0.00000000000E+00  0.00000000000E+00  0.74505805969E-08  0.10566000000E+00  0.10566000000E+00 0.  1.
     999900   -1    0    0    0    0 -0.00000000000E+00 -0.00000000000E+00 -0.74505805969E-08  0.93827000000E+00  0.93827000000E+00 0.  1.
     999902    2    1    2    0    0  0.16945518942E-01  0.90760225561E-02  0.38486456624E-02  0.10243254885E+01  0.10241378665E+01 0.  0.
     999903    2    3    3    0    0  0.41595574071E-02  0.12663103796E+00 -0.43083118448E-01  0.13517687722E+00  0.19076460581E-01 0.  0.
         14    1    1    2    0    0 -0.16945518942E-01 -0.90760225561E-02 -0.38486456624E-02  0.19604511498E-01  0.00000000000E+00 0.  1.
     999901    1    3    3    0    0  0.12785961535E-01 -0.11755501540E+00  0.46931764110E-01  0.88914861128E+00  0.88000000000E+00 0.  1.
        -11    1    4    4    0    0 -0.72243151594E-02  0.37037507620E-01 -0.14789564815E-01  0.40533443582E-01  0.51100000000E-03 0. -1.
         11    1    4    4    0    0  0.11383872566E-01  0.89593530337E-01 -0.28293553633E-01  0.94643433640E-01  0.51100000000E-03 0.  1.
</event>
<event>
 8    1  0.1163913E+005  0.1043930E+01  0.7957747E-01            NaN
         13   -1    0    0    0    0  0.00000000000E+00  0.00000000000E+00  0.74505805969E-08  0.10566000000E+00  0.10566000000E+00 0. -1.
     999900   -1    0    0    0    0 -0.00000000000E+00 -0.00000000000E+00 -0.74505805969E-08  0.93827000000E+00  0.93827000000E+00 0.  1.
     999902    2    1    2    0    0 -0.73939641990E-02 -0.12257023478E-01 -0.19189536410E-01  0.10199895815E+01  0.10197085871E+01 0.  0.
     999903    2    3    3    0    0  0.10882161246E+00 -0.68058332855E-01  0.68077794557E-02  0.13021674147E+00  0.20879987775E-01 0.  0.
         14    1    1    2    0    0  0.73939641990E-02  0.12257023478E-01  0.19189536410E-01  0.23940418516E-01  0.00000000000E+00 0. -1.
     999901    1    3    3    0    0 -0.11621557666E+00  0.55801309377E-01 -0.25997315866E-01  0.88977284001E+00  0.88000000000E+00 0. -1.
        -11    1    4    4    0    0  0.14669052793E-01 -0.48184034267E-02  0.65909740997E-02  0.16795838235E-01  0.51100000000E-03 0. -1.
         11    1    4    4    0    0  0.94152559668E-01 -0.63239929428E-01  0.21680535600E-03  0.11342090324E+00  0.51100000000E-03 0.  1.
</event>
<event>
 8    1  0.1163913E+005  0.1043930E+01  0.7957747E-01            NaN
         13   -1    0    0    0    0  0.00000000000E+00  0.00000000000E+00  0.74505805969E-08  0.10566000000E+00  0.10566000000E+00 0. -1.
     999900   -1    0    0    0    0 -0.00000000000E+00 -0.00000000000E+00 -0.74505805969E-08  0.93827000000E+00  0.93827000000E+00 0.  1.
     999902    2    1    2    0    0  0.17650613407E-02 -0.23411679394E-01  0.43266974897E-02  0.10200565318E+01  0.10197771254E+01 0.  0.
     999903    2    3    3    0    0  0.49588051755E-01  0.11412386520E+00  0.69124423155E-02  0.12808694120E+00  0.29584644053E-01 0.  0.
         14    1    1    2    0    0 -0.17650613407E-02  0.23411679394E-01 -0.43266974897E-02  0.23873468218E-01  0.00000000000E+00 0. -1.
     999901    1    3    3    0    0 -0.47822990414E-01 -0.13753554459E+00 -0.25857448257E-02  0.89196959058E+00  0.88000000000E+00 0. -1.
        -11    1    4    4    0    0  0.17138792391E-01  0.48075248042E-01 -0.11296666296E-01  0.52276605373E-01  0.51100000000E-03 0. -1.
         11    1    4    4    0    0  0.32449259364E-01  0.66048617156E-01  0.18209108611E-01  0.75810335831E-01  0.51100000000E-03 0.  1.
</event>
<event>
 8    1  0.1163913E+005  0.1043930E+01  0.7957747E-01            NaN
         13   -1    0    0    0    0  0.00000000000E+00  0.00000000000E+00  0.74505805969E-08  0.10566000000E+00  0.10566000000E+00 0.  1.
     999900   -1    0    0    0    0 -0.00000000000E+00 -0.00000000000E+00 -0.74505805969E-08  0.93827000000E+00  0.93827000000E+00 0.  1.
     999902    2    1    2    0    0  0.35889784482E-02 -0.11273254571E-01 -0.16492750048E-01  0.10236327628E+01  0.10234315098E+01 0.  0.
     999903    2    3    3    0    0 -0.37454149554E-01  0.10560213699E+00 -0.69470389743E-01  0.13337941354E+00  0.20231367956E-01 0.  0.
         14    1    1    2    0    0 -0.35889784482E-02  0.11273254571E-01  0.16492750048E-01  0.20297237227E-01  0.00000000000E+00 0. -1.
     999901    1    3    3    0    0  0.41043128003E-01 -0.11687539156E+00  0.52977639695E-01  0.89025334923E+00  0.88000000000E+00 0. -1.
        -11    1    4    4    0    0 -0.21924919235E-01  0.73858207620E-01 -0.57236975522E-01  0.95979525964E-01  0.51100000000E-03 0. -1.
         11    1    4    4    0    0 -0.15529230319E-01  0.31743929373E-01 -0.12233414221E-01  0.37399887578E-01  0.51100000000E-03 0.  1.
</event>
<event>
 8    1  0.1163913E+005  0.1043930E+01  0.7957747E-01            NaN
         13   -1    0    0    0    0  0.00000000000E+00  0.00000000000E+00  0.74505805969E-08  0.10566000000E+00  0.10566000000E+00 0. -1.
     999900   -1    0    0    0    0 -0.00000000000E+00 -0.00000000000E+00 -0.74505805969E-08  0.93827000000E+00  0.93827000000E+00 0. -1.
     999902    2    1    2    0    0 -0.15577726044E-01 -0.17528998137E-01 -0.10837564811E-02  0.10204543562E+01  0.10201842908E+01 0.  0.
     999903    2    3    3    0    0  0.69699433252E-01  0.10333159329E+00  0.19422145466E-01  0.12787384527E+00  0.20954030678E-01 0.  0.
         14    1    1    2    0    0  0.15577726044E-01  0.17528998137E-01  0.10837564811E-02  0.23475643814E-01  0.00000000000E+00 0. -1.
     999901    1    3    3    0    0 -0.85277159295E-01 -0.12086059143E+00 -0.20505901947E-01  0.89258051092E+00  0.88000000000E+00 0.  1.
        -11    1    4    4    0    0  0.36758290457E-01  0.40118458502E-01  0.15047526434E-01  0.56456636480E-01  0.51100000000E-03 0. -1.
         11    1    4    4    0    0  0.32941142794E-01  0.63213134787E-01  0.43746190325E-02  0.71417208787E-01  0.51100000000E-03 0.  1.
</event>
<event>
 8    1  0.1163913E+005  0.1043930E+01  0.7957747E-01            NaN
         13   -1    0    0    0    0  0.00000000000E+00  0.00000000000E+00  0.74505805969E-08  0.10566000000E+00  0.10566000000E+00 0.  1.
     999900   -1    0    0    0    0 -0.00000000000E+00 -0.00000000000E+00 -0.74505805969E-08  0.93827000000E+00  0.93827000000E+00 0.  1.
     999902    2    1    2    0    0  0.19508091351E-01 -0.18164179716E-03  0.13292074675E-01  0.10203232664E+01  0.10200501410E+01 0.  0.
     999903    2    3    3    0    0  0.78731924365E-01 -0.10029698416E-01  0.10522665745E+00  0.13349948790E+00  0.21216810922E-01 0.  0.
         14    1    1    2    0    0 -0.19508091351E-01  0.18164179716E-03 -0.13292074675E-01  0.23606733596E-01  0.00000000000E+00 0. -1.
     999901    1    3    3    0    0 -0.59223833014E-01  0.98480566190E-02 -0.91934582776E-01  0.88682377851E+00  0.88000000000E+00 0.  1.
        -11    1    4    4    0    0  0.11466666767E-01 -0.89546937984E-02  0.14459819383E-01  0.20518734985E-01  0.51100000000E-03 0.  1.
         11    1    4    4    0    0  0.67265257598E-01 -0.10750046178E-02  0.90766838068E-01  0.11298075291E+00  0.51100000000E-03 0. -1.
</event>
<event>
 8    1  0.1163913E+005  0.1043930E+01  0.7957747E-01            NaN
         13   -1    0    0    0    0  0.00000000000E+00  0.00000000000E+00  0.74505805969E-08  0.10566000000E+00  0.10566000000E+00 0.  1.
     999900   -1    0    0    0    0 -0.00000000000E+00 -0.00000000000E+00 -0.74505805969E-08  0.93827000000E+00  0.93827000000E+00 0. -1.
     999902    2    1    2    0    0  0.15910332157E-01  0.96535547412E-02  0.14115064082E-01  0.10205726709E+01  0.10203053522E+01 0.  0.
     999903    2    3    3    0    0  0.25210462285E-01  0.14308850069E-01 -0.12477162049E+00  0.12961943120E+00  0.19822438424E-01 0.  0.
         14    1    1    2    0    0 -0.15910332157E-01 -0.96535547412E-02 -0.14115064082E-01  0.23357329097E-01  0.00000000000E+00 0. -1.
     999901    1    3    3    0    0 -0.93001301280E-02 -0.46552953280E-02  0.13888668457E+00  0.89095323971E+00  0.88000000000E+00 0.  1.
        -11    1    4    4    0    0  0.16680946931E-01  0.19042060810E-01 -0.87626130255E-01  0.91211040422E-01  0.51100000000E-03 0. -1.
         11    1    4    4    0    0  0.85295153539E-02 -0.47332107406E-02 -0.37145490234E-01  0.38408390773E-01  0.51100000000E-03 0.  1.
</event>
<event>
 8    1  0.1163913E+005  0.1043930E+01  0.7957747E-01            NaN
         13   -1    0    0    0    0  0.00000000000E+00  0.00000000000E+00  0.74505805969E-08  0.10566000000E+00  0.10566000000E+00 0. -1.
     999900   -1    0    0    0    0 -0.00000000000E+00 -0.00000000000E+00 -0.74505805969E-08  0.93827000000E+00  0.93827000000E+00 0. -1.
     999902    2    1    2    0    0 -0.10356108990E-02  0.11933032385E-01  0.21628036116E-01  0.10192066973E+01  0.10189067916E+01 0.  0.
     999903    2    3    3    0    0  0.46025688247E-01  0.31170060325E-01 -0.11300053733E+00  0.12751746782E+00  0.20041120827E-01 0.  0.
         14    1    1    2    0    0  0.10356108990E-02 -0.11933032385E-01 -0.21628036116E-01  0.24723302733E-01  0.00000000000E+00 0.  1.
     999901    1    3    3    0    0 -0.47061299146E-01 -0.19237027940E-01  0.13462857344E+00  0.89168922945E+00  0.88000000000E+00 0.  1.
        -11    1    4    4    0    0  0.19171648566E-01  0.24515127895E-01 -0.66116784787E-01  0.73076904395E-01  0.51100000000E-03 0.  1.
         11    1    4    4    0    0  0.26854039681E-01  0.66549324296E-02 -0.46883752541E-01  0.54440563426E-01  0.51100000000E-03 0. -1.
</event>
<event>
 8    1  0.1163913E+005  0.1043930E+01  0.7957747E-01            NaN
         13   -1    0    0    0    0  0.00000000000E+00  0.00000000000E+00  0.74505805969E-08  0.10566000000E+00  0.10566000000E+00 0.  1.
     999900   -1    0    0    0    0 -0.00000000000E+00 -0.00000000000E+00 -0.74505805969E-08  0.93827000000E+00  0.93827000000E+00 0.  1.
     999902    2    1    2    0    0 -0.38919073956E-02 -0.17322686300E-01 -0.15716392171E-01  0.10202186654E+01  0.10199430856E+01 0.  0.
     999903    2    3    3    0    0  0.60293502441E-01 -0.92175304385E-01 -0.71652806974E-01  0.13294668697E+00  0.20226310952E-01 0.  0.
         14    1    1    2    0    0  0.38919073956E-02  0.17322686300E-01  0.15716392171E-01  0.23711334561E-01  0.00000000000E+00 0.  1.
     999901    1    3    3    0    0 -0.64185409837E-01  0.74852618085E-01  0.55936414803E-01  0.88727197847E+00  0.88000000000E+00 0. -1.
        -11    1    4    4    0    0  0.31788116291E-01 -0.59017563502E-01 -0.52772434245E-01  0.85315579329E-01  0.51100000000E-03 0.  1.
         11    1    4    4    0    0  0.28505386149E-01 -0.33157740882E-01 -0.18880372729E-01  0.47631107643E-01  0.51100000000E-03 0. -1.
</event>
<event>
 8    1  0.1163913E+005  0.1043930E+01  0.7957747E-01            NaN
         13   -1    0    0    0    0  0.00000000000E+00  0.00000000000E+00  0.74505805969E-08  0.10566000000E+00  0.10566000000E+00 0. -1.
     999900   -1    0    0    0    0 -0.00000000000E+00 -0.00000000000E+00 -0.74505805969E-08  0.93827000000E+00  0.93827000000E+00 0.  1.
     999902    2    1    2    0    0  0.13053837903E-02 -0.15592712047E-01 -0.17582339263E-01  0.10203933191E+01  0.10201218311E+01 0.  0.
     999903    2    3    3    0    0  0.71294393484E-03 -0.12461224773E+00 -0.45288180465E-01  0.13323311719E+00  0.13089066089E-01 0.  0.
         14    1    1    2    0    0 -0.13053837903E-02  0.15592712047E-01  0.17582339263E-01  0.23536680943E-01  0.00000000000E+00 0. -1.
     999901    1    3    3    0    0  0.59243985543E-03  0.10901953569E+00  0.27705841202E-01  0.88716020187E+00  0.88000000000E+00 0. -1.
        -11    1    4    4    0    0  0.84947413813E-03 -0.60489344293E-01 -0.28906090977E-01  0.67048531646E-01  0.51100000000E-03 0.  1.
         11    1    4    4    0    0 -0.13653020329E-03 -0.64122903442E-01 -0.16382089488E-01  0.66184585541E-01  0.51100000000E-03 0. -1.
</event>
<event>
 8    1  0.1163913E+005  0.1043930E+01  0.7957747E-01            NaN
         13   -1    0    0    0    0  0.00000000000E+00  0.00000000000E+00  0.74505805969E-08  0.10566000000E+00  0.10566000000E+00 0.  1.
     999900   -1    0    0    0    0 -0.00000000000E+00 -0.00000000000E+00 -0.74505805969E-08  0.93827000000E+00  0.93827000000E+00 0. -1.
     999902    2    1    2    0    0  0.79978439896E-02  0.93510818307E-02 -0.17772893909E-01  0.10223132473E+01  0.10220846793E+01 0.  0.
     999903    2    3    3    0    0 -0.39191485443E-02 -0.24722307967E-01 -0.13061210717E+00  0.13437422987E+00  0.19244710363E-01 0.  0.
         14    1    1    2    0    0 -0.79978439896E-02 -0.93510818307E-02  0.17772893909E-01  0.21616752712E-01  0.00000000000E+00 0.  1.
     999901    1    3    3    0    0  0.11916992534E-01  0.34073389798E-01  0.11283921326E+00  0.88793901742E+00  0.88000000000E+00 0.  1.
        -11    1    4    4    0    0  0.18992574476E-02 -0.25477797953E-01 -0.11059046816E+00  0.11350435293E+00  0.51100000000E-03 0. -1.
         11    1    4    4    0    0 -0.58184059919E-02  0.75548998569E-03 -0.20021639016E-01  0.20869876935E-01  0.51100000000E-03 0.  1.
</event>
<event>
 7    1  0.1191286E+005  0.1043930E+01  0.7957747E-01            NaN
         13   -1    0    0    0    0  0.00000000000E+00  0.00000000000E+00  0.74505805969E-08  0.10566000000E+00  0.10566000000E+00 0. -1.
     999900   -1    0    0    0    0 -0.00000000000E+00 -0.00000000000E+00 -0.74505805969E-08  0.93827000000E+00  0.93827000000E+00 0. -1.
     999903    2    1    2    0    0  0.46990412980E-01  0.78702767121E-01 -0.63998878817E-01  0.11353696004E+00  0.19813135572E-01 0.  0.
         14    1    1    2    0    0 -0.39551955210E-01 -0.24196198406E-01  0.14783092622E-03  0.46366313550E-01  0.00000000000E+00 0.  1.
     999901    1    1    2    0    0 -0.74384577702E-02 -0.54506568714E-01  0.63851047891E-01  0.88402672641E+00  0.88000000000E+00 0.  1.
        -11    1    3    3    0    0  0.58604632218E-02  0.24230826648E-01 -0.22938908488E-01  0.33881154538E-01  0.51100000000E-03 0.  1.
         11    1    3    3    0    0  0.41129949759E-01  0.54471940473E-01 -0.41059970328E-01  0.79655805503E-01  0.51100000000E-03 0. -1.
</event>
<event>
 8    1  0.1163913E+005  0.1043930E+01  0.7957747E-01            NaN
         13   -1    0    0    0    0  0.00000000000E+00  0.00000000000E+00  0.74505805969E-08  0.10566000000E+00  0.10566000000E+00 0. -1.
     999900   -1    0    0    0    0 -0.00000000000E+00 -0.00000000000E+00 -0.74505805969E-08  0.93827000000E+00  0.93827000000E+00 0. -1.
     999902    2    1    2    0    0  0.22830762175E-01 -0.58101460562E-02 -0.43720456380E-02  0.10199692763E+01  0.10196877994E+01 0.  0.
     999903    2    3    3    0    0 -0.10063832878E+00  0.86207654129E-02  0.75242071686E-01  0.12767376731E+00  0.20900494993E-01 0.  0.
         14    1    1    2    0    0 -0.22830762175E-01  0.58101460562E-02  0.43720456380E-02  0.23960723732E-01  0.00000000000E+00 0. -1.
     999901    1    3    3    0    0  0.12346909096E+00 -0.14430911469E-01 -0.79614117324E-01  0.89229550896E+00  0.88000000000E+00 0. -1.
        -11    1    4    4    0    0 -0.37980820977E-01 -0.14081058944E-02  0.17373658485E-01  0.41792710542E-01  0.51100000000E-03 0.  1.
         11    1    4    4    0    0 -0.62657507807E-01  0.10028871307E-01  0.57868413202E-01  0.85881056769E-01  0.51100000000E-03 0. -1.
</event>
<event>
 8    1  0.1163913E+005  0.1043930E+01  0.7957747E-01            NaN
         13   -1    0    0    0    0  0.00000000000E+00  0.00000000000E+00  0.74505805969E-08  0.10566000000E+00  0.10566000000E+00 0. -1.
     999900   -1    0    0    0    0 -0.00000000000E+00 -0.00000000000E+00 -0.74505805969E-08  0.93827000000E+00  0.93827000000E+00 0. -1.
     999902    2    1    2    0    0  0.15253807988E-02  0.15240287448E-01  0.16668097553E-01  0.10212933345E+01  0.10210424362E+01 0.  0.
     999903    2    3    3    0    0  0.52628527491E-02 -0.68672994319E-01  0.11077414009E+00  0.13229875928E+00  0.22099181634E-01 0.  0.
         14    1    1    2    0    0 -0.15253807988E-02 -0.15240287448E-01 -0.16668097553E-01  0.22636665482E-01  0.00000000000E+00 0.  1.
     999901    1    3    3    0    0 -0.37374719503E-02  0.83913281768E-01 -0.94106042532E-01  0.88899457523E+00  0.88000000000E+00 0. -1.
        -11    1    4    4    0    0  0.49696591671E-02 -0.53871097329E-01  0.10091931891E+00  0.11450660544E+00  0.51100000000E-03 0.  1.
         11    1    4    4    0    0  0.29319358199E-03 -0.14801896990E-01  0.98548211772E-02  0.17792153844E-01  0.51100000000E-03 0. -1.
</event>
<event>
 8    1  0.1163913E+005  0.1043930E+01  0.7957747E-01            NaN
         13   -1    0    0    0    0  0.00000000000E+00  0.00000000000E+00  0.74505805969E-08  0.10566000000E+00  0.10566000000E+00 0. -1.
     999900   -1    0    0    0    0 -0.00000000000E+00 -0.00000000000E+00 -0.74505805969E-08  0.93827000000E+00  0.93827000000E+00 0. -1.
     999902    2    1    2    0    0 -0.22245892608E-01  0.91781284525E-02  0.57313680275E-03  0.10198583099E+01  0.10195741885E+01 0.  0.
     999903    2    3    3    0    0 -0.11086183999E+00  0.45398418130E-01 -0.54246514228E-01  0.13297055505E+00  0.19675372162E-01 0.  0.
         14    1    1    2    0    0  0.22245892608E-01 -0.91781284525E-02 -0.57313680275E-03  0.24071690128E-01  0.00000000000E+00 0.  1.
     999901    1    3    3    0    0  0.88615947382E-01 -0.36220289677E-01  0.54819651030E-01  0.88688775482E+00  0.88000000000E+00 0.  1.
        -11    1    4    4    0    0 -0.51342639567E-01  0.24718250439E-01 -0.35866658321E-01  0.67333029358E-01  0.51100000000E-03 0. -1.
         11    1    4    4    0    0 -0.59519200423E-01  0.20680167691E-01 -0.18379855907E-01  0.65637525692E-01  0.51100000000E-03 0.  1.
</event>
<event>
 8    1  0.1163913E+005  0.1043930E+01  0.7957747E-01            NaN
         13   -1    0    0    0    0  0.00000000000E+00  0.00000000000E+00  0.74505805969E-08  0.10566000000E+00  0.10566000000E+00 0. -1.
     999900   -1    0    0    0    0 -0.00000000000E+00 -0.00000000000E+00 -0.74505805969E-08  0.93827000000E+00  0.93827000000E+00 0.  1.
     999902    2    1    2    0    0 -0.11757197324E-01  0.11258323262E-01  0.16089589153E-01  0.10210420903E+01  0.10207855278E+01 0.  0.
     999903    2    3    3    0    0 -0.33874183458E-01 -0.31238007319E-01 -0.11943335398E+00  0.12937984073E+00  0.18749499644E-01 0.  0.
         14    1    1    2    0    0  0.11757197324E-01 -0.11258323262E-01 -0.16089589153E-01  0.22887909706E-01  0.00000000000E+00 0.  1.
     999901    1    3    3    0    0  0.22116986134E-01  0.42496330582E-01  0.13552294313E+00  0.89166224957E+00  0.88000000000E+00 0. -1.
        -11    1    4    4    0    0 -0.11416420285E-01 -0.18729295635E-01 -0.73905231790E-01  0.77093226512E-01  0.51100000000E-03 0.  1.
         11    1    4    4    0    0 -0.22457763172E-01 -0.12508711685E-01 -0.45528122192E-01  0.52286614214E-01  0.51100000000E-03 0. -1.
</event>
<event>
 8    1  0.1163913E+005  0.1043930E+01  0.7957747E-01            NaN
         13   -1    0    0    0    0  0.00000000000E+00  0.00000000000E+00  0.74505805969E-08  0.10566000000E+00  0.10566000000E+00 0. -1.
     999900   -1    0    0    0    0 -0.00000000000E+00 -0.00000000000E+00 -0.74505805969E-08  0.93827000000E+00  0.93827000000E+00 0. -1.
     999902    2    1    2    0    0 -0.55040605263E-02  0.14739319711E-01 -0.18234584822E-01  0.10198459324E+01  0.10195615153E+01 0.  0.
     999903    2    3    3    0    0  0.95912022083E-01 -0.52504196876E-01  0.62977335180E-01  0.12776841993E+00  0.20070319250E-01 0.  0.
         14    1    1    2    0    0  0.55040605263E-02 -0.14739319711E-01  0.18234584822E-01  0.24084067585E-01  0.00000000000E+00 0. -1.
     999901    1    3    3    0    0 -0.10141608261E+00  0.67243516588E-01 -0.81211920002E-01  0.89207751249E+00  0.88000000000E+00 0. -1.
        -11    1    4    4    0    0  0.14488577800E-01 -0.98674375288E-03  0.11462355364E-01  0.18507816224E-01  0.51100000000E-03 0.  1.
         11    1    4    4    0    0  0.81423444283E-01 -0.51517453123E-01  0.51514979817E-01  0.10926060370E+00  0.51100000000E-03 0. -1.
</event>
<event>
 8    1  0.1163913E+005  0.1043930E+01  0.7957747E-01            NaN
         13   -1    0    0    0    0  0.00000000000E+00  0.00000000000E+00  0.74505805969E-08  0.10566000000E+00  0.10566000000E+00 0. -1.
     999900   -1    0    0    0    0 -0.00000000000E+00 -0.00000000000E+00 -0.74505805969E-08  0.93827000000E+00  0.93827000000E+00 0. -1.
     999902    2    1    2    0    0  0.22361574560E-02 -0.18317712530E-01  0.14666794328E-01  0.10203576889E+01  0.10200853688E+01 0.  0.
     999903    2    3    3    0    0  0.25866592320E-01  0.11245476929E+00  0.55189426237E-01  0.12945818667E+00  0.19959799429E-01 0.  0.
         14    1    1    2    0    0 -0.22361574560E-02  0.18317712530E-01 -0.14666794328E-01  0.23572311052E-01  0.00000000000E+00 0. -1.
     999901    1    3    3    0    0 -0.23630434864E-01 -0.13077248182E+00 -0.40522631909E-01  0.89089950227E+00  0.88000000000E+00 0. -1.
        -11    1    4    4    0    0  0.92187863271E-02  0.50250723002E-01  0.35155563340E-01  0.62018512868E-01  0.51100000000E-03 0.  1.
         11    1    4    4    0    0  0.16647805993E-01  0.62204046292E-01  0.20033862897E-01  0.67439673806E-01  0.51100000000E-03 0. -1.
</event>
<event>
 8    1  0.1163913E+005  0.1043930E+01  0.7957747E-01            NaN
         13   -1    0    0    0    0  0.00000000000E+00  0.00000000000E+00  0.74505805969E-08  0.10566000000E+00  0.10566000000E+00 0. -1.
     999900   -1    0    0    0    0 -0.00000000000E+00 -0.00000000000E+00 -0.74505805969E-08  0.93827000000E+00  0.93827000000E+00 0. -1.
     999902    2    1    2    0    0  0.30010438494E-03 -0.24028641490E-01 -0.45873113337E-02  0.10194655544E+01  0.10191719715E+01 0.  0.
     999903    2    3    3    0    0 -0.47460959652E-01 -0.23130433593E-02 -0.11982782997E+00  0.13040252873E+00  0.19703243452E-01 0.  0.
         14    1    1    2    0    0 -0.30010438494E-03  0.24028641490E-01  0.45873113337E-02  0.24464445626E-01  0.00000000000E+00 0. -1.
     999901    1    3    3    0    0  0.47761064037E-01 -0.21715598131E-01  0.11524051863E+00  0.88906302565E+00  0.88000000000E+00 0.  1.
        -11    1    4    4    0    0 -0.41532071000E-01 -0.63162374790E-02 -0.84665612557E-01  0.94516320539E-01  0.51100000000E-03 0.  1.
         11    1    4    4    0    0 -0.59288886518E-02  0.40031941197E-02 -0.35162217411E-01  0.35886208187E-01  0.51100000000E-03 0. -1.
</event>
<event>
 8    1  0.1163913E+005  0.1043930E+01  0.7957747E-01            NaN
         13   -1    0    0    0    0  0.00000000000E+00  0.00000000000E+00  0.74505805969E-08  0.10566000000E+00  0.10566000000E+00 0. -1.
     999900   -1    0    0    0    0 -0.00000000000E+00 -0.00000000000E+00 -0.74505805969E-08  0.93827000000E+00  0.93827000000E+00 0.  1.
     999902    2    1    2    0    0 -0.27823122591E-02 -0.26571469664E-02  0.23591834206E-01  0.10200265205E+01  0.10197464029E+01 0.  0.
     999903    2    3    3    0    0  0.46650759587E-01  0.10325119210E+00  0.63258022080E-01  0.13141321239E+00  0.20754589653E-01 0.  0.
         14    1    1    2    0    0  0.27823122591E-02  0.26571469664E-02 -0.23591834206E-01  0.23903479511E-01  0.00000000000E+00 0.  1.
     999901    1    3    3    0    0 -0.49433071847E-01 -0.10590833907E+00 -0.39666187874E-01  0.88861330810E+00  0.88000000000E+00 0.  1.
        -11    1    4    4    0    0  0.18992531853E-01  0.26812893700E-01  0.26421868654E-01  0.42166619487E-01  0.51100000000E-03 0. -1.
         11    1    4    4    0    0  0.27658227735E-01  0.76438298402E-01  0.36836153426E-01  0.89246592900E-01  0.51100000000E-03 0.  1.
</event>
<event>
 8    1  0.1163913E+005  0.1043930E+01  0.7957747E-01            NaN
         13   -1    0    0    0    0  0.00000000000E+00  0.00000000000E+00  0.74505805969E-08  0.10566000000E+00  0.10566000000E+00 0.  1.
     999900   -1    0    0    0    0 -0.00000000000E+00 -0.00000000000E+00 -0.74505805969E-08  0.93827000000E+00  0.93827000000E+00 0. -1.
     999902    2    1    2    0    0 -0.23854816635E-01 -0.32892820393E-02 -0.82595823864E-02  0.10184723419E+01  0.10181541234E+01 0.  0.
     999903    2    3    3    0    0 -0.51866385672E-01  0.19372846355E-01  0.11494836377E+00  0.12915888872E+00  0.20086390042E-01 0.  0.
         14    1    1    2    0    0  0.23854816635E-01  0.32892820393E-02  0.82595823864E-02  0.25457658066E-01  0.00000000000E+00 0. -1.
     999901    1    3    3    0    0  0.28011569038E-01 -0.22662128395E-01 -0.12320794615E+00  0.88931345321E+00  0.88000000000E+00 0. -1.
        -11    1    4    4    0    0 -0.42349497496E-01  0.82702180732E-02  0.95710432920E-01  0.10498868766E+00  0.51100000000E-03 0.  1.
         11    1    4    4    0    0 -0.95168881763E-02  0.11102628282E-01  0.19237930849E-01  0.24170201068E-01  0.51100000000E-03 0. -1.
</event>
<event>
 8    1  0.1163913E+005  0.1043930E+01  0.7957747E-01            NaN
         13   -1    0    0    0    0  0.00000000000E+00  0.00000000000E+00  0.74505805969E-08  0.10566000000E+00  0.10566000000E+00 0.  1.
     999900   -1    0    0    0    0 -0.00000000000E+00 -0.00000000000E+00 -0.74505805969E-08  0.93827000000E+00  0.93827000000E+00 0.  1.
     999902    2    1    2    0    0 -0.72564745688E-02 -0.18033133039E-01  0.12798277938E-01  0.10206567057E+01  0.10203913292E+01 0.  0.
     999903    2    3    3    0    0 -0.12023479615E+00  0.10588057894E-01  0.50301784840E-01  0.13218060203E+00  0.19311365048E-01 0.  0.
         14    1    1    2    0    0  0.72564745688E-02  0.18033133039E-01 -0.12798277938E-01  0.23273294321E-01  0.00000000000E+00 0. -1.
     999901    1    3    3    0    0  0.11297832158E+00 -0.28621190933E-01 -0.37503506902E-01  0.88847610365E+00  0.88000000000E+00 0.  1.
        -11    1    4    4    0    0 -0.69357730650E-01  0.10206020210E-01  0.19764875936E-01  0.72839337526E-01  0.51100000000E-03 0. -1.
         11    1    4    4    0    0 -0.50877065502E-01  0.38203768363E-03  0.30536908904E-01  0.59341264507E-01  0.51100000000E-03 0.  1.
</event>
<event>
 8    1  0.1163913E+005  0.1043930E+01  0.7957747E-01            NaN
         13   -1    0    0    0    0  0.00000000000E+00  0.00000000000E+00  0.74505805969E-08  0.10566000000E+00  0.10566000000E+00 0.  1.
     999900   -1    0    0    0    0 -0.00000000000E+00 -0.00000000000E+00 -0.74505805969E-08  0.93827000000E+00  0.93827000000E+00 0.  1.
     999902    2    1    2    0    0 -0.13974928746E-01 -0.13712038278E-01 -0.46573597761E-02  0.10238051490E+01  0.10236073337E+01 0.  0.
     999903    2    3    3    0    0 -0.74047476018E-01  0.75560609028E-01  0.78930615023E-01  0.13331917718E+00  0.18749044661E-01 0.  0.
         14    1    1    2    0    0  0.13974928746E-01  0.13712038278E-01  0.46573597761E-02  0.20124850988E-01  0.00000000000E+00 0.  1.
     999901    1    3    3    0    0  0.60072547273E-01 -0.89272647306E-01 -0.83587974799E-01  0.89048597183E+00  0.88000000000E+00 0.  1.
        -11    1    4    4    0    0 -0.51159170374E-01  0.39805045082E-01  0.44074869954E-01  0.78387228614E-01  0.51100000000E-03 0.  1.
         11    1    4    4    0    0 -0.22888305645E-01  0.35755563946E-01  0.34855745069E-01  0.54931948570E-01  0.51100000000E-03 0. -1.
</event>
<event>
 8    1  0.1163913E+005  0.1043930E+01  0.7957747E-01            NaN
         13   -1    0    0    0    0  0.00000000000E+00  0.00000000000E+00  0.74505805969E-08  0.10566000000E+00  0.10566000000E+00 0. -1.
     999900   -1    0    0    0    0 -0.00000000000E+00 -0.00000000000E+00 -0.74505805969E-08  0.93827000000E+00  0.93827000000E+00 0.  1.
     999902    2    1    2    0    0 -0.17304593744E-02  0.21364775471E-01  0.10509277347E-01  0.10200575676E+01  0.10197781857E+01 0.  0.
     999903    2    3    3    0    0  0.30143369506E-01  0.89089329128E-01 -0.89022597449E-01  0.13128923428E+00  0.21594186502E-01 0.  0.
         14    1    1    2    0    0  0.17304593744E-02 -0.21364775471E-01 -0.10509277347E-01  0.23872432446E-01  0.00000000000E+00 0.  1.
     999901    1    3    3    0    0 -0.31873828880E-01 -0.67724553658E-01  0.99531874796E-01  0.88876833328E+00  0.88000000000E+00 0. -1.
        -11    1    4    4    0    0  0.29897354294E-01  0.59315143474E-01 -0.66087643739E-01  0.93701525149E-01  0.51100000000E-03 0. -1.
         11    1    4    4    0    0  0.24601521224E-03  0.29774185654E-01 -0.22934953710E-01  0.37587709128E-01  0.51100000000E-03 0.  1.
</event>
<event>
 8    1  0.1163913E+005  0.1043930E+01  0.7957747E-01            NaN
         13   -1    0    0    0    0  0.00000000000E+00  0.00000000000E+00  0.74505805969E-08  0.10566000000E+00  0.10566000000E+00 0.  1.
     999900   -1    0    0    0    0 -0.00000000000E+00 -0.00000000000E+00 -0.74505805969E-08  0.93827000000E+00  0.93827000000E+00 0.  1.
     999902    2    1    2    0    0 -0.66861672134E-02  0.22211566319E-01 -0.17285916387E-02  0.10206695929E+01  0.10204045136E+01 0.  0.
     999903    2    3    3    0    0  0.10571079291E+00  0.16325696545E-01 -0.72315719131E-01  0.13069753563E+00  0.20272702863E-01 0.  0.
         14    1    1    2    0    0  0.66861672134E-02 -0.22211566319E-01  0.17285916387E-02  0.23260407120E-01  0.00000000000E+00 0.  1.
     999901    1    3    3    0    0 -0.11239696013E+00  0.58858697740E-02  0.70587127492E-01  0.88997205724E+00  0.88000000000E+00 0. -1.
        -11    1    4    4    0    0  0.49096243107E-01  0.10131363297E-01 -0.45675588238E-01  0.67820395836E-01  0.51100000000E-03 0. -1.
         11    1    4    4    0    0  0.56614549808E-01  0.61943332486E-02 -0.26640130893E-01  0.62877139799E-01  0.51100000000E-03 0.  1.
</event>
<event>
 8    1  0.1163913E+005  0.1043930E+01  0.7957747E-01            NaN
         13   -1    0    0    0    0  0.00000000000E+00  0.00000000000E+00  0.74505805969E-08  0.10566000000E+00  0.10566000000E+00 0.  1.
     999900   -1    0    0    0    0 -0.00000000000E+00 -0.00000000000E+00 -0.74505805969E-08  0.93827000000E+00  0.93827000000E+00 0. -1.
     999902    2    1    2    0    0 -0.20244162755E-01 -0.82718764141E-02 -0.99367582670E-02  0.10199093999E+01  0.10196264977E+01 0.  0.
     999903    2    3    3    0    0 -0.78888142082E-01  0.85003023009E-01 -0.59181341753E-01  0.13167274663E+00  0.19657774869E-01 0.  0.
         14    1    1    2    0    0  0.20244162755E-01  0.82718764141E-02  0.99367582670E-02  0.24020600116E-01  0.00000000000E+00 0.  1.
     999901    1    3    3    0    0  0.58643979327E-01 -0.93274899423E-01  0.49244583486E-01  0.88823665325E+00  0.88000000000E+00 0. -1.
        -11    1    4    4    0    0 -0.52410337306E-01  0.43472987847E-01 -0.38741730254E-01  0.78344922701E-01  0.51100000000E-03 0. -1.
         11    1    4    4    0    0 -0.26477804776E-01  0.41530035162E-01 -0.20439611499E-01  0.53327823934E-01  0.51100000000E-03 0.  1.
</event>
<event>
 8    1  0.1163913E+005  0.1043930E+01  0.7957747E-01            NaN
         13   -1    0    0    0    0  0.00000000000E+00  0.00000000000E+00  0.74505805969E-08  0.10566000000E+00  0.10566000000E+00 0.  1.
     999900   -1    0    0    0    0 -0.00000000000E+00 -0.00000000000E+00 -0.74505805969E-08  0.93827000000E+00  0.93827000000E+00 0. -1.
     999902    2    1    2    0    0 -0.21825403199E-01 -0.85408674771E-02  0.73724685028E-03  0.10204813716E+01  0.10202119346E+01 0.  0.
     999903    2    3    3    0    0 -0.12000122023E+00  0.24312553822E-01  0.48490339812E-01  0.13312676589E+00  0.19494348212E-01 0.  0.
         14    1    1    2    0    0  0.21825403199E-01  0.85408674771E-02 -0.73724685028E-03  0.23448628424E-01  0.00000000000E+00 0.  1.
     999901    1    3    3    0    0  0.98175817030E-01 -0.32853421299E-01 -0.47753092961E-01  0.88735460568E+00  0.88000000000E+00 0. -1.
        -11    1    4    4    0    0 -0.24935307734E-01  0.32528639190E-02  0.18560758768E-01  0.31258816076E-01  0.51100000000E-03 0. -1.
         11    1    4    4    0    0 -0.95065912495E-01  0.21059689903E-01  0.29929581044E-01  0.10186794982E+00  0.51100000000E-03 0.  1.
</event>
<event>
 8    1  0.1163913E+005  0.1043930E+01  0.7957747E-01            NaN
         13   -1    0    0    0    0  0.00000000000E+00  0.00000000000E+00  0.74505805969E-08  0.10566000000E+00  0.10566000000E+00 0.  1.
     999900   -1    0    0    0    0 -0.00000000000E+00 -0.00000000000E+00 -0.74505805969E-08  0.93827000000E+00  0.93827000000E+00 0.  1.
     999902    2    1    2    0    0  0.21439900292E-02  0.94586685875E-02  0.22165440934E-01  0.10197355817E+01  0.10194485209E+01 0.  0.
     999903    2    3    3    0    0  0.44488938679E-02  0.38069957744E-01 -0.12078356731E+00  0.12773875581E+00  0.16106063021E-01 0.  0.
         14    1    1    2    0    0 -0.21439900292E-02 -0.94586685875E-02 -0.22165440934E-01  0.24194418292E-01  0.00000000000E+00 0. -1.
     999901    1    3    3    0    0 -0.23049038387E-02 -0.28611289157E-01  0.14294900824E+00  0.89199682589E+00  0.88000000000E+00 0. -1.
        -11    1    4    4    0    0 -0.32884659037E-02  0.85903018189E-02 -0.47211444317E-01  0.48101859516E-01  0.51100000000E-03 0. -1.
         11    1    4    4    0    0  0.77373597716E-02  0.29479655925E-01 -0.73572122990E-01  0.79636896298E-01  0.51100000000E-03 0.  1.
</event>
<event>
 8    1  0.1163913E+005  0.1043930E+01  0.7957747E-01            NaN
         13   -1    0    0    0    0  0.00000000000E+00  0.00000000000E+00  0.74505805969E-08  0.10566000000E+00  0.10566000000E+00 0. -1.
     999900   -1    0    0    0    0 -0.00000000000E+00 -0.00000000000E+00 -0.74505805969E-08  0.93827000000E+00  0.93827000000E+00 0.  1.
     999902    2    1    2    0    0 -0.57952572859E-02 -0.11311851479E-01 -0.52755682781E-02  0.10301686552E+01  0.10300767367E+01 0.  0.
     999903    2    3    3    0    0  0.42030449224E-02  0.11366810406E+00 -0.76184797667E-01  0.13845789817E+00  0.20696924957E-01 0.  0.
         14    1    1    2    0    0  0.57952572859E-02  0.11311851479E-01  0.52755682781E-02  0.13761344830E-01  0.00000000000E+00 0.  1.
     999901    1    3    3    0    0 -0.99983022083E-02 -0.12497995554E+00  0.70909229389E-01  0.89171075700E+00  0.88000000000E+00 0. -1.
        -11    1    4    4    0    0  0.11451382989E-01  0.75850478030E-01 -0.45258349828E-01  0.89067438157E-01  0.51100000000E-03 0.  1.
         11    1    4    4    0    0 -0.72483380666E-02  0.37817626033E-01 -0.30926447839E-01  0.49390460014E-01  0.51100000000E-03 0. -1.
</event>
<event>
 8    1  0.1163913E+005  0.1043930E+01  0.7957747E-01            NaN
         13   -1    0    0    0    0  0.00000000000E+00  0.00000000000E+00  0.74505805969E-08  0.10566000000E+00  0.10566000000E+00 0. -1.
     999900   -1    0    0    0    0 -0.00000000000E+00 -0.00000000000E+00 -0.74505805969E-08  0.93827000000E+00  0.93827000000E+00 0. -1.
     999902    2    1    2    0    0  0.21936248254E-01  0.60481121195E-02 -0.57477295052E-03  0.10211679919E+01  0.10209142759E+01 0.  0.
     999903    2    3    3    0    0  0.48527407243E-01  0.13750473946E-01  0.12073341653E+00  0.13241488057E+00  0.20326286974E-01 0.  0.
         14    1    1    2    0    0 -0.21936248254E-01 -0.60481121195E-02  0.57477295052E-03  0.22762008075E-01  0.00000000000E+00 0. -1.
     999901    1    3    3    0    0 -0.26591158989E-01 -0.77023618269E-02 -0.12130818948E+00  0.88875311136E+00  0.88000000000E+00 0. -1.
        -11    1    4    4    0    0  0.13720244542E-01  0.81861238284E-03  0.15007507483E-01  0.20356857282E-01  0.51100000000E-03 0.  1.
         11    1    4    4    0    0  0.34807162701E-01  0.12931861564E-01  0.10572590904E+00  0.11205802329E+00  0.51100000000E-03 0. -1.
</event>
<event>
 8    1  0.1163913E+005  0.1043930E+01  0.7957747E-01            NaN
         13   -1    0    0    0    0  0.00000000000E+00  0.00000000000E+00  0.74505805969E-08  0.10566000000E+00  0.10566000000E+00 0. -1.
     999900   -1    0    0    0    0 -0.00000000000E+00 -0.00000000000E+00 -0.74505805969E-08  0.93827000000E+00  0.93827000000E+00 0. -1.
     999902    2    1    2    0    0  0.15110400433E-01 -0.15144153829E-01 -0.17307645744E-01  0.10164122930E+01  0.10160397262E+01 0.  0.
     999903    2    3    3    0    0  0.14525014656E-01 -0.85916145844E-01 -0.94896933538E-01  0.13016790510E+00  0.18592884555E-01 0.  0.
         14    1    1    2    0    0 -0.15110400433E-01  0.15144153829E-01  0.17307645744E-01  0.27517706984E-01  0.00000000000E+00 0. -1.
     999901    1    3    3    0    0  0.58538577671E-03  0.70771992015E-01  0.77589287794E-01  0.88624438791E+00  0.88000000000E+00 0.  1.
        -11    1    4    4    0    0  0.70024468528E-02 -0.82666860356E-02 -0.14885043278E-01  0.18417328642E-01  0.51100000000E-03 0.  1.
         11    1    4    4    0    0  0.75225678036E-02 -0.77649459809E-01 -0.80011890260E-01  0.11175057646E+00  0.51100000000E-03 0. -1.
</event>
<event>
 8    1  0.1163913E+005  0.1043930E+01  0.7957747E-01            NaN
         13   -1    0    0    0    0  0.00000000000E+00  0.00000000000E+00  0.74505805969E-08  0.10566000000E+00  0.10566000000E+00 0.  1.
     999900   -1    0    0    0    0 -0.00000000000E+00 -0.00000000000E+00 -0.74505805969E-08  0.93827000000E+00  0.93827000000E+00 0.  1.
     999902    2    1    2    0    0  0.17488362679E-01 -0.33428483935E-02  0.16733110047E-01  0.10194961211E+01  0.10192032803E+01 0.  0.
     999903    2    3    3    0    0  0.38958338127E-01 -0.12124245977E+00 -0.20558396522E-01  0.13059121358E+00  0.20345300088E-01 0.  0.
         14    1    1    2    0    0 -0.17488362679E-01  0.33428483935E-02 -0.16733110047E-01  0.24433878866E-01  0.00000000000E+00 0. -1.
     999901    1    3    3    0    0 -0.21469975448E-01  0.11789961138E+00  0.37291506568E-01  0.88890490755E+00  0.88000000000E+00 0. -1.
        -11    1    4    4    0    0  0.38402014574E-01 -0.11388604536E+00 -0.23792664261E-01  0.12251978634E+00  0.51100000000E-03 0.  1.
         11    1    4    4    0    0  0.55632355308E-03 -0.73564144142E-02  0.32342677389E-02  0.80714272429E-02  0.51100000000E-03 0. -1.
</event>
<event>
 8    1  0.1163913E+005  0.1043930E+01  0.7957747E-01            NaN
         13   -1    0    0    0    0  0.00000000000E+00  0.00000000000E+00  0.74505805969E-08  0.10566000000E+00  0.10566000000E+00 0. -1.
     999900   -1    0    0    0    0 -0.00000000000E+00 -0.00000000000E+00 -0.74505805969E-08  0.93827000000E+00  0.93827000000E+00 0.  1.
     999902    2    1    2    0    0  0.17810965589E-01 -0.35219112870E-03  0.22326344759E-01  0.10153674335E+01  0.10149656176E+01 0.  0.
     999903    2    3    3    0    0  0.56364800575E-01  0.87939846000E-01 -0.66747844943E-01  0.12563933276E+00  0.20483160706E-01 0.  0.
         14    1    1    2    0    0 -0.17810965589E-01  0.35219112870E-03 -0.22326344759E-01  0.28562566483E-01  0.00000000000E+00 0.  1.
     999901    1    3    3    0    0 -0.38553834986E-01 -0.88292037129E-01  0.89074189702E-01  0.88972810076E+00  0.88000000000E+00 0.  1.
        -11    1    4    4    0    0  0.14097282212E-01  0.10248887417E-01 -0.16019836553E-01  0.23678457366E-01  0.51100000000E-03 0. -1.
         11    1    4    4    0    0  0.42267518363E-01  0.77690958583E-01 -0.50728008390E-01  0.10196087539E+00  0.51100000000E-03 0.  1.
</event>
<event>
 8    1  0.1163913E+005  0.1043930E+01  0.7957747E-01            NaN
         13   -1    0    0    0    0  0.00000000000E+00  0.00000000000E+00  0.74505805969E-08  0.10566000000E+00  0.10566000000E+00 0.  1.
     999900   -1    0    0    0    0 -0.00000000000E+00 -0.00000000000E+00 -0.74505805969E-08  0.93827000000E+00  0.93827000000E+00 0.  1.
     999902    2    1    2    0    0  0.62972286640E-02 -0.12005145428E-01 -0.20793749072E-01  0.10191074577E+01  0.10188051098E+01 0.  0.
     999903    2    3    3    0    0 -0.12001296963E-01 -0.11971437232E+00  0.44993387414E-01  0.12991453099E+00  0.19437550803E-01 0.  0.
         14    1    1    2    0    0 -0.62972286640E-02  0.12005145428E-01  0.20793749072E-01  0.24822542296E-01  0.00000000000E+00 0.  1.
     999901    1    3    3    0    0  0.18298525627E-01  0.10770922689E+00 -0.65787136485E-01  0.88919292672E+00  0.88000000000E+00 0.  1.
        -11    1    4    4    0    0  0.12190173359E-02 -0.23189352847E-01  0.16642901756E-02  0.23286542713E-01  0.51100000000E-03 0. -1.
         11    1    4    4    0    0 -0.13220314299E-01 -0.96525019474E-01  0.43329097238E-01  0.10662798827E+00  0.51100000000E-03 0.  1.
</event>
<event>
 8    1  0.1163913E+005  0.1043930E+01  0.7957747E-01            NaN
         13   -1    0    0    0    0  0.00000000000E+00  0.00000000000E+00  0.74505805969E-08  0.10566000000E+00  0.10566000000E+00 0.  1.
     999900   -1    0    0    0    0 -0.00000000000E+00 -0.00000000000E+00 -0.74505805969E-08  0.93827000000E+00  0.93827000000E+00 0.  1.
     999902    2    1    2    0    0 -0.60059179781E-02  0.83726208040E-02  0.20661904678E-01  0.10208413419E+01  0.10205802071E+01 0.  0.
     999903    2    3    3    0    0 -0.63250760444E-02 -0.11177325957E+00  0.65571900119E-01  0.13154271815E+00  0.21692037060E-01 0.  0.
         14    1    1    2    0    0  0.60059179781E-02 -0.83726208040E-02 -0.20661904678E-01  0.23088658142E-01  0.00000000000E+00 0.  1.
     999901    1    3    3    0    0  0.31915806626E-03  0.12014588037E+00 -0.44909995440E-01  0.88929862370E+00  0.88000000000E+00 0.  1.
        -11    1    4    4    0    0  0.73109160531E-02 -0.60527946350E-01  0.36652792601E-01  0.71139089883E-01  0.51100000000E-03 0.  1.
         11    1    4    4    0    0 -0.13635992097E-01 -0.51245313220E-01  0.28919107518E-01  0.60403628270E-01  0.51100000000E-03 0. -1.
</event>
<event>
 8    1  0.1163913E+005  0.1043930E+01  0.7957747E-01            NaN
         13   -1    0    0    0    0  0.00000000000E+00  0.00000000000E+00  0.74505805969E-08  0.10566000000E+00  0.10566000000E+00 0. -1.
     999900   -1    0    0    0    0 -0.00000000000E+00 -0.00000000000E+00 -0.74505805969E-08  0.93827000000E+00  0.93827000000E+00 0.  1.
     999902    2    1    2    0    0 -0.11681054718E-01 -0.14189390968E-01 -0.15515378323E-01  0.10198777066E+01  0.10195940484E+01 0.  0.
     999903    2    3    3    0    0 -0.80883485329E-01  0.45660629753E-01  0.87208394123E-01  0.12919079478E+00  0.21399208921E-01 0.  0.
         14    1    1    2    0    0  0.11681054718E-01  0.14189390968E-01  0.15515378323E-01  0.24052293443E-01  0.00000000000E+00 0. -1.
     999901    1    3    3    0    0  0.69202430611E-01 -0.59850020721E-01 -0.10272377245E+00  0.89068691178E+00  0.88000000000E+00 0.  1.
        -11    1    4    4    0    0 -0.74338502874E-01  0.34894859913E-01  0.70329830463E-01  0.10812220138E+00  0.51100000000E-03 0.  1.
         11    1    4    4    0    0 -0.65449824546E-02  0.10765769841E-01  0.16878563660E-01  0.21068593399E-01  0.51100000000E-03 0. -1.
</event>
<event>
 8    1  0.1163913E+005  0.1043930E+01  0.7957747E-01            NaN
         13   -1    0    0    0    0  0.00000000000E+00  0.00000000000E+00  0.74505805969E-08  0.10566000000E+00  0.10566000000E+00 0.  1.
     999900   -1    0    0    0    0 -0.00000000000E+00 -0.00000000000E+00 -0.74505805969E-08  0.93827000000E+00  0.93827000000E+00 0. -1.
     999902    2    1    2    0    0 -0.16406612553E-01 -0.65182228156E-02 -0.85670069573E-02  0.10243071110E+01  0.10241191336E+01 0.  0.
     999903    2    3    3    0    0 -0.50106231385E-01  0.20806407380E-02 -0.12486776120E+00  0.13597413841E+00  0.19545972520E-01 0.  0.
         14    1    1    2    0    0  0.16406612553E-01  0.65182228156E-02  0.85670069573E-02  0.19622888991E-01  0.00000000000E+00 0.  1.
     999901    1    3    3    0    0  0.33699618832E-01 -0.85988635536E-02  0.11630075424E+00  0.88833297260E+00  0.88000000000E+00 0.  1.
        -11    1    4    4    0    0 -0.17857107044E-01 -0.86242926077E-02 -0.46759063407E-01  0.50792970248E-01  0.51100000000E-03 0. -1.
         11    1    4    4    0    0 -0.32249124342E-01  0.10704933346E-01 -0.78108697789E-01  0.85181168166E-01  0.51100000000E-03 0.  1.
</event>
<event>
 8    1  0.1163913E+005  0.1043930E+01  0.7957747E-01            NaN
         13   -1    0    0    0    0  0.00000000000E+00  0.00000000000E+00  0.74505805969E-08  0.10566000000E+00  0.10566000000E+00 0.  1.
     999900   -1    0    0    0    0 -0.00000000000E+00 -0.00000000000E+00 -0.74505805969E-08  0.93827000000E+00  0.93827000000E+00 0.  1.
     999902    2    1    2    0    0 -0.19652551508E-01  0.61168992421E-02 -0.10524477206E-01  0.10208128233E+01  0.10205510357E+01 0.  0.
     999903    2    3    3    0    0  0.10276106514E+00  0.27200989740E-01 -0.72084761534E-01  0.12995969232E+00  0.19838811186E-01 0.  0.
         14    1    1    2    0    0  0.19652551508E-01 -0.61168992421E-02  0.10524477206E-01  0.23117176678E-01  0.00000000000E+00 0.  1.
     999901    1    3    3    0    0 -0.12241361665E+00 -0.21084090498E-01  0.61560284328E-01  0.89085313100E+00  0.88000000000E+00 0.  1.
        -11    1    4    4    0    0  0.58132747433E-01  0.11353420623E-01 -0.29077945619E-01  0.65985638788E-01  0.51100000000E-03 0. -1.
         11    1    4    4    0    0  0.44628317712E-01  0.15847569117E-01 -0.43006815916E-01  0.63974053529E-01  0.51100000000E-03 0.  1.
</event>
<event>
 8    1  0.1163913E+005  0.1043930E+01  0.7957747E-01            NaN
         13   -1    0    0    0    0  0.00000000000E+00  0.00000000000E+00  0.74505805969E-08  0.10566000000E+00  0.10566000000E+00 0. -1.
     999900   -1    0    0    0    0 -0.00000000000E+00 -0.00000000000E+00 -0.74505805969E-08  0.93827000000E+00  0.93827000000E+00 0. -1.
     999902    2    1    2    0    0  0.23831867738E-01 -0.78123567610E-02 -0.15034293549E-02  0.10188052883E+01  0.10184954415E+01 0.  0.
     999903    2    3    3    0    0  0.47145636273E-01 -0.11186580242E+00 -0.45543812440E-01  0.13127489068E+00  0.20547245580E-01 0.  0.
         14    1    1    2    0    0 -0.23831867738E-01  0.78123567610E-02  0.15034293549E-02  0.25124711697E-01  0.00000000000E+00 0.  1.
     999901    1    3    3    0    0 -0.23313768535E-01  0.10405344566E+00  0.44040383085E-01  0.88753039762E+00  0.88000000000E+00 0.  1.
        -11    1    4    4    0    0  0.30935445211E-01 -0.71582985530E-01 -0.18602354112E-01  0.80171280939E-01  0.51100000000E-03 0. -1.
         11    1    4    4    0    0  0.16210191062E-01 -0.40282816892E-01 -0.26941458327E-01  0.51103609744E-01  0.51100000000E-03 0.  1.
</event>
<event>
 8    1  0.1163913E+005  0.1043930E+01  0.7957747E-01            NaN
         13   -1    0    0    0    0  0.00000000000E+00  0.00000000000E+00  0.74505805969E-08  0.10566000000E+00  0.10566000000E+00 0. -1.
     999900   -1    0    0    0    0 -0.00000000000E+00 -0.00000000000E+00 -0.74505805969E-08  0.93827000000E+00  0.93827000000E+00 0.  1.
     999902    2    1    2    0    0  0.20895231442E-02  0.16612139770E-01 -0.17449601018E-01  0.10197469921E+01  0.10194602052E+01 0.  0.
     999903    2    3    3    0    0 -0.54509161107E-01  0.10423871017E+00 -0.57759192734E-01  0.13266937990E+00  0.20690158926E-01 0.  0.
         14    1    1    2    0    0 -0.20895231442E-02 -0.16612139770E-01  0.17449601018E-01  0.24183007886E-01  0.00000000000E+00 0. -1.
     999901    1    3    3    0    0  0.56598684251E-01 -0.87626570401E-01  0.40309591716E-01  0.88707761221E+00  0.88000000000E+00 0. -1.
        -11    1    4    4    0    0 -0.44280736799E-01  0.70521463307E-01 -0.32858115208E-01  0.89520820452E-01  0.51100000000E-03 0. -1.
         11    1    4    4    0    0 -0.10228424309E-01  0.33717246864E-01 -0.24901077525E-01  0.43148559453E-01  0.51100000000E-03 0.  1.
</event>
<event>
 8    1  0.1163913E+005  0.1043930E+01  0.7957747E-01            NaN
         13   -1    0    0    0    0  0.00000000000E+00  0.00000000000E+00  0.74505805969E-08  0.10566000000E+00  0.10566000000E+00 0. -1.
     999900   -1    0    0    0    0 -0.00000000000E+00 -0.00000000000E+00 -0.74505805969E-08  0.93827000000E+00  0.93827000000E+00 0. -1.
     999902    2    1    2    0    0 -0.22708916262E-01 -0.15681799519E-02  0.45336159490E-02  0.10207199216E+01  0.10204560013E+01 0.  0.
     999903    2    3    3    0    0 -0.59046008357E-01  0.10581062964E+00  0.49105631809E-01  0.13232965960E+00  0.20431722559E-01 0.  0.
         14    1    1    2    0    0  0.22708916262E-01  0.15681799519E-02 -0.45336159490E-02  0.23210078408E-01  0.00000000000E+00 0. -1.
     999901    1    3    3    0    0  0.36337092095E-01 -0.10737880959E+00 -0.44572015860E-01  0.88839026200E+00  0.88000000000E+00 0. -1.
        -11    1    4    4    0    0 -0.23740483134E-01  0.62212605762E-01  0.23000737620E-01  0.70450790678E-01  0.51100000000E-03 0.  1.
         11    1    4    4    0    0 -0.35305525222E-01  0.43598023874E-01  0.26104894189E-01  0.61878868918E-01  0.51100000000E-03 0. -1.
</event>
<event>
 8    1  0.1163913E+005  0.1043930E+01  0.7957747E-01            NaN
         13   -1    0    0    0    0  0.00000000000E+00  0.00000000000E+00  0.74505805969E-08  0.10566000000E+00  0.10566000000E+00 0. -1.
     999900   -1    0    0    0    0 -0.00000000000E+00 -0.00000000000E+00 -0.74505805969E-08  0.93827000000E+00  0.93827000000E+00 0.  1.
     999902    2    1    2    0    0  0.24188017313E-01 -0.17733969950E-02 -0.21684973440E-02  0.10195803080E+01  0.10192895060E+01 0.  0.
     999903    2    3    3    0    0 -0.11652140482E+00 -0.46109171046E-01 -0.47570164204E-02  0.12729587873E+00  0.21870484696E-01 0.  0.
         14    1    1    2    0    0 -0.24188017313E-01  0.17733969950E-02  0.21684973440E-02  0.24349691973E-01  0.00000000000E+00 0.  1.
     999901    1    3    3    0    0  0.14070942213E+00  0.44335774051E-01  0.25885190764E-02  0.89228442930E+00  0.88000000000E+00 0.  1.
        -11    1    4    4    0    0 -0.20120279162E-01 -0.41741966535E-02  0.65200627097E-02  0.21564366209E-01  0.51100000000E-03 0. -1.
         11    1    4    4    0    0 -0.96401125656E-01 -0.41934974392E-01 -0.11277079130E-01  0.10573151252E+00  0.51100000000E-03 0.  1.
</event>
<event>
 8    1  0.1163913E+005  0.1043930E+01  0.7957747E-01            NaN
         13   -1    0    0    0    0  0.00000000000E+00  0.00000000000E+00  0.74505805969E-08  0.10566000000E+00  0.10566000000E+00 0. -1.
     999900   -1    0    0    0    0 -0.00000000000E+00 -0.00000000000E+00 -0.74505805969E-08  0.93827000000E+00  0.93827000000E+00 0.  1.
     999902    2    1    2    0    0 -0.97950127681E-02 -0.83022845598E-02  0.19726567817E-01  0.10203926322E+01  0.10201211282E+01 0.  0.
     999903    2    3    3    0    0 -0.66964442018E-01 -0.29645619441E-01  0.11001236938E+00  0.13367091288E+00  0.20052238945E-01 0.  0.
         14    1    1    2    0    0  0.97950127681E-02  0.83022845598E-02 -0.19726567817E-01  0.23537367777E-01  0.00000000000E+00 0.  1.
     999901    1    3    3    0    0  0.57169429250E-01  0.21343334881E-01 -0.90285801566E-01  0.88672171934E+00  0.88000000000E+00 0.  1.
        -11    1    4    4    0    0 -0.45098314122E-01 -0.97684748426E-02  0.61950422859E-01  0.77248929123E-01  0.51100000000E-03 0.  1.
         11    1    4    4    0    0 -0.21866127897E-01 -0.19877144598E-01  0.48061946525E-01  0.56421983759E-01  0.51100000000E-03 0. -1.
</event>
<event>
 8    1  0.1163913E+005  0.1043930E+01  0.7957747E-01            NaN
         13   -1    0    0    0    0  0.00000000000E+00  0.00000000000E+00  0.74505805969E-08  0.10566000000E+00  0.10566000000E+00 0.  1.
     999900   -1    0    0    0    0 -0.00000000000E+00 -0.00000000000E+00 -0.74505805969E-08  0.93827000000E+00  0.93827000000E+00 0. -1.
     999902    2    1    2    0    0 -0.20227007750E-01  0.11228995086E-01  0.54295510062E-02  0.10201665365E+01  0.10198897293E+01 0.  0.
     999903    2    3    3    0    0  0.37610661558E-01  0.10187634075E+00  0.70794751991E-01  0.13121504921E+00  0.20301269973E-01 0.  0.
         14    1    1    2    0    0  0.20227007750E-01 -0.11228995086E-01 -0.54295510062E-02  0.23763463495E-01  0.00000000000E+00 0. -1.
     999901    1    3    3    0    0 -0.57837669308E-01 -0.90647345661E-01 -0.65365200985E-01  0.88895148730E+00  0.88000000000E+00 0.  1.
        -11    1    4    4    0    0  0.30691992814E-01  0.74609747086E-01  0.41994601790E-01  0.90952847584E-01  0.51100000000E-03 0. -1.
         11    1    4    4    0    0  0.69186687444E-02  0.27266593661E-01  0.28800150201E-01  0.40262201625E-01  0.51100000000E-03 0.  1.
</event>
<event>
 8    1  0.1163913E+005  0.1043930E+01  0.7957747E-01            NaN
         13   -1    0    0    0    0  0.00000000000E+00  0.00000000000E+00  0.74505805969E-08  0.10566000000E+00  0.10566000000E+00 0. -1.
     999900   -1    0    0    0    0 -0.00000000000E+00 -0.00000000000E+00 -0.74505805969E-08  0.93827000000E+00  0.93827000000E+00 0. -1.
     999902    2    1    2    0    0  0.42862880911E-03 -0.90800782528E-02  0.53945471447E-02  0.10333596319E+01  0.10333055676E+01 0.  0.
     999903    2    3    3    0    0 -0.94366628521E-01 -0.40092416186E-02 -0.10360817450E+00  0.14156736484E+00  0.19634927197E-01 0.  0.
         14    1    1    2    0    0 -0.42862880911E-03  0.90800782528E-02 -0.53945471447E-02  0.10570368141E-01  0.00000000000E+00 0.  1.
     999901    1    3    3    0    0  0.94795257331E-01 -0.50708366343E-02  0.10900272165E+00  0.89179226702E+00  0.88000000000E+00 0.  1.
        -11    1    4    4    0    0 -0.41855916390E-01  0.36228536336E-02 -0.34059767788E-01  0.54086705465E-01  0.51100000000E-03 0.  1.
         11    1    4    4    0    0 -0.52510712132E-01 -0.76320952522E-02 -0.69548406714E-01  0.87480659371E-01  0.51100000000E-03 0. -1.
</event>
<event>
 8    1  0.1163913E+005  0.1043930E+01  0.7957747E-01            NaN
         13   -1    0    0    0    0  0.00000000000E+00  0.00000000000E+00  0.74505805969E-08  0.10566000000E+00  0.10566000000E+00 0.  1.
     999900   -1    0    0    0    0 -0.00000000000E+00 -0.00000000000E+00 -0.74505805969E-08  0.93827000000E+00  0.93827000000E+00 0. -1.
     999902    2    1    2    0    0  0.16555239045E-01  0.27373376700E-01 -0.86642720384E-03  0.10119279940E+01  0.10114218391E+01 0.  0.
     999903    2    3    3    0    0 -0.30610984002E-01  0.14333271264E-04 -0.11693749063E+00  0.12263295768E+00  0.20674454022E-01 0.  0.
         14    1    1    2    0    0 -0.16555239045E-01 -0.27373376700E-01  0.86642720384E-03  0.32002005999E-01  0.00000000000E+00 0.  1.
     999901    1    3    3    0    0  0.47166223048E-01  0.27359043429E-01  0.11607106342E+00  0.88929503632E+00  0.88000000000E+00 0.  1.
        -11    1    4    4    0    0 -0.19129997366E-01  0.93912074728E-02 -0.56101380747E-01  0.60014811670E-01  0.51100000000E-03 0. -1.
         11    1    4    4    0    0 -0.11480986637E-01 -0.93768742016E-02 -0.60836109880E-01  0.62618146015E-01  0.51100000000E-03 0.  1.
</event>
<event>
 8    1  0.1163913E+005  0.1043930E+01  0.7957747E-01            NaN
         13   -1    0    0    0    0  0.00000000000E+00  0.00000000000E+00  0.74505805969E-08  0.10566000000E+00  0.10566000000E+00 0.  1.
     999900   -1    0    0    0    0 -0.00000000000E+00 -0.00000000000E+00 -0.74505805969E-08  0.93827000000E+00  0.93827000000E+00 0. -1.
     999902    2    1    2    0    0  0.16281748496E-01 -0.14102209585E-01  0.86922191035E-02  0.10207023802E+01  0.10204380562E+01 0.  0.
     999903    2    3    3    0    0  0.12162059776E+00 -0.22332213804E-01  0.46315562139E-01  0.13358371728E+00  0.20228214300E-01 0.  0.
         14    1    1    2    0    0 -0.16281748496E-01  0.14102209585E-01 -0.86922191035E-02  0.23227619814E-01  0.00000000000E+00 0. -1.
     999901    1    3    3    0    0 -0.10533884926E+00  0.82300042190E-02 -0.37623343035E-01  0.88711866291E+00  0.88000000000E+00 0.  1.
        -11    1    4    4    0    0  0.18414419602E-01  0.22378088795E-02  0.22059480855E-02  0.18687588550E-01  0.51100000000E-03 0.  1.
         11    1    4    4    0    0  0.10320617816E+00 -0.24570022684E-01  0.44109614053E-01  0.11489612873E+00  0.51100000000E-03 0. -1.
</event>
<event>
 8    1  0.1163913E+005  0.1043930E+01  0.7957747E-01            NaN
         13   -1    0    0    0    0  0.00000000000E+00  0.00000000000E+00  0.74505805969E-08  0.10566000000E+00  0.10566000000E+00 0. -1.
     999900   -1    0    0    0    0 -0.00000000000E+00 -0.00000000000E+00 -0.74505805969E-08  0.93827000000E+00  0.93827000000E+00 0.  1.
     999902    2    1    2    0    0 -0.79371847789E-02  0.19360152248E-01  0.15108470509E-01  0.10181214689E+01  0.10177943039E+01 0.  0.
     999903    2    3    3    0    0 -0.11098504547E+00  0.66123599204E-01 -0.44860578586E-02  0.13065900370E+00  0.19016830506E-01 0.  0.
         14    1    1    2    0    0  0.79371847789E-02 -0.19360152248E-01 -0.15108470509E-01  0.25808531117E-01  0.00000000000E+00 0. -1.
     999901    1    3    3    0    0  0.10304786070E+00 -0.46763446956E-01  0.19594528367E-01  0.88746246518E+00  0.88000000000E+00 0. -1.
        -11    1    4    4    0    0 -0.42830406343E-01  0.26891280466E-01 -0.10968043822E-01  0.51750785297E-01  0.51100000000E-03 0.  1.
         11    1    4    4    0    0 -0.68154639131E-01  0.39232318738E-01  0.64819859630E-02  0.78908218404E-01  0.51100000000E-03 0. -1.
</event>
<event>
 8    1  0.1163913E+005  0.1043930E+01  0.7957747E-01            NaN
         13   -1    0    0    0    0  0.00000000000E+00  0.00000000000E+00  0.74505805969E-08  0.10566000000E+00  0.10566000000E+00 0.  1.
     999900   -1    0    0    0    0 -0.00000000000E+00 -0.00000000000E+00 -0.74505805969E-08  0.93827000000E+00  0.93827000000E+00 0.  1.
     999902    2    1    2    0    0  0.22298451877E-01  0.35609084976E-02  0.73840258739E-02  0.10201723725E+01  0.10198957029E+01 0.  0.
     999903    2    3    3    0    0 -0.30065234604E-01  0.12481948583E+00 -0.78575081903E-02  0.13018478687E+00  0.20062799485E-01 0.  0.
         14    1    1    2    0    0 -0.22298451877E-01 -0.35609084976E-02 -0.73840258739E-02  0.23757627482E-01  0.00000000000E+00 0.  1.
     999901    1    3    3    0    0  0.52363686481E-01 -0.12125857734E+00  0.15241534064E-01  0.88998758564E+00  0.88000000000E+00 0.  1.
        -11    1    4    4    0    0 -0.80465200423E-02  0.47951445815E-01  0.61301101305E-02  0.49009458390E-01  0.51100000000E-03 0.  1.
         11    1    4    4    0    0 -0.22018714561E-01  0.76868040019E-01 -0.13987618321E-01  0.81175328484E-01  0.51100000000E-03 0. -1.
</event>
<event>
 8    1  0.1163913E+005  0.1043930E+01  0.7957747E-01            NaN
         13   -1    0    0    0    0  0.00000000000E+00  0.00000000000E+00  0.74505805969E-08  0.10566000000E+00  0.10566000000E+00 0. -1.
     999900   -1    0    0    0    0 -0.00000000000E+00 -0.00000000000E+00 -0.74505805969E-08  0.93827000000E+00  0.93827000000E+00 0.  1.
     999902    2    1    2    0    0  0.17815211128E-01 -0.13725997325E-01 -0.73305187980E-02  0.10202757983E+01  0.10200015605E+01 0.  0.
     999903    2    3    3    0    0  0.11364331048E+00 -0.16008398568E-01  0.62549200510E-01  0.13231667251E+00  0.20596807981E-01 0.  0.
         14    1    1    2    0    0 -0.17815211128E-01  0.13725997325E-01  0.73305187980E-02  0.23654201655E-01  0.00000000000E+00 0. -1.
     999901    1    3    3    0    0 -0.95828099349E-01  0.22824012433E-02 -0.69879719308E-01  0.88795912583E+00  0.88000000000E+00 0.  1.
        -11    1    4    4    0    0  0.34494973521E-01  0.44960415138E-02  0.20373824474E-01  0.40317135714E-01  0.51100000000E-03 0.  1.
         11    1    4    4    0    0  0.79148336957E-01 -0.20504440082E-01  0.42175376036E-01  0.91999536797E-01  0.51100000000E-03 0. -1.
</event>
<event>
 8    1  0.1163913E+005  0.1043930E+01  0.7957747E-01            NaN
         13   -1    0    0    0    0  0.00000000000E+00  0.00000000000E+00  0.74505805969E-08  0.10566000000E+00  0.10566000000E+00 0.  1.
     999900   -1    0    0    0    0 -0.00000000000E+00 -0.00000000000E+00 -0.74505805969E-08  0.93827000000E+00  0.93827000000E+00 0. -1.
     999902    2    1    2    0    0 -0.14578790002E-01 -0.11480411381E-01  0.13991060118E-01  0.10206901479E+01  0.10204255422E+01 0.  0.
     999903    2    3    3    0    0  0.49408285954E-01 -0.34622803331E-01 -0.11237318480E+00  0.12906363493E+00  0.19742643421E-01 0.  0.
         14    1    1    2    0    0  0.14578790002E-01  0.11480411381E-01 -0.13991060118E-01  0.23239852121E-01  0.00000000000E+00 0.  1.
     999901    1    3    3    0    0 -0.63987075956E-01  0.23142391950E-01  0.12636424492E+00  0.89162651295E+00  0.88000000000E+00 0.  1.
        -11    1    4    4    0    0  0.29144541896E-01 -0.30995070140E-01 -0.81767793574E-01  0.92175549265E-01  0.51100000000E-03 0.  1.
         11    1    4    4    0    0  0.20263744058E-01 -0.36277331917E-02 -0.30605391223E-01  0.36888085668E-01  0.51100000000E-03 0. -1.
</event>
<event>
 8    1  0.1163913E+005  0.1043930E+01  0.7957747E-01            NaN
         13   -1    0    0    0    0  0.00000000000E+00  0.00000000000E+00  0.74505805969E-08  0.10566000000E+00  0.10566000000E+00 0.  1.
     999900   -1    0    0    0    0 -0.00000000000E+00 -0.00000000000E+00 -0.74505805969E-08  0.93827000000E+00  0.93827000000E+00 0.  1.
     999902    2    1    2    0    0 -0.11761942343E-01  0.23065702793E-02  0.19579334563E-01  0.10209732168E+01  0.10207150903E+01 0.  0.
     999903    2    3    3    0    0 -0.55427576895E-01 -0.11709318592E+00 -0.83606781783E-02  0.13139824313E+00  0.20311742625E-01 0.  0.
         14    1    1    2    0    0  0.11761942343E-01 -0.23065702793E-02 -0.19579334563E-01  0.22956783226E-01  0.00000000000E+00 0. -1.
     999901    1    3    3    0    0  0.43665634552E-01  0.11939975620E+00  0.27940012741E-01  0.88957497364E+00  0.88000000000E+00 0. -1.
        -11    1    4    4    0    0 -0.15610179974E-01 -0.33063451398E-01 -0.11575287106E-01  0.38355155191E-01  0.51100000000E-03 0. -1.
         11    1    4    4    0    0 -0.39817396921E-01 -0.84029734524E-01  0.32146089280E-02  0.93043087939E-01  0.51100000000E-03 0.  1.
</event>
<event>
 8    1  0.1163913E+005  0.1043930E+01  0.7957747E-01            NaN
         13   -1    0    0    0    0  0.00000000000E+00  0.00000000000E+00  0.74505805969E-08  0.10566000000E+00  0.10566000000E+00 0. -1.
     999900   -1    0    0    0    0 -0.00000000000E+00 -0.00000000000E+00 -0.74505805969E-08  0.93827000000E+00  0.93827000000E+00 0.  1.
     999902    2    1    2    0    0  0.51570625962E-02  0.19883811054E-01  0.12963926197E-01  0.10196395776E+01  0.10193502066E+01 0.  0.
     999903    2    3    3    0    0  0.25384807109E-01 -0.14862360779E-01 -0.12325522970E+00  0.12825183004E+00  0.19783883879E-01 0.  0.
         14    1    1    2    0    0 -0.51570625962E-02 -0.19883811054E-01 -0.12963926197E-01  0.24290422374E-01  0.00000000000E+00 0.  1.
     999901    1    3    3    0    0 -0.20227744513E-01  0.34746171833E-01  0.13621915590E+00  0.89138774758E+00  0.88000000000E+00 0. -1.
        -11    1    4    4    0    0  0.27180147082E-01 -0.17322728597E-01 -0.11519574384E+00  0.11962089216E+00  0.51100000000E-03 0. -1.
         11    1    4    4    0    0 -0.17953399731E-02  0.24603678181E-02 -0.80594858629E-02  0.86309378861E-02  0.51100000000E-03 0.  1.
</event>
<event>
 8    1  0.1163913E+005  0.1043930E+01  0.7957747E-01            NaN
         13   -1    0    0    0    0  0.00000000000E+00  0.00000000000E+00  0.74505805969E-08  0.10566000000E+00  0.10566000000E+00 0.  1.
     999900   -1    0    0    0    0 -0.00000000000E+00 -0.00000000000E+00 -0.74505805969E-08  0.93827000000E+00  0.93827000000E+00 0. -1.
     999902    2    1    2    0    0  0.17246211294E-01  0.90575575660E-02 -0.20733178973E-01  0.10154811711E+01  0.10150825942E+01 0.  0.
     999903    2    3    3    0    0  0.12478263618E+00 -0.18732014437E-01  0.78014627212E-02  0.12804071186E+00  0.20296955873E-01 0.  0.
         14    1    1    2    0    0 -0.17246211294E-01 -0.90575575660E-02  0.20733178973E-01  0.28448828857E-01  0.00000000000E+00 0.  1.
     999901    1    3    3    0    0 -0.10753642488E+00  0.27789572003E-01 -0.28534641694E-01  0.88744045928E+00  0.88000000000E+00 0.  1.
        -11    1    4    4    0    0  0.56986218155E-01 -0.12164840679E-01 -0.58675944804E-02  0.58567074320E-01  0.51100000000E-03 0.  1.
         11    1    4    4    0    0  0.67796418022E-01 -0.65671737573E-02  0.13669057202E-01  0.69473637544E-01  0.51100000000E-03 0. -1.
</event>
<event>
 8    1  0.1163913E+005  0.1043930E+01  0.7957747E-01            NaN
         13   -1    0    0    0    0  0.00000000000E+00  0.00000000000E+00  0.74505805969E-08  0.10566000000E+00  0.10566000000E+00 0.  1.
     999900   -1    0    0    0    0 -0.00000000000E+00 -0.00000000000E+00 -0.74505805969E-08  0.93827000000E+00  0.93827000000E+00 0.  1.
     999902    2    1    2    0    0 -0.12351395681E-01 -0.21880210359E-01  0.70264217025E-02  0.10178403242E+01  0.10175058990E+01 0.  0.
     999903    2    3    3    0    0 -0.66115820790E-01 -0.10412770345E+00  0.41787284721E-01  0.13168933193E+00  0.19545398338E-01 0.  0.
         14    1    1    2    0    0  0.12351395681E-01  0.21880210359E-01 -0.70264217025E-02  0.26089675785E-01  0.00000000000E+00 0. -1.
     999901    1    3    3    0    0  0.53764425109E-01  0.82247493089E-01 -0.34760863019E-01  0.88615099228E+00  0.88000000000E+00 0. -1.
        -11    1    4    4    0    0 -0.36043149269E-01 -0.38845595056E-01  0.16826607780E-01  0.55601121526E-01  0.51100000000E-03 0. -1.
         11    1    4    4    0    0 -0.30072671521E-01 -0.65282108392E-01  0.24960676941E-01  0.76088210406E-01  0.51100000000E-03 0.  1.
</event>
<event>
 8    1  0.1163913E+005  0.1043930E+01  0.7957747E-01            NaN
         13   -1    0    0    0    0  0.00000000000E+00  0.00000000000E+00  0.74505805969E-08  0.10566000000E+00  0.10566000000E+00 0. -1.
     999900   -1    0    0    0    0 -0.00000000000E+00 -0.00000000000E+00 -0.74505805969E-08  0.93827000000E+00  0.93827000000E+00 0.  1.
     999902    2    1    2    0    0 -0.75116267742E-02 -0.16649193108E-01 -0.14863083881E-01  0.10203815090E+01  0.10201097453E+01 0.  0.
     999903    2    3    3    0    0 -0.73093760828E-01 -0.84893033609E-01  0.65916244166E-01  0.13162758468E+00  0.20768841501E-01 0.  0.
         14    1    1    2    0    0  0.75116267742E-02  0.16649193108E-01  0.14863083881E-01  0.23548491043E-01  0.00000000000E+00 0. -1.
     999901    1    3    3    0    0  0.65582134053E-01  0.68243840501E-01 -0.80779328047E-01  0.88875392427E+00  0.88000000000E+00 0. -1.
        -11    1    4    4    0    0 -0.13500269082E-01 -0.26383808814E-01  0.24235182677E-01  0.38287959376E-01  0.51100000000E-03 0.  1.
         11    1    4    4    0    0 -0.59593491746E-01 -0.58509224795E-01  0.41681061489E-01  0.93339625307E-01  0.51100000000E-03 0. -1.
</event>
<event>
 8    1  0.1163913E+005  0.1043930E+01  0.7957747E-01            NaN
         13   -1    0    0    0    0  0.00000000000E+00  0.00000000000E+00  0.74505805969E-08  0.10566000000E+00  0.10566000000E+00 0.  1.
     999900   -1    0    0    0    0 -0.00000000000E+00 -0.00000000000E+00 -0.74505805969E-08  0.93827000000E+00  0.93827000000E+00 0.  1.
     999902    2    1    2    0    0  0.58528134383E-02 -0.86980546660E-02 -0.21805400992E-01  0.10197352259E+01  0.10194481566E+01 0.  0.
     999903    2    3    3    0    0  0.79439855552E-01 -0.35872401645E-01  0.92814586022E-01  0.12884171976E+00  0.19700800055E-01 0.  0.
         14    1    1    2    0    0 -0.58528134383E-02  0.86980546660E-02  0.21805400992E-01  0.24194774075E-01  0.00000000000E+00 0.  1.
     999901    1    3    3    0    0 -0.73587042113E-01  0.27174346979E-01 -0.11461998701E+00  0.89089350616E+00  0.88000000000E+00 0.  1.
        -11    1    4    4    0    0  0.22064160141E-01 -0.12493279026E-01  0.15339979887E-01  0.29639252479E-01  0.51100000000E-03 0. -1.
         11    1    4    4    0    0  0.57375695411E-01 -0.23379122619E-01  0.77474606134E-01  0.99202467283E-01  0.51100000000E-03 0.  1.
</event>
<event>
 8    1  0.1163913E+005  0.1043930E+01  0.7957747E-01            NaN
         13   -1    0    0    0    0  0.00000000000E+00  0.00000000000E+00  0.74505805969E-08  0.10566000000E+00  0.10566000000E+00 0.  1.
     999900   -1    0    0    0    0 -0.00000000000E+00 -0.00000000000E+00 -0.74505805969E-08  0.93827000000E+00  0.93827000000E+00 0. -1.
     999902    2    1    2    0    0 -0.13102480767E-01 -0.52546240956E-02 -0.17476021836E-01  0.10214645284E+01  0.10212174525E+01 0.  0.
     999903    2    3    3    0    0 -0.29933820422E-01 -0.12296475602E+00 -0.35229593392E-01  0.13328990676E+00  0.22554604128E-01 0.  0.
         14    1    1    2    0    0  0.13102480767E-01  0.52546240956E-02  0.17476021836E-01  0.22465471636E-01  0.00000000000E+00 0. -1.
     999901    1    3    3    0    0  0.16831339655E-01  0.11771013192E+00  0.17753571556E-01  0.88817462160E+00  0.88000000000E+00 0.  1.
        -11    1    4    4    0    0 -0.12355730702E-01 -0.24141279097E-01 -0.67488297775E-03  0.27132674502E-01  0.51100000000E-03 0.  1.
         11    1    4    4    0    0 -0.17578089720E-01 -0.98823476920E-01 -0.34554710414E-01  0.10615723226E+00  0.51100000000E-03 0. -1.
</event>
<event>
 8    1  0.1163913E+005  0.1043930E+01  0.7957747E-01            NaN
         13   -1    0    0    0    0  0.00000000000E+00  0.00000000000E+00  0.74505805969E-08  0.10566000000E+00  0.10566000000E+00 0. -1.
     999900   -1    0    0    0    0 -0.00000000000E+00 -0.00000000000E+00 -0.74505805969E-08  0.93827000000E+00  0.93827000000E+00 0.  1.
     999902    2    1    2    0    0 -0.13524075702E-01 -0.15832557739E-01 -0.11961450055E-01  0.10199165289E+01  0.10196337966E+01 0.  0.
     999903    2    3    3    0    0 -0.81402601356E-01  0.77092045385E-01 -0.64342423597E-01  0.13087983531E+00  0.20494312564E-01 0.  0.
         14    1    1    2    0    0  0.13524075702E-01  0.15832557739E-01  0.11961450055E-01  0.24013471127E-01  0.00000000000E+00 0. -1.
     999901    1    3    3    0    0  0.67878525655E-01 -0.92924603124E-01  0.52380973542E-01  0.88903669356E+00  0.88000000000E+00 0. -1.
        -11    1    4    4    0    0 -0.28111012011E-01  0.33657239930E-01 -0.35079416427E-01  0.56159285731E-01  0.51100000000E-03 0. -1.
         11    1    4    4    0    0 -0.53291589346E-01  0.43434805455E-01 -0.29263007170E-01  0.74720549580E-01  0.51100000000E-03 0.  1.
</event>
<event>
 8    1  0.1163913E+005  0.1043930E+01  0.7957747E-01            NaN
         13   -1    0    0    0    0  0.00000000000E+00  0.00000000000E+00  0.74505805969E-08  0.10566000000E+00  0.10566000000E+00 0.  1.
     999900   -1    0    0    0    0 -0.00000000000E+00 -0.00000000000E+00 -0.74505805969E-08  0.93827000000E+00  0.93827000000E+00 0.  1.
     999902    2    1    2    0    0  0.19284453819E-01 -0.70182515037E-02  0.12047532266E-01  0.10201331715E+01  0.10198555773E+01 0.  0.
     999903    2    3    3    0    0 -0.77771252437E-01 -0.10055083816E+00 -0.14258120190E-01  0.12948164467E+00  0.20083912809E-01 0.  0.
         14    1    1    2    0    0 -0.19284453819E-01  0.70182515037E-02 -0.12047532266E-01  0.23796828506E-01  0.00000000000E+00 0. -1.
     999901    1    3    3    0    0  0.97055706256E-01  0.93532586660E-01  0.26305652456E-01  0.89065152682E+00  0.88000000000E+00 0. -1.
        -11    1    4    4    0    0 -0.40686567422E-01 -0.38240571141E-01 -0.10887445073E-01  0.56890558364E-01  0.51100000000E-03 0. -1.
         11    1    4    4    0    0 -0.37084685014E-01 -0.62310267023E-01 -0.33706751169E-02  0.72591086304E-01  0.51100000000E-03 0.  1.
</event>
<event>
 8    1  0.1163913E+005  0.1043930E+01  0.7957747E-01            NaN
         13   -1    0    0    0    0  0.00000000000E+00  0.00000000000E+00  0.74505805969E-08  0.10566000000E+00  0.10566000000E+00 0. -1.
     999900   -1    0    0    0    0 -0.00000000000E+00 -0.00000000000E+00 -0.74505805969E-08  0.93827000000E+00  0.93827000000E+00 0. -1.
     999902    2    1    2    0    0 -0.35043239051E-02  0.11898261791E-01  0.41823084326E-02  0.10308402856E+01  0.10307571750E+01 0.  0.
     999903    2    3    3    0    0  0.20278898093E-01 -0.13369815930E+00 -0.19613797856E-01  0.13824283199E+00  0.20974937980E-01 0.  0.
         14    1    1    2    0    0  0.35043239051E-02 -0.11898261791E-01 -0.41823084326E-02  0.13089714417E-01  0.00000000000E+00 0.  1.
     999901    1    3    3    0    0 -0.23783221998E-01  0.14559642109E+00  0.23796106289E-01  0.89259745359E+00  0.88000000000E+00 0. -1.
        -11    1    4    4    0    0  0.83337180288E-02 -0.10758982118E+00 -0.12312731087E-01  0.10861346576E+00  0.51100000000E-03 0.  1.
         11    1    4    4    0    0  0.11945180064E-01 -0.26108338121E-01 -0.73010667687E-02  0.29629366230E-01  0.51100000000E-03 0. -1.
</event>
<event>
 8    1  0.1163913E+005  0.1043930E+01  0.7957747E-01            NaN
         13   -1    0    0    0    0  0.00000000000E+00  0.00000000000E+00  0.74505805969E-08  0.10566000000E+00  0.10566000000E+00 0. -1.
     999900   -1    0    0    0    0 -0.00000000000E+00 -0.00000000000E+00 -0.74505805969E-08  0.93827000000E+00  0.93827000000E+00 0.  1.
     999902    2    1    2    0    0  0.57415520198E-02 -0.68695505614E-02 -0.25827721261E-01  0.10165945408E+01  0.10162269594E+01 0.  0.
     999903    2    3    3    0    0  0.61911163570E-02 -0.10026719515E+00 -0.79771479328E-01  0.13000937785E+00  0.21144953749E-01 0.  0.
         14    1    1    2    0    0 -0.57415520198E-02  0.68695505614E-02  0.25827721261E-01  0.27335459207E-01  0.00000000000E+00 0. -1.
     999901    1    3    3    0    0 -0.44956433723E-03  0.93397644588E-01  0.53943758067E-01  0.88658516295E+00  0.88000000000E+00 0. -1.
        -11    1    4    4    0    0  0.59029693771E-02 -0.54224952805E-01 -0.56052578713E-01  0.78213446769E-01  0.51100000000E-03 0. -1.
         11    1    4    4    0    0  0.28814697997E-03 -0.46042242344E-01 -0.23718900615E-01  0.51795931077E-01  0.51100000000E-03 0.  1.
</event>
<event>
 8    1  0.1163913E+005  0.1043930E+01  0.7957747E-01            NaN
         13   -1    0    0    0    0  0.00000000000E+00  0.00000000000E+00  0.74505805969E-08  0.10566000000E+00  0.10566000000E+00 0. -1.
     999900   -1    0    0    0    0 -0.00000000000E+00 -0.00000000000E+00 -0.74505805969E-08  0.93827000000E+00  0.93827000000E+00 0. -1.
     999902    2    1    2    0    0 -0.99443109632E-02 -0.18807673900E-01 -0.93953963930E-02  0.10206729281E+01  0.10204079257E+01 0.  0.
     999903    2    3    3    0    0  0.21645586770E-01 -0.12585120263E+00 -0.32404272178E-01  0.13332539361E+00  0.20458912341E-01 0.  0.
         14    1    1    2    0    0  0.99443109632E-02  0.18807673900E-01  0.93953963930E-02  0.23257071859E-01  0.00000000000E+00 0. -1.
     999901    1    3    3    0    0 -0.31589897733E-01  0.10704352873E+00  0.23008875785E-01  0.88734753454E+00  0.88000000000E+00 0. -1.
        -11    1    4    4    0    0 -0.67725345521E-03 -0.19377768404E-01 -0.11488861326E-01  0.22543549768E-01  0.51100000000E-03 0.  1.
         11    1    4    4    0    0  0.22322840225E-01 -0.10647343423E+00 -0.20915410852E-01  0.11078184384E+00  0.51100000000E-03 0. -1.
</event>
<event>
 8    1  0.1163913E+005  0.1043930E+01  0.7957747E-01            NaN
         13   -1    0    0    0    0  0.00000000000E+00  0.00000000000E+00  0.74505805969E-08  0.10566000000E+00  0.10566000000E+00 0.  1.
     999900   -1    0    0    0    0 -0.00000000000E+00 -0.00000000000E+00 -0.74505805969E-08  0.93827000000E+00  0.93827000000E+00 0.  1.
     999902    2    1    2    0    0 -0.17512818958E-01 -0.13281068984E-01  0.26480790092E-02  0.10217918442E+01  0.10215519932E+01 0.  0.
     999903    2    3    3    0    0  0.11422381140E+00  0.13739256084E-01  0.56818224445E-01  0.12992916281E+00  0.20431115263E-01 0.  0.
         14    1    1    2    0    0  0.17512818958E-01  0.13281068984E-01 -0.26480790092E-02  0.22138155832E-01  0.00000000000E+00 0.  1.
     999901    1    3    3    0    0 -0.13173663036E+00 -0.27020325067E-01 -0.54170145436E-01  0.89186268136E+00  0.88000000000E+00 0.  1.
        -11    1    4    4    0    0  0.68782355552E-01  0.77684504242E-02  0.22907093247E-01  0.72913354739E-01  0.51100000000E-03 0.  1.
         11    1    4    4    0    0  0.45441455847E-01  0.59708056594E-02  0.33911131198E-01  0.57015808069E-01  0.51100000000E-03 0. -1.
</event>
<event>
 7    1  0.1163913E+005  0.1043930E+01  0.7957747E-01            NaN
         13   -1    0    0    0    0  0.00000000000E+00  0.00000000000E+00  0.74505805969E-08  0.10566000000E+00  0.10566000000E+00 0.  1.
     999900   -1    0    0    0    0 -0.00000000000E+00 -0.00000000000E+00 -0.74505805969E-08  0.93827000000E+00  0.93827000000E+00 0. -1.
     999903    2    1    2    0    0 -0.86258394521E-02 -0.91334577383E-01  0.51464400737E-01  0.10714097714E+00  0.20351764228E-01 0.  0.
         14    1    1    2    0    0  0.48707304238E-01  0.97370973643E-02  0.70682677986E-02  0.50171435707E-01  0.00000000000E+00 0. -1.
     999901    1    1    2    0    0 -0.40081464786E-01  0.81597480019E-01 -0.58532668535E-01  0.88661758715E+00  0.88000000000E+00 0. -1.
        -11    1    3    3    0    0  0.38062684488E-02 -0.35219889386E-01  0.11945008780E-01  0.37388135065E-01  0.51100000000E-03 0.  1.
         11    1    3    3    0    0 -0.12432107901E-01 -0.56114687997E-01  0.39519391956E-01  0.69752842074E-01  0.51100000000E-03 0. -1.
</event>
<event>
 8    1  0.1163913E+005  0.1043930E+01  0.7957747E-01            NaN
         13   -1    0    0    0    0  0.00000000000E+00  0.00000000000E+00  0.74505805969E-08  0.10566000000E+00  0.10566000000E+00 0. -1.
     999900   -1    0    0    0    0 -0.00000000000E+00 -0.00000000000E+00 -0.74505805969E-08  0.93827000000E+00  0.93827000000E+00 0.  1.
     999902    2    1    2    0    0 -0.14910481206E-01  0.13997941565E-01  0.10082899499E-01  0.10211280334E+01  0.10208734157E+01 0.  0.
     999903    2    3    3    0    0 -0.60615173342E-02 -0.12716993932E+00  0.95523592238E-02  0.12983293288E+00  0.23588290227E-01 0.  0.
         14    1    1    2    0    0  0.14910481206E-01 -0.13997941565E-01 -0.10082899499E-01  0.22801966586E-01  0.00000000000E+00 0. -1.
     999901    1    3    3    0    0 -0.88489638717E-02  0.14116788088E+00  0.53054027533E-03  0.89129510053E+00  0.88000000000E+00 0. -1.
        -11    1    4    4    0    0 -0.24444073840E-02 -0.62385254659E-01  0.16488298973E-01  0.64575693960E-01  0.51100000000E-03 0. -1.
         11    1    4    4    0    0 -0.36171099502E-02 -0.64784684660E-01 -0.69359397494E-02  0.65257238925E-01  0.51100000000E-03 0.  1.
</event>
<event>
 8    1  0.1163913E+005  0.1043930E+01  0.7957747E-01            NaN
         13   -1    0    0    0    0  0.00000000000E+00  0.00000000000E+00  0.74505805969E-08  0.10566000000E+00  0.10566000000E+00 0. -1.
     999900   -1    0    0    0    0 -0.00000000000E+00 -0.00000000000E+00 -0.74505805969E-08  0.93827000000E+00  0.93827000000E+00 0.  1.
     999902    2    1    2    0    0 -0.26278305734E-02 -0.16613007983E-01 -0.16192355747E-01  0.10205828393E+01  0.10203157560E+01 0.  0.
     999903    2    3    3    0    0 -0.65225466337E-01  0.59035978127E-01  0.91664506177E-01  0.12857704573E+00  0.19750109490E-01 0.  0.
         14    1    1    2    0    0  0.26278305734E-02  0.16613007983E-01  0.16192355747E-01  0.23347160693E-01  0.00000000000E+00 0. -1.
     999901    1    3    3    0    0  0.62597635763E-01 -0.75648986110E-01 -0.10785686192E+00  0.89200579357E+00  0.88000000000E+00 0.  1.
        -11    1    4    4    0    0 -0.41333441736E-01  0.43499974982E-01  0.73034393146E-01  0.94525049232E-01  0.51100000000E-03 0.  1.
         11    1    4    4    0    0 -0.23892024600E-01  0.15536003145E-01  0.18630113032E-01  0.34051996502E-01  0.51100000000E-03 0. -1.
</event>
<event>
 7    1  0.1163913E+005  0.1043930E+01  0.7957747E-01            NaN
         13   -1    0    0    0    0  0.00000000000E+00  0.00000000000E+00  0.74505805969E-08  0.10566000000E+00  0.10566000000E+00 0.  1.
     999900   -1    0    0    0    0 -0.00000000000E+00 -0.00000000000E+00 -0.74505805969E-08  0.93827000000E+00  0.93827000000E+00 0.  1.
     999903    2    1    2    0    0 -0.73712930473E-01 -0.14502545453E-01  0.45649625418E-03  0.77591915040E-01  0.19400436780E-01 0.  0.
         14    1    1    2    0    0 -0.61499792557E-01 -0.33589999597E-01 -0.24928917872E-01  0.74377170582E-01  0.00000000000E+00 0.  1.
     999901    1    1    2    0    0  0.13521272303E+00  0.48092545050E-01  0.24472421618E-01  0.89196091438E+00  0.88000000000E+00 0.  1.
        -11    1    3    3    0    0 -0.69846731631E-01 -0.84220984575E-02  0.99585675041E-05  0.70354522826E-01  0.51100000000E-03 0. -1.
         11    1    3    3    0    0 -0.38661988422E-02 -0.60804469956E-02  0.44653768668E-03  0.72373922140E-02  0.51100000000E-03 0.  1.
</event>
<event>
 8    1  0.1163913E+005  0.1043930E+01  0.7957747E-01            NaN
         13   -1    0    0    0    0  0.00000000000E+00  0.00000000000E+00  0.74505805969E-08  0.10566000000E+00  0.10566000000E+00 0. -1.
     999900   -1    0    0    0    0 -0.00000000000E+00 -0.00000000000E+00 -0.74505805969E-08  0.93827000000E+00  0.93827000000E+00 0.  1.
     999902    2    1    2    0    0  0.21230295506E-01 -0.20318172404E-02  0.11109247619E-01  0.10198827733E+01  0.10195992361E+01 0.  0.
     999903    2    3    3    0    0  0.52180903527E-01 -0.11374952888E+00  0.37216686894E-01  0.13189606980E+00  0.18699984831E-01 0.  0.
         14    1    1    2    0    0 -0.21230295506E-01  0.20318172404E-02 -0.11109247619E-01  0.24047226685E-01  0.00000000000E+00 0.  1.
     999901    1    3    3    0    0 -0.30950608021E-01  0.11171771164E+00 -0.26107439274E-01  0.88798670351E+00  0.88000000000E+00 0.  1.
        -11    1    4    4    0    0  0.21309493765E-02 -0.19843718426E-01  0.34907824771E-02  0.20267234382E-01  0.51100000000E-03 0.  1.
         11    1    4    4    0    0  0.50049954151E-01 -0.93905810453E-01  0.33725904416E-01  0.11162883542E+00  0.51100000000E-03 0. -1.
</event>
<event>
 7    1  0.1163913E+005  0.1043930E+01  0.7957747E-01            NaN
         13   -1    0    0    0    0  0.00000000000E+00  0.00000000000E+00  0.74505805969E-08  0.10566000000E+00  0.10566000000E+00 0. -1.
     999900   -1    0    0    0    0 -0.00000000000E+00 -0.00000000000E+00 -0.74505805969E-08  0.93827000000E+00  0.93827000000E+00 0.  1.
     999903    2    1    2    0    0 -0.15928173317E-01 -0.79757403815E-01  0.80283410284E-01  0.11602308077E+00  0.20024463430E-01 0.  0.
         14    1    1    2    0    0  0.13190940582E-02  0.43450867634E-01 -0.10922556653E-02  0.43484605664E-01  0.00000000000E+00 0.  1.
     999901    1    1    2    0    0  0.14609079259E-01  0.36306536181E-01 -0.79191154619E-01  0.88442231357E+00  0.88000000000E+00 0. -1.
        -11    1    3    3    0    0  0.31745988890E-02 -0.33711996779E-01  0.34303508458E-01  0.48203408785E-01  0.51100000000E-03 0. -1.
         11    1    3    3    0    0 -0.19102772207E-01 -0.46045407036E-01  0.45979901826E-01  0.67819671984E-01  0.51100000000E-03 0.  1.
</event>
<event>
 8    1  0.1163913E+005  0.1043930E+01  0.7957747E-01            NaN
         13   -1    0    0    0    0  0.00000000000E+00  0.00000000000E+00  0.74505805969E-08  0.10566000000E+00  0.10566000000E+00 0.  1.
     999900   -1    0    0    0    0 -0.00000000000E+00 -0.00000000000E+00 -0.74505805969E-08  0.93827000000E+00  0.93827000000E+00 0.  1.
     999902    2    1    2    0    0 -0.76423821754E-02  0.20970060332E-01 -0.70358036069E-02  0.10205280350E+01  0.10202596817E+01 0.  0.
     999903    2    3    3    0    0  0.14311499577E-01  0.91378765830E-01 -0.93764323313E-01  0.13319427877E+00  0.19851189025E-01 0.  0.
         14    1    1    2    0    0  0.76423821754E-02 -0.20970060332E-01  0.70358036069E-02  0.23401965047E-01  0.00000000000E+00 0. -1.
     999901    1    3    3    0    0 -0.21953881752E-01 -0.70408705498E-01  0.86728519706E-01  0.88733375618E+00  0.88000000000E+00 0. -1.
        -11    1    4    4    0    0  0.86971853116E-02  0.36233390405E-01 -0.51093429995E-01  0.63240013617E-01  0.51100000000E-03 0. -1.
         11    1    4    4    0    0  0.56143142653E-02  0.55145375425E-01 -0.42670893317E-01  0.69954265152E-01  0.51100000000E-03 0.  1.
</event>
<event>
 8    1  0.1163913E+005  0.1043930E+01  0.7957747E-01            NaN
         13   -1    0    0    0    0  0.00000000000E+00  0.00000000000E+00  0.74505805969E-08  0.10566000000E+00  0.10566000000E+00 0. -1.
     999900   -1    0    0    0    0 -0.00000000000E+00 -0.00000000000E+00 -0.74505805969E-08  0.93827000000E+00  0.93827000000E+00 0.  1.
     999902    2    1    2    0    0 -0.85546536641E-02  0.21756269089E-01  0.72012646204E-02  0.10194682839E+01  0.10191747673E+01 0.  0.
     999903    2    3    3    0    0 -0.79898617431E-01  0.24778789836E-01 -0.97195125762E-01  0.13042514480E+00  0.23791772344E-01 0.  0.
         14    1    1    2    0    0  0.85546536641E-02 -0.21756269089E-01 -0.72012646204E-02  0.24461716132E-01  0.00000000000E+00 0.  1.
     999901    1    3    3    0    0  0.71343963767E-01 -0.30225207472E-02  0.10439639038E+00  0.88904313907E+00  0.88000000000E+00 0. -1.
        -11    1    4    4    0    0 -0.21329818710E-01  0.86320126850E-02 -0.44071335375E-01  0.49719377832E-01  0.51100000000E-03 0. -1.
         11    1    4    4    0    0 -0.58568798722E-01  0.16146777151E-01 -0.53123790387E-01  0.80705766970E-01  0.51100000000E-03 0.  1.
</event>
<event>
 8    1  0.1163913E+005  0.1043930E+01  0.7957747E-01            NaN
         13   -1    0    0    0    0  0.00000000000E+00  0.00000000000E+00  0.74505805969E-08  0.10566000000E+00  0.10566000000E+00 0. -1.
     999900   -1    0    0    0    0 -0.00000000000E+00 -0.00000000000E+00 -0.74505805969E-08  0.93827000000E+00  0.93827000000E+00 0. -1.
     999902    2    1    2    0    0 -0.10915135532E-01  0.17895588399E-01 -0.95917869149E-03  0.10229463804E+01  0.10227311401E+01 0.  0.
     999903    2    3    3    0    0  0.11578180015E+00  0.37904335933E-01 -0.47639601760E-01  0.13242320530E+00  0.20596352068E-01 0.  0.
         14    1    1    2    0    0  0.10915135532E-01 -0.17895588399E-01  0.95917869149E-03  0.20983619601E-01  0.00000000000E+00 0. -1.
     999901    1    3    3    0    0 -0.12669693568E+00 -0.20008747535E-01  0.46680423068E-01  0.89052317510E+00  0.88000000000E+00 0.  1.
        -11    1    4    4    0    0  0.30154338097E-01  0.17177841860E-01 -0.20147871747E-01  0.40131785582E-01  0.51100000000E-03 0. -1.
         11    1    4    4    0    0  0.85627462050E-01  0.20726494073E-01 -0.27491730013E-01  0.92291419719E-01  0.51100000000E-03 0.  1.
</event>
<event>
 8    1  0.1163913E+005  0.1043930E+01  0.7957747E-01            NaN
         13   -1    0    0    0    0  0.00000000000E+00  0.00000000000E+00  0.74505805969E-08  0.10566000000E+00  0.10566000000E+00 0. -1.
     999900   -1    0    0    0    0 -0.00000000000E+00 -0.00000000000E+00 -0.74505805969E-08  0.93827000000E+00  0.93827000000E+00 0.  1.
     999902    2    1    2    0    0 -0.15625343610E-01  0.22686716812E-01  0.87809258564E-04  0.10163828369E+01  0.10160094611E+01 0.  0.
     999903    2    3    3    0    0  0.35911213243E-01  0.38012341979E-01  0.11451463391E+00  0.12734718541E+00  0.19213299397E-01 0.  0.
         14    1    1    2    0    0  0.15625343610E-01 -0.22686716812E-01 -0.87809258564E-04  0.27547163068E-01  0.00000000000E+00 0. -1.
     999901    1    3    3    0    0 -0.51536556853E-01 -0.15325625168E-01 -0.11442682465E+00  0.88903565152E+00  0.88000000000E+00 0.  1.
        -11    1    4    4    0    0  0.39498913214E-02  0.53073319139E-02  0.40093310638E-02  0.77527588686E-02  0.51100000000E-03 0.  1.
         11    1    4    4    0    0  0.31961321922E-01  0.32705010065E-01  0.11050530284E+00  0.11959442654E+00  0.51100000000E-03 0. -1.
</event>
<event>
 8    1  0.1163913E+005  0.1043930E+01  0.7957747E-01            NaN
         13   -1    0    0    0    0  0.00000000000E+00  0.00000000000E+00  0.74505805969E-08  0.10566000000E+00  0.10566000000E+00 0.  1.
     999900   -1    0    0    0    0 -0.00000000000E+00 -0.00000000000E+00 -0.74505805969E-08  0.93827000000E+00  0.93827000000E+00 0.  1.
     999902    2    1    2    0    0 -0.22786048731E-01 -0.83497105775E-02  0.39934462034E-02  0.10193359093E+01  0.10190391684E+01 0.  0.
     999903    2    3    3    0    0 -0.76658482301E-01 -0.96659641960E-01  0.43921702972E-01  0.13237754008E+00  0.19367184468E-01 0.  0.
         14    1    1    2    0    0  0.22786048731E-01  0.83497105775E-02 -0.39934462034E-02  0.24594090674E-01  0.00000000000E+00 0. -1.
     999901    1    3    3    0    0  0.53872433570E-01  0.88309931382E-01 -0.39928256769E-01  0.88695836924E+00  0.88000000000E+00 0.  1.
        -11    1    4    4    0    0 -0.52554713116E-01 -0.67592987796E-01  0.20851103919E-01  0.88124000848E-01  0.51100000000E-03 0.  1.
         11    1    4    4    0    0 -0.24103769185E-01 -0.29066654164E-01  0.23070599053E-01  0.44253539235E-01  0.51100000000E-03 0. -1.
</event>
<event>
 8    1  0.1163913E+005  0.1043930E+01  0.7957747E-01            NaN
         13   -1    0    0    0    0  0.00000000000E+00  0.00000000000E+00  0.74505805969E-08  0.10566000000E+00  0.10566000000E+00 0.  1.
     999900   -1    0    0    0    0 -0.00000000000E+00 -0.00000000000E+00 -0.74505805969E-08  0.93827000000E+00  0.93827000000E+00 0. -1.
     999902    2    1    2    0    0  0.18150909948E-01 -0.89514391978E-02 -0.15088551076E-01  0.10186862251E+01  0.10183733977E+01 0.  0.
     999903    2    3    3    0    0 -0.11126591534E+00 -0.53036286606E-01 -0.28375624213E-01  0.12802987460E+00  0.19837366973E-01 0.  0.
         14    1    1    2    0    0 -0.18150909948E-01  0.89514391978E-02  0.15088551076E-01  0.25243774861E-01  0.00000000000E+00 0.  1.
     999901    1    3    3    0    0  0.12941682529E+00  0.44084847408E-01  0.13287073137E-01  0.89065635054E+00  0.88000000000E+00 0. -1.
        -11    1    4    4    0    0 -0.70608838690E-01 -0.28558868880E-01 -0.26102600989E-01  0.80515985943E-01  0.51100000000E-03 0. -1.
         11    1    4    4    0    0 -0.40657076647E-01 -0.24477417725E-01 -0.22730232239E-02  0.47513888660E-01  0.51100000000E-03 0.  1.
</event>
<event>
 8    1  0.1163913E+005  0.1043930E+01  0.7957747E-01            NaN
         13   -1    0    0    0    0  0.00000000000E+00  0.00000000000E+00  0.74505805969E-08  0.10566000000E+00  0.10566000000E+00 0. -1.
     999900   -1    0    0    0    0 -0.00000000000E+00 -0.00000000000E+00 -0.74505805969E-08  0.93827000000E+00  0.93827000000E+00 0.  1.
     999902    2    1    2    0    0 -0.57689314925E-02  0.20668931918E-01 -0.10084599671E-01  0.10202195705E+01  0.10199440120E+01 0.  0.
     999903    2    3    3    0    0 -0.28444279705E-01 -0.58705349376E-01  0.10876739580E+00  0.12840106609E+00  0.20027288666E-01 0.  0.
         14    1    1    2    0    0  0.57689314925E-02 -0.20668931918E-01  0.10084599671E-01  0.23710429514E-01  0.00000000000E+00 0. -1.
     999901    1    3    3    0    0  0.22675348213E-01  0.79374281294E-01 -0.11885199547E+00  0.89181850439E+00  0.88000000000E+00 0.  1.
        -11    1    4    4    0    0 -0.38531795341E-02 -0.27764825780E-01  0.54208959976E-01  0.61029542075E-01  0.51100000000E-03 0. -1.
         11    1    4    4    0    0 -0.24591100171E-01 -0.30940523595E-01  0.54558435826E-01  0.67371524020E-01  0.51100000000E-03 0.  1.
</event>
<event>
 8    1  0.1163913E+005  0.1043930E+01  0.7957747E-01            NaN
         13   -1    0    0    0    0  0.00000000000E+00  0.00000000000E+00  0.74505805969E-08  0.10566000000E+00  0.10566000000E+00 0. -1.
     999900   -1    0    0    0    0 -0.00000000000E+00 -0.00000000000E+00 -0.74505805969E-08  0.93827000000E+00  0.93827000000E+00 0.  1.
     999902    2    1    2    0    0  0.19363186161E-01 -0.82475454952E-02  0.55970134588E-02  0.10221519940E+01  0.10219199662E+01 0.  0.
     999903    2    3    3    0    0 -0.93651593051E-01  0.40108008109E-01 -0.77737917596E-01  0.12970854448E+00  0.20046183760E-01 0.  0.
         14    1    1    2    0    0 -0.19363186161E-01  0.82475454952E-02 -0.55970134588E-02  0.21778005985E-01  0.00000000000E+00 0.  1.
     999901    1    3    3    0    0  0.11301477921E+00 -0.48355553605E-01  0.83334931055E-01  0.89244344954E+00  0.88000000000E+00 0. -1.
        -11    1    4    4    0    0 -0.44671682351E-01  0.91031836182E-02 -0.29615805757E-01  0.54367124512E-01  0.51100000000E-03 0. -1.
         11    1    4    4    0    0 -0.48979910700E-01  0.31004824491E-01 -0.48122111839E-01  0.75341419968E-01  0.51100000000E-03 0.  1.
</event>
<event>
 8    1  0.1163913E+005  0.1043930E+01  0.7957747E-01            NaN
         13   -1    0    0    0    0  0.00000000000E+00  0.00000000000E+00  0.74505805969E-08  0.10566000000E+00  0.10566000000E+00 0. -1.
     999900   -1    0    0    0    0 -0.00000000000E+00 -0.00000000000E+00 -0.74505805969E-08  0.93827000000E+00  0.93827000000E+00 0.  1.
     999902    2    1    2    0    0  0.15587071453E-01  0.12350137761E-01 -0.13349417350E-01  0.10199781808E+01  0.10196969156E+01 0.  0.
     999903    2    3    3    0    0  0.79708146240E-01  0.10423121381E+00 -0.23425105661E-03  0.13277715964E+00  0.20302333335E-01 0.  0.
         14    1    1    2    0    0 -0.15587071453E-01 -0.12350137761E-01  0.13349417350E-01  0.23951819195E-01  0.00000000000E+00 0. -1.
     999901    1    3    3    0    0 -0.64121074787E-01 -0.91881076051E-01 -0.13115166293E-01  0.88720102116E+00  0.88000000000E+00 0. -1.
        -11    1    4    4    0    0  0.63991630452E-01  0.73877155218E-01 -0.67656382969E-02  0.97973454637E-01  0.51100000000E-03 0.  1.
         11    1    4    4    0    0  0.15716515788E-01  0.30354058594E-01  0.65313872403E-02  0.34803705003E-01  0.51100000000E-03 0. -1.
</event>
<event>
 8    1  0.1163913E+005  0.1043930E+01  0.7957747E-01            NaN
         13   -1    0    0    0    0  0.00000000000E+00  0.00000000000E+00  0.74505805969E-08  0.10566000000E+00  0.10566000000E+00 0.  1.
     999900   -1    0    0    0    0 -0.00000000000E+00 -0.00000000000E+00 -0.74505805969E-08  0.93827000000E+00  0.93827000000E+00 0. -1.
     999902    2    1    2    0    0  0.15548727864E-01  0.94494376841E-02 -0.15708416645E-01  0.10198923386E+01  0.10196090296E+01 0.  0.
     999903    2    3    3    0    0 -0.64781651223E-01 -0.69773088169E-01  0.82247847113E-01  0.12729802539E+00  0.19368343937E-01 0.  0.
         14    1    1    2    0    0 -0.15548727864E-01 -0.94494376841E-02  0.15708416645E-01  0.24037661372E-01  0.00000000000E+00 0. -1.
     999901    1    3    3    0    0  0.80330379088E-01  0.79222525853E-01 -0.97956263757E-01  0.89259431323E+00  0.88000000000E+00 0. -1.
        -11    1    4    4    0    0 -0.50865381244E-01 -0.57732389317E-01  0.75187385728E-01  0.10758122457E+00  0.51100000000E-03 0. -1.
         11    1    4    4    0    0 -0.13916269979E-01 -0.12040698852E-01  0.70604613845E-02  0.19716800830E-01  0.51100000000E-03 0.  1.
</event>
<event>
 8    1  0.1163913E+005  0.1043930E+01  0.7957747E-01            NaN
         13   -1    0    0    0    0  0.00000000000E+00  0.00000000000E+00  0.74505805969E-08  0.10566000000E+00  0.10566000000E+00 0. -1.
     999900   -1    0    0    0    0 -0.00000000000E+00 -0.00000000000E+00 -0.74505805969E-08  0.93827000000E+00  0.93827000000E+00 0. -1.
     999902    2    1    2    0    0 -0.33814784408E-03 -0.68535915669E-02  0.22897142019E-01  0.10200267539E+01  0.10197466418E+01 0.  0.
     999903    2    3    3    0    0  0.10100470848E+00  0.77629969613E-01  0.18076334423E-02  0.12994101983E+00  0.25554603841E-01 0.  0.
         14    1    1    2    0    0  0.33814784408E-03  0.68535915669E-02 -0.22897142019E-01  0.23903246097E-01  0.00000000000E+00 0.  1.
     999901    1    3    3    0    0 -0.10134285632E+00 -0.84483561180E-01  0.21089508577E-01  0.89008573408E+00  0.88000000000E+00 0.  1.
        -11    1    4    4    0    0  0.87475687376E-01  0.61439902310E-01 -0.68781082521E-02  0.10711875173E+00  0.51100000000E-03 0.  1.
         11    1    4    4    0    0  0.13529021102E-01  0.16190067303E-01  0.86857416944E-02  0.22822268096E-01  0.51100000000E-03 0. -1.
</event>
<event>
 8    1  0.1163913E+005  0.1043930E+01  0.7957747E-01            NaN
         13   -1    0    0    0    0  0.00000000000E+00  0.00000000000E+00  0.74505805969E-08  0.10566000000E+00  0.10566000000E+00 0.  1.
     999900   -1    0    0    0    0 -0.00000000000E+00 -0.00000000000E+00 -0.74505805969E-08  0.93827000000E+00  0.93827000000E+00 0. -1.
     999902    2    1    2    0    0  0.50679540129E-02  0.16906854963E-01 -0.35014208555E-02  0.10259359496E+01  0.10257781372E+01 0.  0.
     999903    2    3    3    0    0  0.10187705328E+00 -0.79619903138E-01  0.31905486324E-01  0.13467669111E+00  0.20039663391E-01 0.  0.
         14    1    1    2    0    0 -0.50679540129E-02 -0.16906854963E-01  0.35014208555E-02  0.17994050423E-01  0.00000000000E+00 0.  1.
     999901    1    3    3    0    0 -0.96809099270E-01  0.96526758101E-01 -0.35406907179E-01  0.89125925847E+00  0.88000000000E+00 0. -1.
        -11    1    4    4    0    0  0.35052839390E-01 -0.29064550598E-01  0.15872763635E-02  0.45565669291E-01  0.51100000000E-03 0. -1.
         11    1    4    4    0    0  0.66824213894E-01 -0.50555352540E-01  0.30318209960E-01  0.89111021816E-01  0.51100000000E-03 0.  1.
</event>
<event>
 8    1  0.1163913E+005  0.1043930E+01  0.7957747E-01            NaN
         13   -1    0    0    0    0  0.00000000000E+00  0.00000000000E+00  0.74505805969E-08  0.10566000000E+00  0.10566000000E+00 0. -1.
     999900   -1    0    0    0    0 -0.00000000000E+00 -0.00000000000E+00 -0.74505805969E-08  0.93827000000E+00  0.93827000000E+00 0. -1.
     999902    2    1    2    0    0 -0.12979351155E-01 -0.13818455268E-01 -0.10190425318E-01  0.10224065702E+01  0.10221799923E+01 0.  0.
     999903    2    3    3    0    0 -0.12689843188E+00 -0.39034597324E-01  0.89780643639E-02  0.13449844332E+00  0.19552846716E-01 0.  0.
         14    1    1    2    0    0  0.12979351155E-01  0.13818455268E-01  0.10190425318E-01  0.21523429805E-01  0.00000000000E+00 0.  1.
     999901    1    3    3    0    0  0.11391908072E+00  0.25216142056E-01 -0.19168489682E-01  0.88790812687E+00  0.88000000000E+00 0.  1.
        -11    1    4    4    0    0 -0.35160996964E-01 -0.10831719653E-01 -0.62485853266E-02  0.37321947936E-01  0.51100000000E-03 0. -1.
         11    1    4    4    0    0 -0.91737434914E-01 -0.28202877671E-01  0.15226649690E-01  0.97176495385E-01  0.51100000000E-03 0.  1.
</event>
<event>
 8    1  0.1163913E+005  0.1043930E+01  0.7957747E-01            NaN
         13   -1    0    0    0    0  0.00000000000E+00  0.00000000000E+00  0.74505805969E-08  0.10566000000E+00  0.10566000000E+00 0. -1.
     999900   -1    0    0    0    0 -0.00000000000E+00 -0.00000000000E+00 -0.74505805969E-08  0.93827000000E+00  0.93827000000E+00 0.  1.
     999902    2    1    2    0    0 -0.19811682912E-01  0.18353973765E-02 -0.13401097500E-01  0.10199412343E+01  0.10196590904E+01 0.  0.
     999903    2    3    3    0    0  0.21713739981E-01  0.12694424724E+00 -0.12970331489E-04  0.13002223409E+00  0.17873241990E-01 0.  0.
         14    1    1    2    0    0  0.19811682912E-01 -0.18353973765E-02  0.13401097500E-01  0.23988765653E-01  0.00000000000E+00 0. -1.
     999901    1    3    3    0    0 -0.41525422893E-01 -0.12510884986E+00 -0.13388127169E-01  0.88991900025E+00  0.88000000000E+00 0.  1.
        -11    1    4    4    0    0  0.23791115872E-01  0.95538051055E-01 -0.20382139989E-02  0.98478179467E-01  0.51100000000E-03 0. -1.
         11    1    4    4    0    0 -0.20773758904E-02  0.31406196186E-01  0.20252436674E-02  0.31544054628E-01  0.51100000000E-03 0.  1.
</event>
<event>
 8    1  0.1163913E+005  0.1043930E+01  0.7957747E-01            NaN
         13   -1    0    0    0    0  0.00000000000E+00  0.00000000000E+00  0.74505805969E-08  0.10566000000E+00  0.10566000000E+00 0.  1.
     999900   -1    0    0    0    0 -0.00000000000E+00 -0.00000000000E+00 -0.74505805969E-08  0.93827000000E+00  0.93827000000E+00 0.  1.
     999902    2    1    2    0    0 -0.58678053919E-02 -0.13571316740E-01 -0.17603910926E-01  0.10209406664E+01  0.10206817990E+01 0.  0.
     999903    2    3    3    0    0 -0.10814316620E+00 -0.61312723915E-02  0.70411002711E-01  0.13062486363E+00  0.19303077479E-01 0.  0.
         14    1    1    2    0    0  0.58678053919E-02  0.13571316740E-01  0.17603910926E-01  0.22989333572E-01  0.00000000000E+00 0. -1.
     999901    1    3    3    0    0  0.10227536080E+00 -0.74400443489E-02 -0.88014913636E-01  0.89031580280E+00  0.88000000000E+00 0. -1.
        -11    1    4    4    0    0 -0.21748266544E-01  0.12549523300E-02  0.23457829621E-01  0.32017071923E-01  0.51100000000E-03 0. -1.
         11    1    4    4    0    0 -0.86394899651E-01 -0.73862247215E-02  0.46953173090E-01  0.98607791708E-01  0.51100000000E-03 0.  1.
</event>
<event>
 8    1  0.1163913E+005  0.1043930E+01  0.7957747E-01            NaN
         13   -1    0    0    0    0  0.00000000000E+00  0.00000000000E+00  0.74505805969E-08  0.10566000000E+00  0.10566000000E+00 0.  1.
     999900   -1    0    0    0    0 -0.00000000000E+00 -0.00000000000E+00 -0.74505805969E-08  0.93827000000E+00  0.93827000000E+00 0.  1.
     999902    2    1    2    0    0  0.23025582708E-03 -0.86557901711E-02  0.21901736468E-01  0.10203787414E+01  0.10201069131E+01 0.  0.
     999903    2    3    3    0    0  0.11852994669E+00  0.14407870410E-01  0.51414760174E-01  0.13167307142E+00  0.20913755741E-01 0.  0.
         14    1    1    2    0    0 -0.23025582708E-03  0.86557901711E-02 -0.21901736468E-01  0.23551258598E-01  0.00000000000E+00 0. -1.
     999901    1    3    3    0    0 -0.11829969087E+00 -0.23063660581E-01 -0.29513023706E-01  0.88870566999E+00  0.88000000000E+00 0. -1.
        -11    1    4    4    0    0  0.57977188652E-01  0.17517733849E-01  0.24578355741E-01  0.65364991358E-01  0.51100000000E-03 0. -1.
         11    1    4    4    0    0  0.60552758042E-01 -0.31098634397E-02  0.26836404433E-01  0.66308080058E-01  0.51100000000E-03 0.  1.
</event>
<event>
 8    1  0.1163913E+005  0.1043930E+01  0.7957747E-01            NaN
         13   -1    0    0    0    0  0.00000000000E+00  0.00000000000E+00  0.74505805969E-08  0.10566000000E+00  0.10566000000E+00 0.  1.
     999900   -1    0    0    0    0 -0.00000000000E+00 -0.00000000000E+00 -0.74505805969E-08  0.93827000000E+00  0.93827000000E+00 0. -1.
     999902    2    1    2    0    0 -0.13728838467E-01  0.19877760612E-01  0.78365351255E-03  0.10197593466E+01  0.10194728562E+01 0.  0.
     999903    2    3    3    0    0  0.61072707046E-01 -0.35589480827E-01  0.10595911862E+00  0.12861751472E+00  0.17850590509E-01 0.  0.
         14    1    1    2    0    0  0.13728838467E-01 -0.19877760612E-01 -0.78365351255E-03  0.24170653392E-01  0.00000000000E+00 0.  1.
     999901    1    3    3    0    0 -0.74801545513E-01  0.55467241439E-01 -0.10517546511E+00  0.89114183189E+00  0.88000000000E+00 0. -1.
        -11    1    4    4    0    0  0.22077255831E-01 -0.43615764110E-02  0.26656705866E-01  0.34889391833E-01  0.51100000000E-03 0. -1.
         11    1    4    4    0    0  0.38995451216E-01 -0.31227904416E-01  0.79302412755E-01  0.93728122885E-01  0.51100000000E-03 0.  1.
</event>
<event>
 8    1  0.1163913E+005  0.1043930E+01  0.7957747E-01            NaN
         13   -1    0    0    0    0  0.00000000000E+00  0.00000000000E+00  0.74505805969E-08  0.10566000000E+00  0.10566000000E+00 0.  1.
     999900   -1    0    0    0    0 -0.00000000000E+00 -0.00000000000E+00 -0.74505805969E-08  0.93827000000E+00  0.93827000000E+00 0.  1.
     999902    2    1    2    0    0 -0.95115651405E-02 -0.80268722722E-02 -0.21949389390E-01  0.10186975557E+01  0.10183850125E+01 0.  0.
     999903    2    3    3    0    0 -0.20517828898E-01 -0.87432301062E-01  0.88843732616E-01  0.12813510656E+00  0.21447800269E-01 0.  0.
         14    1    1    2    0    0  0.95115651405E-02  0.80268722722E-02  0.21949389390E-01  0.25232444283E-01  0.00000000000E+00 0.  1.
     999901    1    3    3    0    0  0.11006263758E-01  0.79405428790E-01 -0.11079312201E+00  0.89056244916E+00  0.88000000000E+00 0.  1.
        -11    1    4    4    0    0 -0.17969801210E-01 -0.44394595247E-01  0.57471578963E-01  0.74813350094E-01  0.51100000000E-03 0. -1.
         11    1    4    4    0    0 -0.25480276889E-02 -0.43037705815E-01  0.31372153653E-01  0.53321756467E-01  0.51100000000E-03 0.  1.
</event>
<event>
 8    1  0.1163913E+005  0.1043930E+01  0.7957747E-01            NaN
         13   -1    0    0    0    0  0.00000000000E+00  0.00000000000E+00  0.74505805969E-08  0.10566000000E+00  0.10566000000E+00 0. -1.
     999900   -1    0    0    0    0 -0.00000000000E+00 -0.00000000000E+00 -0.74505805969E-08  0.93827000000E+00  0.93827000000E+00 0.  1.
     999902    2    1    2    0    0  0.11524555607E-01  0.20115940420E-01 -0.59465232803E-02  0.10199961833E+01  0.10197153458E+01 0.  0.
     999903    2    3    3    0    0 -0.98494580572E-01 -0.75085250422E-01 -0.24480207430E-01  0.12785775545E+00  0.20232346387E-01 0.  0.
         14    1    1    2    0    0 -0.11524555607E-01 -0.20115940420E-01  0.59465232803E-02  0.23933816662E-01  0.00000000000E+00 0. -1.
     999901    1    3    3    0    0  0.11001913618E+00  0.95201190842E-01  0.18533684150E-01  0.89213842789E+00  0.88000000000E+00 0.  1.
        -11    1    4    4    0    0 -0.29210749432E-01 -0.11543694478E-01 -0.79660998575E-02  0.32407478034E-01  0.51100000000E-03 0.  1.
         11    1    4    4    0    0 -0.69283831140E-01 -0.63541555943E-01 -0.16514107573E-01  0.95450277418E-01  0.51100000000E-03 0. -1.
</event>
<event>
 8    1  0.1163913E+005  0.1043930E+01  0.7957747E-01            NaN
         13   -1    0    0    0    0  0.00000000000E+00  0.00000000000E+00  0.74505805969E-08  0.10566000000E+00  0.10566000000E+00 0. -1.
     999900   -1    0    0    0    0 -0.00000000000E+00 -0.00000000000E+00 -0.74505805969E-08  0.93827000000E+00  0.93827000000E+00 0.  1.
     999902    2    1    2    0    0 -0.22515520817E-01  0.52204801821E-02 -0.40374433704E-02  0.10204671988E+01  0.10201974323E+01 0.  0.
     999903    2    3    3    0    0 -0.42582755701E-01  0.72725122024E-01 -0.10017660991E+00  0.13243436724E+00  0.20031824651E-01 0.  0.
         14    1    1    2    0    0  0.22515520817E-01 -0.52204801821E-02  0.40374433704E-02  0.23462801196E-01  0.00000000000E+00 0.  1.
     999901    1    3    3    0    0  0.20067234884E-01 -0.67504641841E-01  0.96139166535E-01  0.88803283156E+00  0.88000000000E+00 0. -1.
        -11    1    4    4    0    0 -0.42446059752E-01  0.62553268184E-01 -0.81511005478E-01  0.11117051985E+00  0.51100000000E-03 0.  1.
         11    1    4    4    0    0 -0.13669594926E-03  0.10171853840E-01 -0.18665604428E-01  0.21263847393E-01  0.51100000000E-03 0. -1.
</event>
<event>
 8    1  0.1163913E+005  0.1043930E+01  0.7957747E-01            NaN
         13   -1    0    0    0    0  0.00000000000E+00  0.00000000000E+00  0.74505805969E-08  0.10566000000E+00  0.10566000000E+00 0.  1.
     999900   -1    0    0    0    0 -0.00000000000E+00 -0.00000000000E+00 -0.74505805969E-08  0.93827000000E+00  0.93827000000E+00 0.  1.
     999902    2    1    2    0    0 -0.16885623635E-01 -0.11609770402E-01  0.12077483174E-01  0.10201439399E+01  0.10198665999E+01 0.  0.
     999903    2    3    3    0    0  0.35913948587E-01 -0.32904956622E-01 -0.11745670666E+00  0.12884130550E+00  0.20771523541E-01 0.  0.
         14    1    1    2    0    0  0.16885623635E-01  0.11609770402E-01 -0.12077483174E-01  0.23786060081E-01  0.00000000000E+00 0. -1.
     999901    1    3    3    0    0 -0.52799572222E-01  0.21295186220E-01  0.12953418984E+00  0.89130263442E+00  0.88000000000E+00 0. -1.
        -11    1    4    4    0    0  0.20529768540E-01 -0.31355823185E-01 -0.82996128373E-01  0.91067433750E-01  0.51100000000E-03 0.  1.
         11    1    4    4    0    0  0.15384180047E-01 -0.15491334365E-02 -0.34460578288E-01  0.37773871752E-01  0.51100000000E-03 0. -1.
</event>
<event>
 8    1  0.1163913E+005  0.1043930E+01  0.7957747E-01            NaN
         13   -1    0    0    0    0  0.00000000000E+00  0.00000000000E+00  0.74505805969E-08  0.10566000000E+00  0.10566000000E+00 0. -1.
     999900   -1    0    0    0    0 -0.00000000000E+00 -0.00000000000E+00 -0.74505805969E-08  0.93827000000E+00  0.93827000000E+00 0. -1.
     999902    2    1    2    0    0 -0.37525688198E-04  0.17353651200E-01  0.16654427017E-01  0.10198775457E+01  0.10195938837E+01 0.  0.
     999903    2    3    3    0    0 -0.12845911031E+00  0.67972676743E-02 -0.23670895822E-02  0.13029036127E+00  0.20543350689E-01 0.  0.
         14    1    1    2    0    0  0.37525688198E-04 -0.17353651200E-01 -0.16654427017E-01  0.24052454291E-01  0.00000000000E+00 0.  1.
     999901    1    3    3    0    0  0.12842158462E+00  0.10556383526E-01  0.19021516599E-01  0.88958718444E+00  0.88000000000E+00 0.  1.
        -11    1    4    4    0    0 -0.23730790223E-01  0.35888733268E-02  0.72349369356E-02  0.25072611548E-01  0.51100000000E-03 0. -1.
         11    1    4    4    0    0 -0.10472832008E+00  0.32083943475E-02 -0.96020265178E-02  0.10521774972E+00  0.51100000000E-03 0.  1.
</event>
<event>
 8    1  0.1163913E+005  0.1043930E+01  0.7957747E-01            NaN
         13   -1    0    0    0    0  0.00000000000E+00  0.00000000000E+00  0.74505805969E-08  0.10566000000E+00  0.10566000000E+00 0. -1.
     999900   -1    0    0    0    0 -0.00000000000E+00 -0.00000000000E+00 -0.74505805969E-08  0.93827000000E+00  0.93827000000E+00 0. -1.
     999902    2    1    2    0    0  0.16709470504E-01 -0.84291555291E-02 -0.14536756029E-01  0.10202324401E+01  0.10199571842E+01 0.  0.
     999903    2    3    3    0    0 -0.44551937464E-02 -0.11671680402E+00  0.54876779921E-01  0.13063005885E+00  0.20250684155E-01 0.  0.
         14    1    1    2    0    0 -0.16709470504E-01  0.84291555291E-02  0.14536756029E-01  0.23697559860E-01  0.00000000000E+00 0. -1.
     999901    1    3    3    0    0  0.21164664251E-01  0.10828764849E+00 -0.69413535951E-01  0.88960238129E+00  0.88000000000E+00 0. -1.
        -11    1    4    4    0    0 -0.86654403093E-02 -0.81320637100E-01  0.29793387825E-01  0.87040467331E-01  0.51100000000E-03 0.  1.
         11    1    4    4    0    0  0.42102465630E-02 -0.35396166917E-01  0.25083392096E-01  0.43589591516E-01  0.51100000000E-03 0. -1.
</event>
<event>
 8    1  0.1163913E+005  0.1043930E+01  0.7957747E-01            NaN
         13   -1    0    0    0    0  0.00000000000E+00  0.00000000000E+00  0.74505805969E-08  0.10566000000E+00  0.10566000000E+00 0. -1.
     999900   -1    0    0    0    0 -0.00000000000E+00 -0.00000000000E+00 -0.74505805969E-08  0.93827000000E+00  0.93827000000E+00 0. -1.
     999902    2    1    2    0    0  0.82755553954E-02 -0.19426434010E-01 -0.18169552995E-02  0.10227363103E+01  0.10225166933E+01 0.  0.
     999903    2    3    3    0    0 -0.38386558322E-01  0.82341292591E-01 -0.92417727312E-01  0.13102866601E+00  0.19335425273E-01 0.  0.
         14    1    1    2    0    0 -0.82755553954E-02  0.19426434010E-01  0.18169552995E-02  0.21193689675E-01  0.00000000000E+00 0. -1.
     999901    1    3    3    0    0  0.46662113718E-01 -0.10176772660E+00  0.90600772013E-01  0.89170764431E+00  0.88000000000E+00 0.  1.
        -11    1    4    4    0    0 -0.23680094776E-01  0.31166612288E-01 -0.32584604439E-01  0.50932525734E-01  0.51100000000E-03 0.  1.
         11    1    4    4    0    0 -0.14706463546E-01  0.51174680302E-01 -0.59833122873E-01  0.80096140280E-01  0.51100000000E-03 0. -1.
</event>
<event>
 8    1  0.1163913E+005  0.1043930E+01  0.7957747E-01            NaN
         13   -1    0    0    0    0  0.00000000000E+00  0.00000000000E+00  0.74505805969E-08  0.10566000000E+00  0.10566000000E+00 0. -1.
     999900   -1    0    0    0    0 -0.00000000000E+00 -0.00000000000E+00 -0.74505805969E-08  0.93827000000E+00  0.93827000000E+00 0. -1.
     999902    2    1    2    0    0  0.36956509983E-02  0.24086185720E-01 -0.41973485153E-02  0.10192030933E+01  0.10189030992E+01 0.  0.
     999903    2    3    3    0    0 -0.12316694114E+00 -0.22866638981E-01  0.20667670549E-01  0.12851967359E+00  0.19929258046E-01 0.  0.
         14    1    1    2    0    0 -0.36956509983E-02 -0.24086185720E-01  0.41973485153E-02  0.24726906669E-01  0.00000000000E+00 0.  1.
     999901    1    3    3    0    0  0.12686259213E+00  0.46952824701E-01 -0.24865019064E-01  0.89068341974E+00  0.88000000000E+00 0. -1.
        -11    1    4    4    0    0 -0.84593308493E-01 -0.88445644985E-02  0.73773413024E-02  0.85375291793E-01  0.51100000000E-03 0. -1.
         11    1    4    4    0    0 -0.38573632643E-01 -0.14022074483E-01  0.13290329247E-01  0.43144381796E-01  0.51100000000E-03 0.  1.
</event>
<event>
 8    1  0.1163913E+005  0.1043930E+01  0.7957747E-01            NaN
         13   -1    0    0    0    0  0.00000000000E+00  0.00000000000E+00  0.74505805969E-08  0.10566000000E+00  0.10566000000E+00 0. -1.
     999900   -1    0    0    0    0 -0.00000000000E+00 -0.00000000000E+00 -0.74505805969E-08  0.93827000000E+00  0.93827000000E+00 0. -1.
     999902    2    1    2    0    0 -0.96361850938E-02 -0.17656606808E-01  0.13476175417E-01  0.10197180374E+01  0.10194305551E+01 0.  0.
     999903    2    3    3    0    0 -0.81318274669E-01 -0.98999512993E-01  0.29156938581E-01  0.13292557204E+00  0.20137409652E-01 0.  0.
         14    1    1    2    0    0  0.96361850938E-02  0.17656606808E-01 -0.13476175417E-01  0.24211962560E-01  0.00000000000E+00 0.  1.
     999901    1    3    3    0    0  0.71682089575E-01  0.81342906185E-01 -0.15680763163E-01  0.88679246540E+00  0.88000000000E+00 0.  1.
        -11    1    4    4    0    0 -0.37090978319E-01 -0.33696051360E-01  0.46298493100E-02  0.50327538939E-01  0.51100000000E-03 0.  1.
         11    1    4    4    0    0 -0.44227296350E-01 -0.65303461632E-01  0.24527089271E-01  0.82598033104E-01  0.51100000000E-03 0. -1.
</event>
<event>
 7    1  0.1163913E+005  0.1043930E+01  0.7957747E-01            NaN
         13   -1    0    0    0    0  0.00000000000E+00  0.00000000000E+00  0.74505805969E-08  0.10566000000E+00  0.10566000000E+00 0. -1.
     999900   -1    0    0    0    0 -0.00000000000E+00 -0.00000000000E+00 -0.74505805969E-08  0.93827000000E+00  0.93827000000E+00 0. -1.
     999903    2    1    2    0    0 -0.54383233434E-01 -0.11274337521E-01 -0.73326821492E-01  0.93641135438E-01  0.17526914467E-01 0.  0.
         14    1    1    2    0    0 -0.33316660696E-01 -0.37662817329E-01  0.39478776662E-01  0.63930129797E-01  0.00000000000E+00 0. -1.
     999901    1    1    2    0    0  0.87699894130E-01  0.48937154851E-01  0.33848044830E-01  0.88635873476E+00  0.88000000000E+00 0.  1.
        -11    1    3    3    0    0 -0.34982132649E-01 -0.15096881594E-01 -0.53025537004E-01  0.65296509356E-01  0.51100000000E-03 0. -1.
         11    1    3    3    0    0 -0.19401100785E-01  0.38225440729E-02 -0.20301284488E-01  0.28344626082E-01  0.51100000000E-03 0.  1.
</event>
<event>
 8    1  0.1163913E+005  0.1043930E+01  0.7957747E-01            NaN
         13   -1    0    0    0    0  0.00000000000E+00  0.00000000000E+00  0.74505805969E-08  0.10566000000E+00  0.10566000000E+00 0. -1.
     999900   -1    0    0    0    0 -0.00000000000E+00 -0.00000000000E+00 -0.74505805969E-08  0.93827000000E+00  0.93827000000E+00 0. -1.
     999902    2    1    2    0    0 -0.11313594173E-01 -0.20570957488E-02  0.20482770610E-01  0.10204401522E+01  0.10201697561E+01 0.  0.
     999903    2    3    3    0    0  0.10223067065E+00 -0.26580617729E-01  0.75079018925E-01  0.13112892801E+00  0.20007434080E-01 0.  0.
         14    1    1    2    0    0  0.11313594173E-01  0.20570957488E-02 -0.20482770610E-01  0.23489847763E-01  0.00000000000E+00 0.  1.
     999901    1    3    3    0    0 -0.11354426482E+00  0.24523521981E-01 -0.54596248314E-01  0.88931122423E+00  0.88000000000E+00 0.  1.
        -11    1    4    4    0    0  0.23167366276E-01 -0.74870533694E-02  0.77979234471E-02  0.25570521297E-01  0.51100000000E-03 0. -1.
         11    1    4    4    0    0  0.79063304373E-01 -0.19093564360E-01  0.67281095478E-01  0.10555840671E+00  0.51100000000E-03 0.  1.
</event>
<event>
 8    1  0.1163913E+005  0.1043930E+01  0.7957747E-01            NaN
         13   -1    0    0    0    0  0.00000000000E+00  0.00000000000E+00  0.74505805969E-08  0.10566000000E+00  0.10566000000E+00 0.  1.
     999900   -1    0    0    0    0 -0.00000000000E+00 -0.00000000000E+00 -0.74505805969E-08  0.93827000000E+00  0.93827000000E+00 0.  1.
     999902    2    1    2    0    0  0.20750052396E-01 -0.39449976421E-03  0.10708975612E-01  0.10205761467E+01  0.10203089085E+01 0.  0.
     999903    2    3    3    0    0 -0.50331457507E-01 -0.11077247438E+00 -0.39382306855E-01  0.12942800252E+00  0.19920970067E-01 0.  0.
         14    1    1    2    0    0 -0.20750052396E-01  0.39449976421E-03 -0.10708975612E-01  0.23353853283E-01  0.00000000000E+00 0.  1.
     999901    1    3    3    0    0  0.71081509903E-01  0.11037797461E+00  0.50091282467E-01  0.89114814420E+00  0.88000000000E+00 0. -1.
        -11    1    4    4    0    0 -0.36786821531E-01 -0.84360010467E-01 -0.20639899960E-01  0.94319394589E-01  0.51100000000E-03 0.  1.
         11    1    4    4    0    0 -0.13544635977E-01 -0.26412463910E-01 -0.18742406895E-01  0.35108607930E-01  0.51100000000E-03 0. -1.
</event>
<event>
 8    1  0.1163913E+005  0.1043930E+01  0.7957747E-01            NaN
         13   -1    0    0    0    0  0.00000000000E+00  0.00000000000E+00  0.74505805969E-08  0.10566000000E+00  0.10566000000E+00 0. -1.
     999900   -1    0    0    0    0 -0.00000000000E+00 -0.00000000000E+00 -0.74505805969E-08  0.93827000000E+00  0.93827000000E+00 0. -1.
     999902    2    1    2    0    0 -0.93082155554E-02  0.20083173899E-01  0.85140983188E-02  0.10202136213E+01  0.10199379228E+01 0.  0.
     999903    2    3    3    0    0  0.70971040205E-01  0.94421830059E-02 -0.10637193338E+00  0.12905887045E+00  0.14668349045E-01 0.  0.
         14    1    1    2    0    0  0.93082155554E-02 -0.20083173899E-01 -0.85140983188E-02  0.23716378747E-01  0.00000000000E+00 0.  1.
     999901    1    3    3    0    0 -0.80279255760E-01  0.10640990893E-01  0.11488603170E+00  0.89115475080E+00  0.88000000000E+00 0.  1.
        -11    1    4    4    0    0  0.19849887417E-01  0.58316212098E-02 -0.41596724534E-01  0.46460461140E-01  0.51100000000E-03 0. -1.
         11    1    4    4    0    0  0.51121152788E-01  0.36105617961E-02 -0.64775208848E-01  0.82598409314E-01  0.51100000000E-03 0.  1.
</event>
<event>
 8    1  0.1163913E+005  0.1043930E+01  0.7957747E-01            NaN
         13   -1    0    0    0    0  0.00000000000E+00  0.00000000000E+00  0.74505805969E-08  0.10566000000E+00  0.10566000000E+00 0. -1.
     999900   -1    0    0    0    0 -0.00000000000E+00 -0.00000000000E+00 -0.74505805969E-08  0.93827000000E+00  0.93827000000E+00 0. -1.
     999902    2    1    2    0    0 -0.74463452342E-02 -0.10097138989E-01  0.21351732347E-01  0.10191651712E+01  0.10188642448E+01 0.  0.
     999903    2    3    3    0    0  0.12350425609E+00  0.14187307122E-01 -0.22842068350E-01  0.12804739762E+00  0.20488899276E-01 0.  0.
         14    1    1    2    0    0  0.74463452342E-02  0.10097138989E-01 -0.21351732347E-01  0.24764828837E-01  0.00000000000E+00 0.  1.
     999901    1    3    3    0    0 -0.13095060133E+00 -0.24284446111E-01  0.44193800697E-01  0.89111777355E+00  0.88000000000E+00 0. -1.
        -11    1    4    4    0    0  0.92610029338E-01  0.16419188593E-01 -0.23920153709E-01  0.97049689142E-01  0.51100000000E-03 0.  1.
         11    1    4    4    0    0  0.30894226754E-01 -0.22318814708E-02  0.10780853588E-02  0.30997708474E-01  0.51100000000E-03 0. -1.
</event>
<event>
 8    1  0.1163913E+005  0.1043930E+01  0.7957747E-01            NaN
         13   -1    0    0    0    0  0.00000000000E+00  0.00000000000E+00  0.74505805969E-08  0.10566000000E+00  0.10566000000E+00 0.  1.
     999900   -1    0    0    0    0 -0.00000000000E+00 -0.00000000000E+00 -0.74505805969E-08  0.93827000000E+00  0.93827000000E+00 0.  1.
     999902    2    1    2    0    0 -0.90845435386E-03  0.29353623172E-02  0.23530513400E-01  0.10201997092E+01  0.10199236834E+01 0.  0.
     999903    2    3    3    0    0 -0.63126399696E-01 -0.90286944568E-01  0.69410528259E-01  0.13190558729E+00  0.21085251446E-01 0.  0.
         14    1    1    2    0    0  0.90845435386E-03 -0.29353623172E-02 -0.23530513400E-01  0.23730290814E-01  0.00000000000E+00 0. -1.
     999901    1    3    3    0    0  0.62217945342E-01  0.93222306885E-01 -0.45880014859E-01  0.88829412189E+00  0.88000000000E+00 0.  1.
        -11    1    4    4    0    0 -0.37936992338E-01 -0.52281481545E-01  0.52611465737E-01  0.83311440680E-01  0.51100000000E-03 0.  1.
         11    1    4    4    0    0 -0.25189407358E-01 -0.38005463023E-01  0.16799062521E-01  0.48594146614E-01  0.51100000000E-03 0. -1.
</event>
<event>
 8    1  0.1163913E+005  0.1043930E+01  0.7957747E-01            NaN
         13   -1    0    0    0    0  0.00000000000E+00  0.00000000000E+00  0.74505805969E-08  0.10566000000E+00  0.10566000000E+00 0.  1.
     999900   -1    0    0    0    0 -0.00000000000E+00 -0.00000000000E+00 -0.74505805969E-08  0.93827000000E+00  0.93827000000E+00 0.  1.
     999902    2    1    2    0    0 -0.16607144099E-03  0.11954362131E-01 -0.19922649168E-01  0.10206954072E+01  0.10204309227E+01 0.  0.
     999903    2    3    3    0    0 -0.16216824559E-01  0.12477549509E+00  0.33735930510E-01  0.13172663501E+00  0.19541847130E-01 0.  0.
         14    1    1    2    0    0  0.16607144099E-03 -0.11954362131E-01  0.19922649168E-01  0.23234592821E-01  0.00000000000E+00 0.  1.
     999901    1    3    3    0    0  0.16050753118E-01 -0.11282113296E+00 -0.53658579678E-01  0.88896877217E+00  0.88000000000E+00 0. -1.
        -11    1    4    4    0    0 -0.87332896398E-02  0.22478307867E-01  0.11726325971E-01  0.26820002130E-01  0.51100000000E-03 0. -1.
         11    1    4    4    0    0 -0.74835349189E-02  0.10229718723E+00  0.22009604539E-01  0.10490663288E+00  0.51100000000E-03 0.  1.
</event>
<event>
 8    1  0.1163913E+005  0.1043930E+01  0.7957747E-01            NaN
         13   -1    0    0    0    0  0.00000000000E+00  0.00000000000E+00  0.74505805969E-08  0.10566000000E+00  0.10566000000E+00 0.  1.
     999900   -1    0    0    0    0 -0.00000000000E+00 -0.00000000000E+00 -0.74505805969E-08  0.93827000000E+00  0.93827000000E+00 0. -1.
     999902    2    1    2    0    0 -0.50856869194E-02 -0.64498682925E-02 -0.21212165470E-01  0.10211831106E+01  0.10209297353E+01 0.  0.
     999903    2    3    3    0    0 -0.32455634838E-01 -0.12451982422E+00 -0.26225669901E-01  0.13286179276E+00  0.20147341225E-01 0.  0.
         14    1    1    2    0    0  0.50856869194E-02  0.64498682925E-02  0.21212165470E-01  0.22746889378E-01  0.00000000000E+00 0.  1.
     999901    1    3    3    0    0  0.27369947919E-01  0.11806995592E+00  0.50135044304E-02  0.88832131786E+00  0.88000000000E+00 0. -1.
        -11    1    4    4    0    0 -0.29617456865E-01 -0.75418241249E-01 -0.17801924708E-01  0.82959475098E-01  0.51100000000E-03 0. -1.
         11    1    4    4    0    0 -0.28381779730E-02 -0.49101582966E-01 -0.84237451923E-02  0.49902317662E-01  0.51100000000E-03 0.  1.
</event>
<event>
 8    1  0.1163913E+005  0.1043930E+01  0.7957747E-01            NaN
         13   -1    0    0    0    0  0.00000000000E+00  0.00000000000E+00  0.74505805969E-08  0.10566000000E+00  0.10566000000E+00 0. -1.
     999900   -1    0    0    0    0 -0.00000000000E+00 -0.00000000000E+00 -0.74505805969E-08  0.93827000000E+00  0.93827000000E+00 0.  1.
     999902    2    1    2    0    0  0.23697111580E-01 -0.84625917439E-03 -0.52577678951E-02  0.10196418676E+01  0.10193525518E+01 0.  0.
     999903    2    3    3    0    0  0.10669085049E+00 -0.41241119436E-01  0.63215283207E-01  0.13216890230E+00  0.19714948435E-01 0.  0.
         14    1    1    2    0    0 -0.23697111580E-01  0.84625917439E-03  0.52577678951E-02  0.24288132392E-01  0.00000000000E+00 0.  1.
     999901    1    3    3    0    0 -0.82993738913E-01  0.40394860262E-01 -0.68473051102E-01  0.88747296531E+00  0.88000000000E+00 0.  1.
        -11    1    4    4    0    0  0.78386022955E-01 -0.37286458293E-01  0.53559814313E-01  0.10199785977E+00  0.51100000000E-03 0. -1.
         11    1    4    4    0    0  0.28304827538E-01 -0.39546611432E-02  0.96554688939E-02  0.30171042529E-01  0.51100000000E-03 0.  1.
</event>
<event>
 8    1  0.1163913E+005  0.1043930E+01  0.7957747E-01            NaN
         13   -1    0    0    0    0  0.00000000000E+00  0.00000000000E+00  0.74505805969E-08  0.10566000000E+00  0.10566000000E+00 0.  1.
     999900   -1    0    0    0    0 -0.00000000000E+00 -0.00000000000E+00 -0.74505805969E-08  0.93827000000E+00  0.93827000000E+00 0.  1.
     999902    2    1    2    0    0 -0.15989633113E-01 -0.17679024714E-01  0.23536438911E-02  0.10199767973E+01  0.10196954992E+01 0.  0.
     999903    2    3    3    0    0 -0.49608099234E-01 -0.99625809334E-01  0.69869078463E-01  0.13295717477E+00  0.20239980310E-01 0.  0.
         14    1    1    2    0    0  0.15989633113E-01  0.17679024714E-01 -0.23536438911E-02  0.23953202739E-01  0.00000000000E+00 0.  1.
     999901    1    3    3    0    0  0.33618466121E-01  0.81946784621E-01 -0.67515434572E-01  0.88701962249E+00  0.88000000000E+00 0.  1.
        -11    1    4    4    0    0 -0.27021587980E-01 -0.74371186865E-01  0.46279816657E-01  0.91669636213E-01  0.51100000000E-03 0.  1.
         11    1    4    4    0    0 -0.22586511254E-01 -0.25254622469E-01  0.23589261807E-01  0.41287538559E-01  0.51100000000E-03 0. -1.
</event>
<event>
 8    1  0.1163913E+005  0.1043930E+01  0.7957747E-01            NaN
         13   -1    0    0    0    0  0.00000000000E+00  0.00000000000E+00  0.74505805969E-08  0.10566000000E+00  0.10566000000E+00 0.  1.
     999900   -1    0    0    0    0 -0.00000000000E+00 -0.00000000000E+00 -0.74505805969E-08  0.93827000000E+00  0.93827000000E+00 0. -1.
     999902    2    1    2    0    0  0.17876565712E-01  0.71373523630E-03  0.15765929484E-01  0.10200837099E+01  0.10198049469E+01 0.  0.
     999903    2    3    3    0    0 -0.59026794939E-02 -0.17002175403E-01  0.12963371261E+00  0.13225198145E+00  0.19020293334E-01 0.  0.
         14    1    1    2    0    0 -0.17876565712E-01 -0.71373523630E-03 -0.15765929484E-01  0.23846290113E-01  0.00000000000E+00 0.  1.
     999901    1    3    3    0    0  0.23779245206E-01  0.17715910639E-01 -0.11386778312E+00  0.88783172844E+00  0.88000000000E+00 0. -1.
        -11    1    4    4    0    0 -0.10263814330E-01 -0.71515597350E-02  0.38553702200E-01  0.40535660419E-01  0.51100000000E-03 0. -1.
         11    1    4    4    0    0  0.43611348358E-02 -0.98506156676E-02  0.91080010407E-01  0.91716321027E-01  0.51100000000E-03 0.  1.
</event>
<event>
 8    1  0.1163913E+005  0.1043930E+01  0.7957747E-01            NaN
         13   -1    0    0    0    0  0.00000000000E+00  0.00000000000E+00  0.74505805969E-08  0.10566000000E+00  0.10566000000E+00 0. -1.
     999900   -1    0    0    0    0 -0.00000000000E+00 -0.00000000000E+00 -0.74505805969E-08  0.93827000000E+00  0.93827000000E+00 0.  1.
     999902    2    1    2    0    0  0.21513767456E-01 -0.25279395777E-02  0.12039955591E-01  0.10191470785E+01  0.10188457068E+01 0.  0.
     999903    2    3    3    0    0  0.11753198542E+00  0.61152161592E-02  0.59485997681E-01  0.13261150151E+00  0.14002247855E-01 0.  0.
         14    1    1    2    0    0 -0.21513767456E-01  0.25279395777E-02 -0.12039955591E-01  0.24782921525E-01  0.00000000000E+00 0. -1.
     999901    1    3    3    0    0 -0.96018217968E-01 -0.86431557369E-02 -0.47446042089E-01  0.88653557697E+00  0.88000000000E+00 0. -1.
        -11    1    4    4    0    0  0.49086686262E-01  0.30426467933E-02  0.32613069739E-01  0.59013845040E-01  0.51100000000E-03 0. -1.
         11    1    4    4    0    0  0.68445299163E-01  0.30725693660E-02  0.26872927942E-01  0.73597656465E-01  0.51100000000E-03 0.  1.
</event>
<event>
 8    1  0.1163913E+005  0.1043930E+01  0.7957747E-01            NaN
         13   -1    0    0    0    0  0.00000000000E+00  0.00000000000E+00  0.74505805969E-08  0.10566000000E+00  0.10566000000E+00 0.  1.
     999900   -1    0    0    0    0 -0.00000000000E+00 -0.00000000000E+00 -0.74505805969E-08  0.93827000000E+00  0.93827000000E+00 0. -1.
     999902    2    1    2    0    0 -0.14848475557E-01  0.77342596804E-02  0.17139269283E-01  0.10199706479E+01  0.10196892037E+01 0.  0.
     999903    2    3    3    0    0 -0.80960817474E-01 -0.81436665397E-01  0.61665101538E-01  0.13188008648E+00  0.20079542455E-01 0.  0.
         14    1    1    2    0    0  0.14848475557E-01 -0.77342596804E-02 -0.17139269283E-01  0.23959352051E-01  0.00000000000E+00 0. -1.
     999901    1    3    3    0    0  0.66112341917E-01  0.89170925077E-01 -0.44525832255E-01  0.88809056147E+00  0.88000000000E+00 0. -1.
        -11    1    4    4    0    0 -0.56079144032E-01 -0.46280137333E-01  0.46029578841E-01  0.86056404505E-01  0.51100000000E-03 0. -1.
         11    1    4    4    0    0 -0.24881673442E-01 -0.35156528063E-01  0.15635522696E-01  0.45823681975E-01  0.51100000000E-03 0.  1.
</event>
<event>
 8    1  0.1163913E+005  0.1043930E+01  0.7957747E-01            NaN
         13   -1    0    0    0    0  0.00000000000E+00  0.00000000000E+00  0.74505805969E-08  0.10566000000E+00  0.10566000000E+00 0.  1.
     999900   -1    0    0    0    0 -0.00000000000E+00 -0.00000000000E+00 -0.74505805969E-08  0.93827000000E+00  0.93827000000E+00 0. -1.
     999902    2    1    2    0    0  0.61977795621E-02  0.63433437221E-02 -0.22426633637E-01  0.10198135248E+01  0.10195283326E+01 0.  0.
     999903    2    3    3    0    0  0.19781663101E-02  0.12486158070E+00 -0.36152328613E-01  0.13175228120E+00  0.21385632081E-01 0.  0.
         14    1    1    2    0    0 -0.61977795621E-02 -0.63433437221E-02  0.22426633637E-01  0.24116475227E-01  0.00000000000E+00 0.  1.
     999901    1    3    3    0    0  0.42196132520E-02 -0.11851823698E+00  0.13725694976E-01  0.88806124357E+00  0.88000000000E+00 0. -1.
        -11    1    4    4    0    0  0.33729862060E-02  0.35691464772E-01 -0.20204558782E-01  0.41155109162E-01  0.51100000000E-03 0.  1.
         11    1    4    4    0    0 -0.13948198959E-02  0.89170115932E-01 -0.15947769831E-01  0.90597172039E-01  0.51100000000E-03 0. -1.
</event>
<event>
 8    1  0.1163913E+005  0.1043930E+01  0.7957747E-01            NaN
         13   -1    0    0    0    0  0.00000000000E+00  0.00000000000E+00  0.74505805969E-08  0.10566000000E+00  0.10566000000E+00 0. -1.
     999900   -1    0    0    0    0 -0.00000000000E+00 -0.00000000000E+00 -0.74505805969E-08  0.93827000000E+00  0.93827000000E+00 0. -1.
     999902    2    1    2    0    0  0.20835245900E-01 -0.89862546282E-02  0.55700360553E-02  0.10205658063E+01  0.10202983287E+01 0.  0.
     999903    2    3    3    0    0 -0.11855316240E+00  0.10174680882E-01 -0.43746824484E-01  0.12802537445E+00  0.17841956323E-01 0.  0.
         14    1    1    2    0    0 -0.20835245900E-01  0.89862546282E-02 -0.55700360553E-02  0.23364193665E-01  0.00000000000E+00 0. -1.
     999901    1    3    3    0    0  0.13938840830E+00 -0.19160935510E-01  0.49316860539E-01  0.89254043189E+00  0.88000000000E+00 0.  1.
        -11    1    4    4    0    0 -0.94015906394E-01  0.93170328664E-02 -0.42038748164E-01  0.10340848720E+00  0.51100000000E-03 0. -1.
         11    1    4    4    0    0 -0.24537256001E-01  0.85764801566E-03 -0.17080763201E-02  0.24616887251E-01  0.51100000000E-03 0.  1.
</event>
<event>
 8    1  0.1163913E+005  0.1043930E+01  0.7957747E-01            NaN
         13   -1    0    0    0    0  0.00000000000E+00  0.00000000000E+00  0.74505805969E-08  0.10566000000E+00  0.10566000000E+00 0. -1.
     999900   -1    0    0    0    0 -0.00000000000E+00 -0.00000000000E+00 -0.74505805969E-08  0.93827000000E+00  0.93827000000E+00 0. -1.
     999902    2    1    2    0    0 -0.14037982157E-02  0.14726177896E-01 -0.17927307069E-01  0.10206873817E+01  0.10204227124E+01 0.  0.
     999903    2    3    3    0    0 -0.89476016228E-01  0.38227067194E-01 -0.89305548582E-01  0.13310422465E+00  0.16552566770E-01 0.  0.
         14    1    1    2    0    0  0.14037982157E-02 -0.14726177896E-01  0.17927307069E-01  0.23242618260E-01  0.00000000000E+00 0. -1.
     999901    1    3    3    0    0  0.88072218012E-01 -0.23500889299E-01  0.71378241513E-01  0.88758315709E+00  0.88000000000E+00 0. -1.
        -11    1    4    4    0    0 -0.28070251859E-01  0.10183849369E-01 -0.37896831703E-01  0.48250189653E-01  0.51100000000E-03 0.  1.
         11    1    4    4    0    0 -0.61405764368E-01  0.28043217825E-01 -0.51408716879E-01  0.84854035000E-01  0.51100000000E-03 0. -1.
</event>
<event>
 8    1  0.1589204E+005  0.1043930E+01  0.7957747E-01            NaN
         13   -1    0    0    0    0  0.00000000000E+00  0.00000000000E+00  0.74505805969E-08  0.10566000000E+00  0.10566000000E+00 0. -1.
     999900   -1    0    0    0    0 -0.00000000000E+00 -0.00000000000E+00 -0.74505805969E-08  0.93827000000E+00  0.93827000000E+00 0.  1.
     999902    2    1    2    0    0 -0.20318203778E-01 -0.12890179673E-01 -0.63215798705E-02  0.10190513242E+01  0.10187475904E+01 0.  0.
     999903    2    3    3    0    0  0.82868362380E-01  0.37842720049E-01 -0.87533319322E-01  0.12786299329E+00  0.19688222814E-01 0.  0.
         14    1    1    2    0    0  0.20318203778E-01  0.12890179673E-01  0.63215798705E-02  0.24878675786E-01  0.00000000000E+00 0. -1.
     999901    1    3    3    0    0 -0.10318656616E+00 -0.50732899722E-01  0.81211739451E-01  0.89118833092E+00  0.88000000000E+00 0. -1.
        -11    1    4    4    0    0  0.44814110081E-01  0.30943894898E-01 -0.48846068541E-01  0.73157560284E-01  0.51100000000E-03 0. -1.
         11    1    4    4    0    0  0.38054252298E-01  0.68988251509E-02 -0.38687250781E-01  0.54705433007E-01  0.51100000000E-03 0.  1.
</event>
<event>
 8    1  0.1163913E+005  0.1043930E+01  0.7957747E-01            NaN
         13   -1    0    0    0    0  0.00000000000E+00  0.00000000000E+00  0.74505805969E-08  0.10566000000E+00  0.10566000000E+00 0.  1.
     999900   -1    0    0    0    0 -0.00000000000E+00 -0.00000000000E+00 -0.74505805969E-08  0.93827000000E+00  0.93827000000E+00 0.  1.
     999902    2    1    2    0    0  0.23784362274E-01  0.96183343362E-02 -0.93282277119E-03  0.10182574777E+01  0.10179337957E+01 0.  0.
     999903    2    3    3    0    0 -0.30149904161E-01 -0.12136317553E+00 -0.21714864844E-02  0.12692892136E+00  0.21637897914E-01 0.  0.
         14    1    1    2    0    0 -0.23784362274E-01 -0.96183343362E-02  0.93282277119E-03  0.25672522325E-01  0.00000000000E+00 0.  1.
     999901    1    3    3    0    0  0.53934266435E-01  0.13098150987E+00  0.12386637132E-02  0.89132855632E+00  0.88000000000E+00 0. -1.
        -11    1    4    4    0    0 -0.81498875254E-02 -0.88905083330E-02 -0.24778861782E-02  0.12323264422E-01  0.51100000000E-03 0. -1.
         11    1    4    4    0    0 -0.22000016635E-01 -0.11247266720E+00  0.30639969379E-03  0.11460565693E+00  0.51100000000E-03 0.  1.
</event>
<event>
 8    1  0.1163913E+005  0.1043930E+01  0.7957747E-01            NaN
         13   -1    0    0    0    0  0.00000000000E+00  0.00000000000E+00  0.74505805969E-08  0.10566000000E+00  0.10566000000E+00 0.  1.
     999900   -1    0    0    0    0 -0.00000000000E+00 -0.00000000000E+00 -0.74505805969E-08  0.93827000000E+00  0.93827000000E+00 0.  1.
     999902    2    1    2    0    0  0.13562585988E-01 -0.48984972617E-02 -0.21115091618E-01  0.10183607586E+01  0.10180397087E+01 0.  0.
     999903    2    3    3    0    0  0.11505078784E+00  0.43511458390E-02  0.55462391177E-01  0.12917600729E+00  0.18834748998E-01 0.  0.
         14    1    1    2    0    0 -0.13562585988E-01  0.48984972617E-02  0.21115091618E-01  0.25569241446E-01  0.00000000000E+00 0.  1.
     999901    1    3    3    0    0 -0.10148820186E+00 -0.92496431007E-02 -0.76577482794E-01  0.88918475127E+00  0.88000000000E+00 0.  1.
        -11    1    4    4    0    0  0.83971622944E-01  0.30895387635E-02  0.30871270249E-01  0.89521367044E-01  0.51100000000E-03 0.  1.
         11    1    4    4    0    0  0.31079164901E-01  0.12616070755E-02  0.24591120928E-01  0.39654640243E-01  0.51100000000E-03 0. -1.
</event>
<event>
 8    1  0.1163913E+005  0.1043930E+01  0.7957747E-01            NaN
         13   -1    0    0    0    0  0.00000000000E+00  0.00000000000E+00  0.74505805969E-08  0.10566000000E+00  0.10566000000E+00 0. -1.
     999900   -1    0    0    0    0 -0.00000000000E+00 -0.00000000000E+00 -0.74505805969E-08  0.93827000000E+00  0.93827000000E+00 0.  1.
     999902    2    1    2    0    0 -0.22100270061E-01 -0.13921776109E-01  0.10138911158E-01  0.10159115185E+01  0.10155250751E+01 0.  0.
     999903    2    3    3    0    0  0.49884174071E-01  0.32244918711E-01  0.10943843503E+00  0.12620734330E+00  0.20575636927E-01 0.  0.
         14    1    1    2    0    0  0.22100270061E-01  0.13921776109E-01 -0.10138911158E-01  0.28018481512E-01  0.00000000000E+00 0. -1.
     999901    1    3    3    0    0 -0.71984444132E-01 -0.46166694819E-01 -0.99299523873E-01  0.88970417519E+00  0.88000000000E+00 0.  1.
        -11    1    4    4    0    0  0.28242472950E-01  0.29682914505E-01  0.74550189706E-01  0.85068822715E-01  0.51100000000E-03 0.  1.
         11    1    4    4    0    0  0.21641701121E-01  0.25620042060E-02  0.34888245325E-01  0.41138520584E-01  0.51100000000E-03 0. -1.
</event>
<event>
 8    1  0.1163913E+005  0.1043930E+01  0.7957747E-01            NaN
         13   -1    0    0    0    0  0.00000000000E+00  0.00000000000E+00  0.74505805969E-08  0.10566000000E+00  0.10566000000E+00 0. -1.
     999900   -1    0    0    0    0 -0.00000000000E+00 -0.00000000000E+00 -0.74505805969E-08  0.93827000000E+00  0.93827000000E+00 0.  1.
     999902    2    1    2    0    0 -0.22367051305E-02  0.92019202290E-02 -0.21459250923E-01  0.10204741343E+01  0.10202045291E+01 0.  0.
     999903    2    3    3    0    0 -0.96844727878E-01 -0.77002089383E-01 -0.38976781289E-01  0.13104247694E+00  0.18566588139E-01 0.  0.
         14    1    1    2    0    0  0.22367051305E-02 -0.92019202290E-02  0.21459250923E-01  0.23455865703E-01  0.00000000000E+00 0. -1.
     999901    1    3    3    0    0  0.94608022748E-01  0.86204009612E-01  0.17517530366E-01  0.88943165736E+00  0.88000000000E+00 0. -1.
        -11    1    4    4    0    0 -0.43203284794E-01 -0.37555986363E-01 -0.27366696586E-01  0.63452132602E-01  0.51100000000E-03 0.  1.
         11    1    4    4    0    0 -0.53641443084E-01 -0.39446103020E-01 -0.11610084703E-01  0.67590344336E-01  0.51100000000E-03 0. -1.
</event>
<event>
 8    1  0.1163913E+005  0.1043930E+01  0.7957747E-01            NaN
         13   -1    0    0    0    0  0.00000000000E+00  0.00000000000E+00  0.74505805969E-08  0.10566000000E+00  0.10566000000E+00 0.  1.
     999900   -1    0    0    0    0 -0.00000000000E+00 -0.00000000000E+00 -0.74505805969E-08  0.93827000000E+00  0.93827000000E+00 0. -1.
     999902    2    1    2    0    0  0.12505954830E-01 -0.23772251570E-02 -0.19958270860E-01  0.10202575966E+01  0.10199829316E+01 0.  0.
     999903    2    3    3    0    0  0.86993014149E-01 -0.84810018112E-01  0.44515695057E-01  0.13093179601E+00  0.20024095926E-01 0.  0.
         14    1    1    2    0    0 -0.12505954830E-01  0.23772251570E-02  0.19958270860E-01  0.23672403372E-01  0.00000000000E+00 0.  1.
     999901    1    3    3    0    0 -0.74487059319E-01  0.82432792955E-01 -0.64473965917E-01  0.88932580062E+00  0.88000000000E+00 0.  1.
        -11    1    4    4    0    0  0.32752331934E-01 -0.19465515545E-01  0.11317588183E-01  0.39748842321E-01  0.51100000000E-03 0.  1.
         11    1    4    4    0    0  0.54240682215E-01 -0.65344502567E-01  0.33198106874E-01  0.91182953692E-01  0.51100000000E-03 0. -1.
</event>
<event>
 8    1  0.1163913E+005  0.1043930E+01  0.7957747E-01            NaN
         13   -1    0    0    0    0  0.00000000000E+00  0.00000000000E+00  0.74505805969E-08  0.10566000000E+00  0.10566000000E+00 0.  1.
     999900   -1    0    0    0    0 -0.00000000000E+00 -0.00000000000E+00 -0.74505805969E-08  0.93827000000E+00  0.93827000000E+00 0. -1.
     999902    2    1    2    0    0 -0.23482019555E-01 -0.23056334780E-02 -0.34915581583E-02  0.10200781203E+01  0.10197992250E+01 0.  0.
     999903    2    3    3    0    0  0.10844307466E+00  0.54545683307E-01  0.33922422918E-01  0.12764542887E+00  0.20186449060E-01 0.  0.
         14    1    1    2    0    0  0.23482019555E-01  0.23056334780E-02  0.34915581583E-02  0.23851879727E-01  0.00000000000E+00 0. -1.
     999901    1    3    3    0    0 -0.13192509422E+00 -0.56851316785E-01 -0.37413981076E-01  0.89243269140E+00  0.88000000000E+00 0. -1.
        -11    1    4    4    0    0  0.65515818866E-01  0.24520502852E-01  0.12586942412E-01  0.71079320636E-01  0.51100000000E-03 0. -1.
         11    1    4    4    0    0  0.42927255795E-01  0.30025180454E-01  0.21335480506E-01  0.56566108235E-01  0.51100000000E-03 0.  1.
</event>
<event>
 8    1  0.1163913E+005  0.1043930E+01  0.7957747E-01            NaN
         13   -1    0    0    0    0  0.00000000000E+00  0.00000000000E+00  0.74505805969E-08  0.10566000000E+00  0.10566000000E+00 0.  1.
     999900   -1    0    0    0    0 -0.00000000000E+00 -0.00000000000E+00 -0.74505805969E-08  0.93827000000E+00  0.93827000000E+00 0. -1.
     999902    2    1    2    0    0 -0.21728212039E-02  0.13471163655E-02 -0.23556219144E-01  0.10202354577E+01  0.10199602727E+01 0.  0.
     999903    2    3    3    0    0  0.25606129856E-01  0.68855101143E-02 -0.12919104139E+00  0.13346544265E+00  0.20484508039E-01 0.  0.
         14    1    1    2    0    0  0.21728212039E-02 -0.13471163655E-02  0.23556219144E-01  0.23694542300E-01  0.00000000000E+00 0.  1.
     999901    1    3    3    0    0 -0.27778951060E-01 -0.55383937488E-02  0.10563482225E+00  0.88677001505E+00  0.88000000000E+00 0.  1.
        -11    1    4    4    0    0  0.18238398860E-01 -0.42590211304E-02 -0.55659547419E-01  0.58728398529E-01  0.51100000000E-03 0. -1.
         11    1    4    4    0    0  0.73677309962E-02  0.11144531245E-01 -0.73531493971E-01  0.74737044117E-01  0.51100000000E-03 0.  1.
</event>
<event>
 8    1  0.1163913E+005  0.1043930E+01  0.7957747E-01            NaN
         13   -1    0    0    0    0  0.00000000000E+00  0.00000000000E+00  0.74505805969E-08  0.10566000000E+00  0.10566000000E+00 0.  1.
     999900   -1    0    0    0    0 -0.00000000000E+00 -0.00000000000E+00 -0.74505805969E-08  0.93827000000E+00  0.93827000000E+00 0. -1.
     999902    2    1    2    0    0  0.37360004680E-02  0.24308070365E-01 -0.20053583030E-02  0.10192548820E+01  0.10189561586E+01 0.  0.
     999903    2    3    3    0    0  0.10950348396E+00 -0.34830837154E-01  0.55346753368E-01  0.12910127976E+00  0.19991926128E-01 0.  0.
         14    1    1    2    0    0 -0.37360004680E-02 -0.24308070365E-01  0.20053583030E-02  0.24675117959E-01  0.00000000000E+00 0. -1.
     999901    1    3    3    0    0 -0.10576748349E+00  0.59138907519E-01 -0.57352111671E-01  0.89015360228E+00  0.88000000000E+00 0. -1.
        -11    1    4    4    0    0  0.78339207822E-01 -0.30442822709E-01  0.32090560934E-01  0.89965894420E-01  0.51100000000E-03 0. -1.
         11    1    4    4    0    0  0.31164276137E-01 -0.43880144446E-02  0.23256192434E-01  0.39135385337E-01  0.51100000000E-03 0.  1.
</event>
<event>
 8    1  0.1163913E+005  0.1043930E+01  0.7957747E-01            NaN
         13   -1    0    0    0    0  0.00000000000E+00  0.00000000000E+00  0.74505805969E-08  0.10566000000E+00  0.10566000000E+00 0.  1.
     999900   -1    0    0    0    0 -0.00000000000E+00 -0.00000000000E+00 -0.74505805969E-08  0.93827000000E+00  0.93827000000E+00 0. -1.
     999902    2    1    2    0    0  0.13404500018E-02 -0.13744437279E-01 -0.15341127374E-01  0.10232888626E+01  0.10230806615E+01 0.  0.
     999903    2    3    3    0    0 -0.10528818212E+00  0.77175477436E-01 -0.51923807021E-02  0.13214404100E+00  0.19835098788E-01 0.  0.
         14    1    1    2    0    0 -0.13404500018E-02  0.13744437279E-01  0.15341127374E-01  0.20641137358E-01  0.00000000000E+00 0.  1.
     999901    1    3    3    0    0  0.10662863212E+00 -0.90919914714E-01 -0.10148746672E-01  0.89114482164E+00  0.88000000000E+00 0. -1.
        -11    1    4    4    0    0 -0.86127118517E-01  0.61185089461E-01  0.35130754132E-02  0.10570760870E+00  0.51100000000E-03 0.  1.
         11    1    4    4    0    0 -0.19161063599E-01  0.15990387974E-01 -0.87054561153E-02  0.26436432305E-01  0.51100000000E-03 0. -1.
</event>
<event>
 8    1  0.1163913E+005  0.1043930E+01  0.7957747E-01            NaN
         13   -1    0    0    0    0  0.00000000000E+00  0.00000000000E+00  0.74505805969E-08  0.10566000000E+00  0.10566000000E+00 0. -1.
     999900   -1    0    0    0    0 -0.00000000000E+00 -0.00000000000E+00 -0.74505805969E-08  0.93827000000E+00  0.93827000000E+00 0.  1.
     999902    2    1    2    0    0  0.26679024653E-02  0.20797049597E-01  0.11304468715E-01  0.10201092950E+01  0.10198311368E+01 0.  0.
     999903    2    3    3    0    0  0.10390807571E+00 -0.66089938282E-01 -0.32355773888E-01  0.12898352487E+00  0.20617600338E-01 0.  0.
         14    1    1    2    0    0 -0.26679024653E-02 -0.20797049597E-01 -0.11304468715E-01  0.23820705037E-01  0.00000000000E+00 0.  1.
     999901    1    3    3    0    0 -0.10124017325E+00  0.86886987879E-01  0.43660242603E-01  0.89112577009E+00  0.88000000000E+00 0. -1.
        -11    1    4    4    0    0  0.31739908248E-01 -0.18498568651E-01 -0.19465604744E-01  0.41578716993E-01  0.51100000000E-03 0.  1.
         11    1    4    4    0    0  0.72168167463E-01 -0.47591369631E-01 -0.12890169144E-01  0.87404807876E-01  0.51100000000E-03 0. -1.
</event>
<event>
 8    1  0.1163913E+005  0.1043930E+01  0.7957747E-01            NaN
         13   -1    0    0    0    0  0.00000000000E+00  0.00000000000E+00  0.74505805969E-08  0.10566000000E+00  0.10566000000E+00 0. -1.
     999900   -1    0    0    0    0 -0.00000000000E+00 -0.00000000000E+00 -0.74505805969E-08  0.93827000000E+00  0.93827000000E+00 0. -1.
     999902    2    1    2    0    0 -0.21560434059E-01  0.41159158344E-02  0.99578012673E-02  0.10198270772E+01  0.10195422093E+01 0.  0.
     999903    2    3    3    0    0 -0.10886784658E+00 -0.46711917561E-01 -0.53944028578E-01  0.13174515714E+00  0.20312974947E-01 0.  0.
         14    1    1    2    0    0  0.21560434059E-01 -0.41159158344E-02 -0.99578012673E-02  0.24102922770E-01  0.00000000000E+00 0.  1.
     999901    1    3    3    0    0  0.87307412516E-01  0.50827833396E-01  0.63901829845E-01  0.88808192009E+00  0.88000000000E+00 0.  1.
        -11    1    4    4    0    0 -0.91003013837E-01 -0.38763457267E-01 -0.52862073649E-01  0.11215531239E+00  0.51100000000E-03 0.  1.
         11    1    4    4    0    0 -0.17864832738E-01 -0.79484602938E-02 -0.10819549288E-02  0.19589844749E-01  0.51100000000E-03 0. -1.
</event>
<event>
 8    1  0.1163913E+005  0.1043930E+01  0.7957747E-01            NaN
         13   -1    0    0    0    0  0.00000000000E+00  0.00000000000E+00  0.74505805969E-08  0.10566000000E+00  0.10566000000E+00 0.  1.
     999900   -1    0    0    0    0 -0.00000000000E+00 -0.00000000000E+00 -0.74505805969E-08  0.93827000000E+00  0.93827000000E+00 0. -1.
     999902    2    1    2    0    0 -0.11659045178E-02 -0.21957387569E-01  0.83750150735E-02  0.10204007187E+01  0.10201294034E+01 0.  0.
     999903    2    3    3    0    0 -0.43208952739E-01  0.10491490902E+00 -0.55977433861E-01  0.12798521274E+00  0.19302586565E-01 0.  0.
         14    1    1    2    0    0  0.11659045178E-02  0.21957387569E-01 -0.83750150735E-02  0.23529281325E-01  0.00000000000E+00 0. -1.
     999901    1    3    3    0    0  0.42043048221E-01 -0.12687229659E+00  0.64352448935E-01  0.89241550593E+00  0.88000000000E+00 0.  1.
        -11    1    4    4    0    0 -0.42488828579E-01  0.85786308937E-01 -0.49478143472E-01  0.10776334793E+00  0.51100000000E-03 0. -1.
         11    1    4    4    0    0 -0.72012415952E-03  0.19128600080E-01 -0.64992903890E-02  0.20221864810E-01  0.51100000000E-03 0.  1.
</event>
<event>
 8    1  0.1163913E+005  0.1043930E+01  0.7957747E-01            NaN
         13   -1    0    0    0    0  0.00000000000E+00  0.00000000000E+00  0.74505805969E-08  0.10566000000E+00  0.10566000000E+00 0. -1.
     999900   -1    0    0    0    0 -0.00000000000E+00 -0.00000000000E+00 -0.74505805969E-08  0.93827000000E+00  0.93827000000E+00 0. -1.
     999902    2    1    2    0    0  0.14465209098E-02  0.15048108562E-01 -0.17060072622E-01  0.10211356131E+01  0.10208811666E+01 0.  0.
     999903    2    3    3    0    0  0.12169823614E+00  0.37848498176E-01 -0.30443045473E-01  0.13256404217E+00  0.20086731074E-01 0.  0.
         14    1    1    2    0    0 -0.14465209098E-02 -0.15048108562E-01  0.17060072622E-01  0.22794386851E-01  0.00000000000E+00 0. -1.
     999901    1    3    3    0    0 -0.12025171523E+00 -0.22800389613E-01  0.13382972851E-01  0.88857157098E+00  0.88000000000E+00 0. -1.
        -11    1    4    4    0    0  0.26702135958E-01  0.62020662094E-02 -0.14992237136E-01  0.31248967748E-01  0.51100000000E-03 0.  1.
         11    1    4    4    0    0  0.94996100185E-01  0.31646431966E-01 -0.15450808337E-01  0.10131507443E+00  0.51100000000E-03 0. -1.
</event>
<event>
 8    1  0.1163913E+005  0.1043930E+01  0.7957747E-01            NaN
         13   -1    0    0    0    0  0.00000000000E+00  0.00000000000E+00  0.74505805969E-08  0.10566000000E+00  0.10566000000E+00 0. -1.
     999900   -1    0    0    0    0 -0.00000000000E+00 -0.00000000000E+00 -0.74505805969E-08  0.93827000000E+00  0.93827000000E+00 0.  1.
     999902    2    1    2    0    0  0.32641022571E-01  0.66384180272E-02  0.78185767628E-02  0.10097154550E+01  0.10091356028E+01 0.  0.
     999903    2    3    3    0    0 -0.21155106452E-01  0.32153657422E-01  0.11316789342E+00  0.12143423292E+00  0.21398705795E-01 0.  0.
         14    1    1    2    0    0 -0.32641022571E-01 -0.66384180272E-02 -0.78185767628E-02  0.34214545021E-01  0.00000000000E+00 0.  1.
     999901    1    3    3    0    0  0.53796129023E-01 -0.25515239394E-01 -0.10534931666E+00  0.88828122206E+00  0.88000000000E+00 0.  1.
        -11    1    4    4    0    0 -0.13297875890E-01  0.10397034383E-01  0.74349950627E-01  0.76243741425E-01  0.51100000000E-03 0.  1.
         11    1    4    4    0    0 -0.78572305625E-02  0.21756623038E-01  0.38817942792E-01  0.45190491497E-01  0.51100000000E-03 0. -1.
</event>
<event>
 8    1  0.1163913E+005  0.1043930E+01  0.7957747E-01            NaN
         13   -1    0    0    0    0  0.00000000000E+00  0.00000000000E+00  0.74505805969E-08  0.10566000000E+00  0.10566000000E+00 0. -1.
     999900   -1    0    0    0    0 -0.00000000000E+00 -0.00000000000E+00 -0.74505805969E-08  0.93827000000E+00  0.93827000000E+00 0. -1.
     999902    2    1    2    0    0  0.26907819630E-01 -0.11524720322E-01  0.21101153693E-01  0.10078452578E+01  0.10071990642E+01 0.  0.
     999903    2    3    3    0    0  0.73709299141E-01  0.80258932989E-01  0.50114214241E-01  0.12135985168E+00  0.18499243949E-01 0.  0.
         14    1    1    2    0    0 -0.26907819630E-01  0.11524720322E-01 -0.21101153693E-01  0.36084742245E-01  0.00000000000E+00 0.  1.
     999901    1    3    3    0    0 -0.46801479511E-01 -0.91783653311E-01 -0.29013060549E-01  0.88648540607E+00  0.88000000000E+00 0. -1.
        -11    1    4    4    0    0  0.55244545166E-01  0.48492479411E-01  0.37388538161E-01  0.82472081560E-01  0.51100000000E-03 0. -1.
         11    1    4    4    0    0  0.18464753974E-01  0.31766453578E-01  0.12725676080E-01  0.38887770121E-01  0.51100000000E-03 0.  1.
</event>
<event>
 8    1  0.1163913E+005  0.1043930E+01  0.7957747E-01            NaN
         13   -1    0    0    0    0  0.00000000000E+00  0.00000000000E+00  0.74505805969E-08  0.10566000000E+00  0.10566000000E+00 0.  1.
     999900   -1    0    0    0    0 -0.00000000000E+00 -0.00000000000E+00 -0.74505805969E-08  0.93827000000E+00  0.93827000000E+00 0.  1.
     999902    2    1    2    0    0 -0.70283974932E-02  0.66704335972E-02  0.17750838880E-01  0.10237066141E+01  0.10235068375E+01 0.  0.
     999903    2    3    3    0    0  0.11898581882E+00 -0.30515893351E-01  0.48195500426E-01  0.13343177844E+00  0.19808796255E-01 0.  0.
         14    1    1    2    0    0  0.70283974932E-02 -0.66704335972E-02 -0.17750838880E-01  0.20223385884E-01  0.00000000000E+00 0. -1.
     999901    1    3    3    0    0 -0.12601421631E+00  0.37186326948E-01 -0.30444661547E-01  0.89027483568E+00  0.88000000000E+00 0. -1.
        -11    1    4    4    0    0  0.20650687243E-01 -0.12055424620E-01  0.13898743605E-01  0.27662616311E-01  0.51100000000E-03 0. -1.
         11    1    4    4    0    0  0.98335131574E-01 -0.18460468731E-01  0.34296756821E-01  0.10576916213E+00  0.51100000000E-03 0.  1.
</event>
<event>
 8    1  0.1163913E+005  0.1043930E+01  0.7957747E-01            NaN
         13   -1    0    0    0    0  0.00000000000E+00  0.00000000000E+00  0.74505805969E-08  0.10566000000E+00  0.10566000000E+00 0. -1.
     999900   -1    0    0    0    0 -0.00000000000E+00 -0.00000000000E+00 -0.74505805969E-08  0.93827000000E+00  0.93827000000E+00 0. -1.
     999902    2    1    2    0    0  0.86932233635E-02 -0.22169646991E-01 -0.53582070358E-02  0.10195214818E+01  0.10192292559E+01 0.  0.
     999903    2    3    3    0    0  0.79582174387E-01 -0.89991258695E-01 -0.53064283513E-01  0.13278539694E+00  0.19605976976E-01 0.  0.
         14    1    1    2    0    0 -0.86932233635E-02  0.22169646991E-01  0.53582070358E-02  0.24408518242E-01  0.00000000000E+00 0. -1.
     999901    1    3    3    0    0 -0.70888951023E-01  0.67821611705E-01  0.47706076477E-01  0.88673608482E+00  0.88000000000E+00 0. -1.
        -11    1    4    4    0    0  0.42158589226E-01 -0.49439614788E-01 -0.18071352901E-01  0.67442249907E-01  0.51100000000E-03 0.  1.
         11    1    4    4    0    0  0.37423585161E-01 -0.40551643908E-01 -0.34992930612E-01  0.65343147030E-01  0.51100000000E-03 0. -1.
</event>
<event>
 8    1  0.1163913E+005  0.1043930E+01  0.7957747E-01            NaN
         13   -1    0    0    0    0  0.00000000000E+00  0.00000000000E+00  0.74505805969E-08  0.10566000000E+00  0.10566000000E+00 0.  1.
     999900   -1    0    0    0    0 -0.00000000000E+00 -0.00000000000E+00 -0.74505805969E-08  0.93827000000E+00  0.93827000000E+00 0. -1.
     999902    2    1    2    0    0 -0.18895128671E-01 -0.35687531461E-02  0.13803098100E-01  0.10202596091E+01  0.10199849914E+01 0.  0.
     999903    2    3    3    0    0 -0.96410440242E-01 -0.85523482781E-01 -0.25986875907E-01  0.13216702203E+00  0.13548612420E-01 0.  0.
         14    1    1    2    0    0  0.18895128671E-01  0.35687531461E-02 -0.13803098100E-01  0.23670390865E-01  0.00000000000E+00 0. -1.
     999901    1    3    3    0    0  0.77515311571E-01  0.81954729635E-01  0.39789974007E-01  0.88809258710E+00  0.88000000000E+00 0.  1.
        -11    1    4    4    0    0 -0.59943175966E-01 -0.47426079678E-01 -0.10201855435E-01  0.77115214801E-01  0.51100000000E-03 0. -1.
         11    1    4    4    0    0 -0.36467264276E-01 -0.38097403103E-01 -0.15785020473E-01  0.55051807230E-01  0.51100000000E-03 0.  1.
</event>
<event>
 8    1  0.1163913E+005  0.1043930E+01  0.7957747E-01            NaN
         13   -1    0    0    0    0  0.00000000000E+00  0.00000000000E+00  0.74505805969E-08  0.10566000000E+00  0.10566000000E+00 0. -1.
     999900   -1    0    0    0    0 -0.00000000000E+00 -0.00000000000E+00 -0.74505805969E-08  0.93827000000E+00  0.93827000000E+00 0. -1.
     999902    2    1    2    0    0  0.12771696632E-01  0.29078631056E-02  0.19440090325E-01  0.10204888180E+01  0.10202195541E+01 0.  0.
     999903    2    3    3    0    0  0.32488092849E-01 -0.21766222290E-01 -0.12089518439E+00  0.12880976355E+00  0.21143910910E-01 0.  0.
         14    1    1    2    0    0 -0.12771696632E-01 -0.29078631056E-02 -0.19440090325E-01  0.23441182021E-01  0.00000000000E+00 0.  1.
     999901    1    3    3    0    0 -0.19716396217E-01  0.24674085395E-01  0.14033527471E+00  0.89167905442E+00  0.88000000000E+00 0.  1.
        -11    1    4    4    0    0  0.68309076178E-02 -0.20882892534E-02 -0.54385676882E-01  0.54855129403E-01  0.51100000000E-03 0. -1.
         11    1    4    4    0    0  0.25657185231E-01 -0.19677933036E-01 -0.66509507507E-01  0.73954634151E-01  0.51100000000E-03 0.  1.
</event>
<event>
 8    1  0.1163913E+005  0.1043930E+01  0.7957747E-01            NaN
         13   -1    0    0    0    0  0.00000000000E+00  0.00000000000E+00  0.74505805969E-08  0.10566000000E+00  0.10566000000E+00 0. -1.
     999900   -1    0    0    0    0 -0.00000000000E+00 -0.00000000000E+00 -0.74505805969E-08  0.93827000000E+00  0.93827000000E+00 0.  1.
     999902    2    1    2    0    0  0.44020223429E-02  0.64550658073E-02  0.22120032369E-01  0.10204706414E+01  0.10202009549E+01 0.  0.
     999903    2    3    3    0    0 -0.11057905024E+00  0.51893476202E-01 -0.39979939944E-01  0.12966106421E+00  0.17115395151E-01 0.  0.
         14    1    1    2    0    0 -0.44020223429E-02 -0.64550658073E-02 -0.22120032369E-01  0.23459358629E-01  0.00000000000E+00 0.  1.
     999901    1    3    3    0    0  0.11498107258E+00 -0.45438410395E-01  0.62099972313E-01  0.89080957716E+00  0.88000000000E+00 0. -1.
        -11    1    4    4    0    0 -0.56583943736E-01  0.23832869137E-01 -0.28676196892E-01  0.67766759766E-01  0.51100000000E-03 0. -1.
         11    1    4    4    0    0 -0.53995106504E-01  0.28060607066E-01 -0.11303743052E-01  0.61894304449E-01  0.51100000000E-03 0.  1.
</event>
<event>
 8    1  0.1163913E+005  0.1043930E+01  0.7957747E-01            NaN
         13   -1    0    0    0    0  0.00000000000E+00  0.00000000000E+00  0.74505805969E-08  0.10566000000E+00  0.10566000000E+00 0.  1.
     999900   -1    0    0    0    0 -0.00000000000E+00 -0.00000000000E+00 -0.74505805969E-08  0.93827000000E+00  0.93827000000E+00 0. -1.
     999902    2    1    2    0    0 -0.53042878015E-03  0.93179683031E-02 -0.21339821440E-01  0.10206385023E+01  0.10203727056E+01 0.  0.
     999903    2    3    3    0    0  0.12938146290E+00 -0.28535248145E-03  0.29843873527E-02  0.13071660091E+00  0.18392357545E-01 0.  0.
         14    1    1    2    0    0  0.53042878015E-03 -0.93179683031E-02  0.21339821440E-01  0.23291497742E-01  0.00000000000E+00 0.  1.
     999901    1    3    3    0    0 -0.12991189168E+00  0.96033207845E-02 -0.24324208792E-01  0.88992190135E+00  0.88000000000E+00 0. -1.
        -11    1    4    4    0    0  0.78212314407E-01  0.62314238707E-02 -0.45036174082E-02  0.78590969323E-01  0.51100000000E-03 0. -1.
         11    1    4    4    0    0  0.51169148496E-01 -0.65167763521E-02  0.74880047609E-02  0.52125631585E-01  0.51100000000E-03 0.  1.
</event>
<event>
 8    1  0.1163913E+005  0.1043930E+01  0.7957747E-01            NaN
         13   -1    0    0    0    0  0.00000000000E+00  0.00000000000E+00  0.74505805969E-08  0.10566000000E+00  0.10566000000E+00 0. -1.
     999900   -1    0    0    0    0 -0.00000000000E+00 -0.00000000000E+00 -0.74505805969E-08  0.93827000000E+00  0.93827000000E+00 0. -1.
     999902    2    1    2    0    0 -0.11905400677E-01  0.20971587216E-01  0.19891002249E-02  0.10197328399E+01  0.10194457133E+01 0.  0.
     999903    2    3    3    0    0  0.54831573618E-01 -0.10864315670E+00 -0.30495918763E-01  0.12714722385E+00  0.20653777100E-01 0.  0.
         14    1    1    2    0    0  0.11905400677E-01 -0.20971587216E-01 -0.19891002249E-02  0.24197160068E-01  0.00000000000E+00 0.  1.
     999901    1    3    3    0    0 -0.66736974295E-01  0.12961474392E+00  0.32485018988E-01  0.89258561608E+00  0.88000000000E+00 0.  1.
        -11    1    4    4    0    0  0.80644985298E-02 -0.20278183466E-01  0.22444006499E-02  0.21944004113E-01  0.51100000000E-03 0.  1.
         11    1    4    4    0    0  0.46767075088E-01 -0.88364973234E-01 -0.32740319413E-01  0.10520321974E+00  0.51100000000E-03 0. -1.
</event>
<event>
 8    1  0.1163913E+005  0.1043930E+01  0.7957747E-01            NaN
         13   -1    0    0    0    0  0.00000000000E+00  0.00000000000E+00  0.74505805969E-08  0.10566000000E+00  0.10566000000E+00 0. -1.
     999900   -1    0    0    0    0 -0.00000000000E+00 -0.00000000000E+00 -0.74505805969E-08  0.93827000000E+00  0.93827000000E+00 0.  1.
     999902    2    1    2    0    0  0.75927362645E-02 -0.14394198271E-01 -0.13283501999E-01  0.10229230009E+01  0.10227072756E+01 0.  0.
     999903    2    3    3    0    0 -0.35106278613E-01 -0.11314906133E+00  0.58240000814E-01  0.13348984411E+00  0.19811105672E-01 0.  0.
         14    1    1    2    0    0 -0.75927362645E-02  0.14394198271E-01  0.13283501999E-01  0.21006999148E-01  0.00000000000E+00 0. -1.
     999901    1    3    3    0    0  0.42699014878E-01  0.98754863063E-01 -0.71523502812E-01  0.88943315674E+00  0.88000000000E+00 0. -1.
        -11    1    4    4    0    0 -0.15174856133E-01 -0.62478291915E-01  0.41483420259E-01  0.76517635201E-01  0.51100000000E-03 0.  1.
         11    1    4    4    0    0 -0.19931422480E-01 -0.50670769419E-01  0.16756580554E-01  0.56972208913E-01  0.51100000000E-03 0. -1.
</event>
<event>
 8    1  0.1163913E+005  0.1043930E+01  0.7957747E-01            NaN
         13   -1    0    0    0    0  0.00000000000E+00  0.00000000000E+00  0.74505805969E-08  0.10566000000E+00  0.10566000000E+00 0. -1.
     999900   -1    0    0    0    0 -0.00000000000E+00 -0.00000000000E+00 -0.74505805969E-08  0.93827000000E+00  0.93827000000E+00 0.  1.
     999902    2    1    2    0    0  0.10796801783E-01 -0.20592483534E-01 -0.22428525724E-02  0.10205708113E+01  0.10203034496E+01 0.  0.
     999903    2    3    3    0    0 -0.11284032636E+00  0.57987688087E-01  0.13737131328E-02  0.12845307115E+00  0.20069707938E-01 0.  0.
         14    1    1    2    0    0 -0.10796801783E-01  0.20592483534E-01  0.22428525724E-02  0.23359188652E-01  0.00000000000E+00 0.  1.
     999901    1    3    3    0    0  0.12363712815E+00 -0.78580171621E-01 -0.36165657052E-02  0.89211774020E+00  0.88000000000E+00 0.  1.
        -11    1    4    4    0    0 -0.45252623312E-01  0.22422487033E-01  0.10338678369E-01  0.51553052604E-01  0.51100000000E-03 0. -1.
         11    1    4    4    0    0 -0.67587703050E-01  0.35565201055E-01 -0.89649652358E-02  0.76900018546E-01  0.51100000000E-03 0.  1.
</event>
<event>
 8    1  0.1163913E+005  0.1043930E+01  0.7957747E-01            NaN
         13   -1    0    0    0    0  0.00000000000E+00  0.00000000000E+00  0.74505805969E-08  0.10566000000E+00  0.10566000000E+00 0.  1.
     999900   -1    0    0    0    0 -0.00000000000E+00 -0.00000000000E+00 -0.74505805969E-08  0.93827000000E+00  0.93827000000E+00 0.  1.
     999902    2    1    2    0    0  0.13686489813E-02 -0.18107327017E-01  0.15821756198E-01  0.10198452235E+01  0.10195607894E+01 0.  0.
     999903    2    3    3    0    0  0.91281834593E-01  0.86986192514E-01  0.19236080626E-01  0.12903621677E+00  0.19528118839E-01 0.  0.
         14    1    1    2    0    0 -0.13686489813E-02  0.18107327017E-01 -0.15821756198E-01  0.24084776539E-01  0.00000000000E+00 0. -1.
     999901    1    3    3    0    0 -0.89913185612E-01 -0.10509351953E+00 -0.34143244275E-02  0.89080900669E+00  0.88000000000E+00 0. -1.
        -11    1    4    4    0    0  0.96992130643E-02  0.18934261328E-01  0.15812673633E-02  0.21338756140E-01  0.51100000000E-03 0.  1.
         11    1    4    4    0    0  0.81582621529E-01  0.68051931186E-01  0.17654813262E-01  0.10769746063E+00  0.51100000000E-03 0. -1.
</event>
<event>
 8    1  0.1163913E+005  0.1043930E+01  0.7957747E-01            NaN
         13   -1    0    0    0    0  0.00000000000E+00  0.00000000000E+00  0.74505805969E-08  0.10566000000E+00  0.10566000000E+00 0. -1.
     999900   -1    0    0    0    0 -0.00000000000E+00 -0.00000000000E+00 -0.74505805969E-08  0.93827000000E+00  0.93827000000E+00 0. -1.
     999902    2    1    2    0    0 -0.83036396222E-02 -0.35991768401E-02  0.21862625649E-01  0.10202682396E+01  0.10199938244E+01 0.  0.
     999903    2    3    3    0    0  0.99478826810E-01 -0.55569732448E-01 -0.56500657158E-01  0.12871969756E+00  0.19809193151E-01 0.  0.
         14    1    1    2    0    0  0.83036396222E-02  0.35991768401E-02 -0.21862625649E-01  0.23661760399E-01  0.00000000000E+00 0.  1.
     999901    1    3    3    0    0 -0.10778246643E+00  0.51970555608E-01  0.78363282807E-01  0.89154854204E+00  0.88000000000E+00 0.  1.
        -11    1    4    4    0    0  0.33081476312E-01 -0.91067545976E-02 -0.21100727482E-01  0.40284226138E-01  0.51100000000E-03 0. -1.
         11    1    4    4    0    0  0.66397350498E-01 -0.46462977850E-01 -0.35399929676E-01  0.88435471424E-01  0.51100000000E-03 0.  1.
</event>
<event>
 8    1  0.1163913E+005  0.1043930E+01  0.7957747E-01            NaN
         13   -1    0    0    0    0  0.00000000000E+00  0.00000000000E+00  0.74505805969E-08  0.10566000000E+00  0.10566000000E+00 0. -1.
     999900   -1    0    0    0    0 -0.00000000000E+00 -0.00000000000E+00 -0.74505805969E-08  0.93827000000E+00  0.93827000000E+00 0.  1.
     999902    2    1    2    0    0 -0.21220577934E-01 -0.95945575392E-02  0.35812018921E-02  0.10203674562E+01  0.10200953643E+01 0.  0.
     999903    2    3    3    0    0 -0.74614225541E-01 -0.83436197855E-01 -0.68483975919E-01  0.13273191204E+00  0.19970572100E-01 0.  0.
         14    1    1    2    0    0  0.21220577934E-01  0.95945575392E-02 -0.35812018921E-02  0.23562543776E-01  0.00000000000E+00 0. -1.
     999901    1    3    3    0    0  0.53393647608E-01  0.73841640316E-01  0.72065177811E-01  0.88763554419E+00  0.88000000000E+00 0. -1.
        -11    1    4    4    0    0 -0.50698328902E-01 -0.51117129371E-01 -0.53986302286E-01  0.89989240602E-01  0.51100000000E-03 0.  1.
         11    1    4    4    0    0 -0.23915896640E-01 -0.32319068484E-01 -0.14497673633E-01  0.42742671436E-01  0.51100000000E-03 0. -1.
</event>
<event>
 8    1  0.1163913E+005  0.1043930E+01  0.7957747E-01            NaN
         13   -1    0    0    0    0  0.00000000000E+00  0.00000000000E+00  0.74505805969E-08  0.10566000000E+00  0.10566000000E+00 0.  1.
     999900   -1    0    0    0    0 -0.00000000000E+00 -0.00000000000E+00 -0.74505805969E-08  0.93827000000E+00  0.93827000000E+00 0. -1.
     999902    2    1    2    0    0  0.22239795960E-01 -0.67233949400E-02  0.41832138965E-02  0.10203225469E+01  0.10200494046E+01 0.  0.
     999903    2    3    3    0    0  0.99639895360E-01  0.55226784356E-01  0.64839357198E-01  0.13268085802E+00  0.20541698688E-01 0.  0.
         14    1    1    2    0    0 -0.22239795960E-01  0.67233949400E-02 -0.41832138965E-02  0.23607453110E-01  0.00000000000E+00 0. -1.
     999901    1    3    3    0    0 -0.77400099401E-01 -0.61950179296E-01 -0.60656143301E-01  0.88764168887E+00  0.88000000000E+00 0. -1.
        -11    1    4    4    0    0  0.32041340140E-01  0.76491335317E-02  0.15482054877E-01  0.36402086012E-01  0.51100000000E-03 0.  1.
         11    1    4    4    0    0  0.67598555220E-01  0.47577650824E-01  0.49357302320E-01  0.96278772007E-01  0.51100000000E-03 0. -1.
</event>
<event>
 8    1  0.1163913E+005  0.1043930E+01  0.7957747E-01            NaN
         13   -1    0    0    0    0  0.00000000000E+00  0.00000000000E+00  0.74505805969E-08  0.10566000000E+00  0.10566000000E+00 0.  1.
     999900   -1    0    0    0    0 -0.00000000000E+00 -0.00000000000E+00 -0.74505805969E-08  0.93827000000E+00  0.93827000000E+00 0. -1.
     999902    2    1    2    0    0  0.75932649195E-02  0.56565697473E-02 -0.21614160434E-01  0.10203328310E+01  0.10200599294E+01 0.  0.
     999903    2    3    3    0    0  0.12207215632E-01 -0.20498429837E-01  0.12409810861E+00  0.12795542323E+00  0.20076056252E-01 0.  0.
         14    1    1    2    0    0 -0.75932649195E-02 -0.56565697473E-02  0.21614160434E-01  0.23597168998E-01  0.00000000000E+00 0.  1.
     999901    1    3    3    0    0 -0.46139507121E-02  0.26154999584E-01 -0.14571226905E+00  0.89237740777E+00  0.88000000000E+00 0. -1.
        -11    1    4    4    0    0  0.15498276892E-01 -0.15633398594E-01  0.66377706099E-01  0.69934689005E-01  0.51100000000E-03 0.  1.
         11    1    4    4    0    0 -0.32910612609E-02 -0.48650312429E-02  0.57720402513E-01  0.58020734229E-01  0.51100000000E-03 0. -1.
</event>
<event>
 8    1  0.1163913E+005  0.1043930E+01  0.7957747E-01            NaN
         13   -1    0    0    0    0  0.00000000000E+00  0.00000000000E+00  0.74505805969E-08  0.10566000000E+00  0.10566000000E+00 0. -1.
     999900   -1    0    0    0    0 -0.00000000000E+00 -0.00000000000E+00 -0.74505805969E-08  0.93827000000E+00  0.93827000000E+00 0. -1.
     999902    2    1    2    0    0 -0.60991509598E-03 -0.65090872546E-02 -0.25721593006E-01  0.10173905848E+01  0.10170443754E+01 0.  0.
     999903    2    3    3    0    0 -0.89086080774E-01  0.71047948958E-01 -0.56671652763E-01  0.12902071139E+00  0.21225618975E-01 0.  0.
         14    1    1    2    0    0  0.60991509598E-03  0.65090872546E-02  0.25721593006E-01  0.26539415218E-01  0.00000000000E+00 0. -1.
     999901    1    3    3    0    0  0.88476165678E-01 -0.77557036213E-01  0.30950059756E-01  0.88836987340E+00  0.88000000000E+00 0.  1.
        -11    1    4    4    0    0 -0.34232279689E-01  0.33666178785E-01 -0.13656555973E-01  0.49920168357E-01  0.51100000000E-03 0. -1.
         11    1    4    4    0    0 -0.54853801085E-01  0.37381770173E-01 -0.43015096789E-01  0.79100543030E-01  0.51100000000E-03 0.  1.
</event>
<event>
 8    1  0.1163913E+005  0.1043930E+01  0.7957747E-01            NaN
         13   -1    0    0    0    0  0.00000000000E+00  0.00000000000E+00  0.74505805969E-08  0.10566000000E+00  0.10566000000E+00 0.  1.
     999900   -1    0    0    0    0 -0.00000000000E+00 -0.00000000000E+00 -0.74505805969E-08  0.93827000000E+00  0.93827000000E+00 0.  1.
     999902    2    1    2    0    0 -0.90220605960E-02 -0.21698237449E-01 -0.64598154292E-02  0.10195591096E+01  0.10192677948E+01 0.  0.
     999903    2    3    3    0    0 -0.10323670746E+00 -0.39541664770E-01 -0.69066666757E-01  0.13213902559E+00  0.21660023283E-01 0.  0.
         14    1    1    2    0    0  0.90220605960E-02  0.21698237449E-01  0.64598154292E-02  0.24370890447E-01  0.00000000000E+00 0. -1.
     999901    1    3    3    0    0  0.94214646861E-01  0.17843427321E-01  0.62606851328E-01  0.88742008396E+00  0.88000000000E+00 0. -1.
        -11    1    4    4    0    0 -0.23113265087E-01 -0.92781032705E-02 -0.55882239942E-02  0.25530287732E-01  0.51100000000E-03 0. -1.
         11    1    4    4    0    0 -0.80123442370E-01 -0.30263561500E-01 -0.63478442763E-01  0.10660873786E+00  0.51100000000E-03 0.  1.
</event>
<event>
 8    1  0.1163913E+005  0.1043930E+01  0.7957747E-01            NaN
         13   -1    0    0    0    0  0.00000000000E+00  0.00000000000E+00  0.74505805969E-08  0.10566000000E+00  0.10566000000E+00 0. -1.
     999900   -1    0    0    0    0 -0.00000000000E+00 -0.00000000000E+00 -0.74505805969E-08  0.93827000000E+00  0.93827000000E+00 0. -1.
     999902    2    1    2    0    0 -0.89231414879E-02 -0.13177905361E-01 -0.22323276684E-01  0.10165145240E+01  0.10161447580E+01 0.  0.
     999903    2    3    3    0    0  0.99003443236E-01  0.71251598956E-01 -0.24142661485E-01  0.12590810190E+00  0.19786608934E-01 0.  0.
         14    1    1    2    0    0  0.89231414879E-02  0.13177905361E-01  0.22323276684E-01  0.27415476024E-01  0.00000000000E+00 0. -1.
     999901    1    3    3    0    0 -0.10792658472E+00 -0.84429504316E-01  0.18193848011E-02  0.89060642208E+00  0.88000000000E+00 0. -1.
        -11    1    4    4    0    0  0.23590994676E-01  0.73463144670E-02 -0.54315262454E-02  0.25303477319E-01  0.51100000000E-03 0. -1.
         11    1    4    4    0    0  0.75412448559E-01  0.63905284489E-01 -0.18711135240E-01  0.10060462458E+00  0.51100000000E-03 0.  1.
</event>
<event>
 8    1  0.1163913E+005  0.1043930E+01  0.7957747E-01            NaN
         13   -1    0    0    0    0  0.00000000000E+00  0.00000000000E+00  0.74505805969E-08  0.10566000000E+00  0.10566000000E+00 0. -1.
     999900   -1    0    0    0    0 -0.00000000000E+00 -0.00000000000E+00 -0.74505805969E-08  0.93827000000E+00  0.93827000000E+00 0.  1.
     999902    2    1    2    0    0 -0.23158598787E-01  0.55036484010E-02 -0.28070713746E-02  0.10199614687E+01  0.10196798062E+01 0.  0.
     999903    2    3    3    0    0 -0.88093897281E-01  0.96463626873E-01 -0.12860600341E-01  0.13283612009E+00  0.20353714966E-01 0.  0.
         14    1    1    2    0    0  0.23158598787E-01 -0.55036484010E-02  0.28070713746E-02  0.23968531311E-01  0.00000000000E+00 0. -1.
     999901    1    3    3    0    0  0.64935298494E-01 -0.90959978472E-01  0.10053528967E-01  0.88712534859E+00  0.88000000000E+00 0. -1.
        -11    1    4    4    0    0 -0.33079617498E-01  0.22985856405E-01 -0.66911520183E-02  0.40836788865E-01  0.51100000000E-03 0.  1.
         11    1    4    4    0    0 -0.55014279783E-01  0.73477770468E-01 -0.61694483228E-02  0.91999331229E-01  0.51100000000E-03 0. -1.
</event>
<event>
 8    1  0.1163913E+005  0.1043930E+01  0.7957747E-01            NaN
         13   -1    0    0    0    0  0.00000000000E+00  0.00000000000E+00  0.74505805969E-08  0.10566000000E+00  0.10566000000E+00 0.  1.
     999900   -1    0    0    0    0 -0.00000000000E+00 -0.00000000000E+00 -0.74505805969E-08  0.93827000000E+00  0.93827000000E+00 0. -1.
     999902    2    1    2    0    0  0.73586190064E-02  0.10616055327E-01  0.19117855680E-01  0.10208574555E+01  0.10205966893E+01 0.  0.
     999903    2    3    3    0    0 -0.67209174500E-01 -0.10845435196E+00  0.10738207593E-01  0.12967378406E+00  0.20507597961E-01 0.  0.
         14    1    1    2    0    0 -0.73586190064E-02 -0.10616055327E-01 -0.19117855680E-01  0.23072544511E-01  0.00000000000E+00 0. -1.
     999901    1    3    3    0    0  0.74567793507E-01  0.11907040729E+00  0.83796480876E-02  0.89118367143E+00  0.88000000000E+00 0.  1.
        -11    1    4    4    0    0 -0.28438399377E-01 -0.27980181770E-01  0.36194437183E-02  0.40062384163E-01  0.51100000000E-03 0.  1.
         11    1    4    4    0    0 -0.38770775124E-01 -0.80474170190E-01  0.71187638745E-02  0.89611399898E-01  0.51100000000E-03 0. -1.
</event>
<event>
 8    1  0.1163913E+005  0.1043930E+01  0.7957747E-01            NaN
         13   -1    0    0    0    0  0.00000000000E+00  0.00000000000E+00  0.74505805969E-08  0.10566000000E+00  0.10566000000E+00 0.  1.
     999900   -1    0    0    0    0 -0.00000000000E+00 -0.00000000000E+00 -0.74505805969E-08  0.93827000000E+00  0.93827000000E+00 0. -1.
     999902    2    1    2    0    0 -0.69496872592E-02 -0.91604456674E-02 -0.19858238582E-01  0.10209830709E+01  0.10207251684E+01 0.  0.
     999903    2    3    3    0    0 -0.11462908767E+00 -0.63995033973E-01  0.33967214636E-02  0.13242104234E+00  0.16988308454E-01 0.  0.
         14    1    1    2    0    0  0.69496872592E-02  0.91604456674E-02  0.19858238582E-01  0.22946929150E-01  0.00000000000E+00 0.  1.
     999901    1    3    3    0    0  0.10767940041E+00  0.54834588306E-01 -0.23254960046E-01  0.88856202851E+00  0.88000000000E+00 0.  1.
        -11    1    4    4    0    0 -0.41844864635E-01 -0.21354100042E-01 -0.67211736854E-02  0.47459725891E-01  0.51100000000E-03 0. -1.
         11    1    4    4    0    0 -0.72784223033E-01 -0.42640933931E-01  0.10117895149E-01  0.84961316446E-01  0.51100000000E-03 0.  1.
</event>
<event>
 8    1  0.1163913E+005  0.1043930E+01  0.7957747E-01            NaN
         13   -1    0    0    0    0  0.00000000000E+00  0.00000000000E+00  0.74505805969E-08  0.10566000000E+00  0.10566000000E+00 0. -1.
     999900   -1    0    0    0    0 -0.00000000000E+00 -0.00000000000E+00 -0.74505805969E-08  0.93827000000E+00  0.93827000000E+00 0. -1.
     999902    2    1    2    0    0  0.19048161240E-01  0.26001033123E-02 -0.14294200982E-01  0.10199734317E+01  0.10196920536E+01 0.  0.
     999903    2    3    3    0    0  0.89648756758E-01 -0.80135804236E-01  0.48993736411E-01  0.13102178086E+00  0.17540642588E-01 0.  0.
         14    1    1    2    0    0 -0.19048161240E-01 -0.26001033123E-02  0.14294200982E-01  0.23956568318E-01  0.00000000000E+00 0. -1.
     999901    1    3    3    0    0 -0.70600595518E-01  0.82735907549E-01 -0.63287937393E-01  0.88895165083E+00  0.88000000000E+00 0.  1.
        -11    1    4    4    0    0  0.36329853431E-01 -0.42449799194E-01  0.27530365496E-01  0.62289853486E-01  0.51100000000E-03 0.  1.
         11    1    4    4    0    0  0.53318903327E-01 -0.37686005043E-01  0.21463370914E-01  0.68731927371E-01  0.51100000000E-03 0. -1.
</event>
<event>
 8    1  0.1163913E+005  0.1043930E+01  0.7957747E-01            NaN
         13   -1    0    0    0    0  0.00000000000E+00  0.00000000000E+00  0.74505805969E-08  0.10566000000E+00  0.10566000000E+00 0.  1.
     999900   -1    0    0    0    0 -0.00000000000E+00 -0.00000000000E+00 -0.74505805969E-08  0.93827000000E+00  0.93827000000E+00 0. -1.
     999902    2    1    2    0    0 -0.11575188634E-01 -0.17647685390E-01 -0.13168703395E-01  0.10190534942E+01  0.10187498140E+01 0.  0.
     999903    2    3    3    0    0 -0.72799556778E-01 -0.10779856448E+00 -0.11221708965E-01  0.13232952642E+00  0.21560863599E-01 0.  0.
         14    1    1    2    0    0  0.11575188634E-01  0.17647685390E-01  0.13168703395E-01  0.24876505797E-01  0.00000000000E+00 0.  1.
     999901    1    3    3    0    0  0.61224368143E-01  0.90150879090E-01 -0.19469944301E-02  0.88672396778E+00  0.88000000000E+00 0.  1.
        -11    1    4    4    0    0 -0.49753078229E-01 -0.54775150966E-01 -0.47747221419E-02  0.74153523512E-01  0.51100000000E-03 0. -1.
         11    1    4    4    0    0 -0.23046478548E-01 -0.53023413514E-01 -0.64469868233E-02  0.58176002908E-01  0.51100000000E-03 0.  1.
</event>
<event>
 8    1  0.1163913E+005  0.1043930E+01  0.7957747E-01            NaN
         13   -1    0    0    0    0  0.00000000000E+00  0.00000000000E+00  0.74505805969E-08  0.10566000000E+00  0.10566000000E+00 0. -1.
     999900   -1    0    0    0    0 -0.00000000000E+00 -0.00000000000E+00 -0.74505805969E-08  0.93827000000E+00  0.93827000000E+00 0.  1.
     999902    2    1    2    0    0  0.23510524800E-01  0.52781897911E-02 -0.27811276967E-02  0.10196743051E+01  0.10193857708E+01 0.  0.
     999903    2    3    3    0    0  0.49031752450E-01 -0.11297449476E+00 -0.38879036526E-01  0.13066469352E+00  0.19857830580E-01 0.  0.
         14    1    1    2    0    0 -0.23510524800E-01 -0.52781897911E-02  0.27811276967E-02  0.24255694900E-01  0.00000000000E+00 0. -1.
     999901    1    3    3    0    0 -0.25521227650E-01  0.11825268455E+00  0.36097908829E-01  0.88900961158E+00  0.88000000000E+00 0. -1.
        -11    1    4    4    0    0  0.14430476858E-01 -0.35267626473E-01 -0.21797869297E-01  0.43902760349E-01  0.51100000000E-03 0.  1.
         11    1    4    4    0    0  0.34601275592E-01 -0.77706868291E-01 -0.17081167229E-01  0.86761933168E-01  0.51100000000E-03 0. -1.
</event>
<event>
 8    1  0.1163913E+005  0.1043930E+01  0.7957747E-01            NaN
         13   -1    0    0    0    0  0.00000000000E+00  0.00000000000E+00  0.74505805969E-08  0.10566000000E+00  0.10566000000E+00 0.  1.
     999900   -1    0    0    0    0 -0.00000000000E+00 -0.00000000000E+00 -0.74505805969E-08  0.93827000000E+00  0.93827000000E+00 0. -1.
     999902    2    1    2    0    0  0.18492017094E-01  0.36087953783E-02  0.14524722711E-01  0.10201403873E+01  0.10198629635E+01 0.  0.
     999903    2    3    3    0    0 -0.62847134812E-01  0.96860610334E-01  0.57337816302E-01  0.13045228492E+00  0.19960793407E-01 0.  0.
         14    1    1    2    0    0 -0.18492017094E-01 -0.36087953783E-02 -0.14524722711E-01  0.23789612652E-01  0.00000000000E+00 0. -1.
     999901    1    3    3    0    0  0.81339151905E-01 -0.93251814956E-01 -0.42813093590E-01  0.88968810243E+00  0.88000000000E+00 0.  1.
        -11    1    4    4    0    0 -0.90689882682E-02  0.10851226663E-01  0.14734747523E-01  0.20429624908E-01  0.51100000000E-03 0.  1.
         11    1    4    4    0    0 -0.53778146543E-01  0.86009383671E-01  0.42603068779E-01  0.11002266001E+00  0.51100000000E-03 0. -1.
</event>
<event>
 8    1  0.1163913E+005  0.1043930E+01  0.7957747E-01            NaN
         13   -1    0    0    0    0  0.00000000000E+00  0.00000000000E+00  0.74505805969E-08  0.10566000000E+00  0.10566000000E+00 0.  1.
     999900   -1    0    0    0    0 -0.00000000000E+00 -0.00000000000E+00 -0.74505805969E-08  0.93827000000E+00  0.93827000000E+00 0.  1.
     999902    2    1    2    0    0  0.46867964172E-02 -0.17937251686E-01 -0.13262743055E-01  0.10211350134E+01  0.10208805534E+01 0.  0.
     999903    2    3    3    0    0  0.12789127619E+00 -0.21733390704E-01 -0.21570426111E-01  0.13250529748E+00  0.16243515020E-01 0.  0.
         14    1    1    2    0    0 -0.46867964172E-02  0.17937251686E-01  0.13262743055E-01  0.22794986555E-01  0.00000000000E+00 0.  1.
     999901    1    3    3    0    0 -0.12320447977E+00  0.37961390187E-02  0.83076830558E-02  0.88862971597E+00  0.88000000000E+00 0.  1.
        -11    1    4    4    0    0  0.94339732560E-01 -0.12046129313E-01 -0.96235342969E-02  0.95592718887E-01  0.51100000000E-03 0. -1.
         11    1    4    4    0    0  0.33551543627E-01 -0.96872613907E-02 -0.11946891814E-01  0.36912578588E-01  0.51100000000E-03 0.  1.
</event>
<event>
 8    1  0.1163913E+005  0.1043930E+01  0.7957747E-01            NaN
         13   -1    0    0    0    0  0.00000000000E+00  0.00000000000E+00  0.74505805969E-08  0.10566000000E+00  0.10566000000E+00 0.  1.
     999900   -1    0    0    0    0 -0.00000000000E+00 -0.00000000000E+00 -0.74505805969E-08  0.93827000000E+00  0.93827000000E+00 0.  1.
     999902    2    1    2    0    0 -0.49631287935E-02  0.12273329400E-01  0.19672980183E-01  0.10202172732E+01  0.10199416607E+01 0.  0.
     999903    2    3    3    0    0  0.68945748791E-01  0.80208797528E-01  0.76953564494E-01  0.13265949180E+00  0.22129667873E-01 0.  0.
         14    1    1    2    0    0  0.49631287935E-02 -0.12273329400E-01 -0.19672980183E-01  0.23712726778E-01  0.00000000000E+00 0. -1.
     999901    1    3    3    0    0 -0.73908877584E-01 -0.67935468128E-01 -0.57280584311E-01  0.88755778142E+00  0.88000000000E+00 0.  1.
        -11    1    4    4    0    0  0.54934641708E-01  0.49965214265E-01  0.58663490473E-01  0.94636165030E-01  0.51100000000E-03 0. -1.
         11    1    4    4    0    0  0.14011107083E-01  0.30243583263E-01  0.18290074021E-01  0.38023326774E-01  0.51100000000E-03 0.  1.
</event>
<event>
 8    1  0.1163913E+005  0.1043930E+01  0.7957747E-01            NaN
         13   -1    0    0    0    0  0.00000000000E+00  0.00000000000E+00  0.74505805969E-08  0.10566000000E+00  0.10566000000E+00 0. -1.
     999900   -1    0    0    0    0 -0.00000000000E+00 -0.00000000000E+00 -0.74505805969E-08  0.93827000000E+00  0.93827000000E+00 0.  1.
     999902    2    1    2    0    0 -0.11817256952E-01  0.14754876008E-01  0.12097578624E-01  0.10214866193E+01  0.10212400345E+01 0.  0.
     999903    2    3    3    0    0 -0.36520184376E-01 -0.11850847429E+00 -0.33452519948E-01  0.12994628561E+00  0.19722669882E-01 0.  0.
         14    1    1    2    0    0  0.11817256952E-01 -0.14754876008E-01 -0.12097578624E-01  0.22443380681E-01  0.00000000000E+00 0.  1.
     999901    1    3    3    0    0  0.24702927424E-01  0.13326335030E+00  0.45550098572E-01  0.89154033371E+00  0.88000000000E+00 0.  1.
        -11    1    4    4    0    0 -0.57539282369E-02 -0.46503453809E-01 -0.17577647188E-01  0.50049112959E-01  0.51100000000E-03 0. -1.
         11    1    4    4    0    0 -0.30766256139E-01 -0.72005020479E-01 -0.15874872760E-01  0.79897172648E-01  0.51100000000E-03 0.  1.
</event>
<event>
 8    1  0.1163913E+005  0.1043930E+01  0.7957747E-01            NaN
         13   -1    0    0    0    0  0.00000000000E+00  0.00000000000E+00  0.74505805969E-08  0.10566000000E+00  0.10566000000E+00 0.  1.
     999900   -1    0    0    0    0 -0.00000000000E+00 -0.00000000000E+00 -0.74505805969E-08  0.93827000000E+00  0.93827000000E+00 0.  1.
     999902    2    1    2    0    0 -0.19333008452E-01 -0.62223503592E-02 -0.12508893339E-01  0.10200772167E+01  0.10197983000E+01 0.  0.
     999903    2    3    3    0    0  0.62069811562E-01 -0.60148386310E-02  0.10993785974E+00  0.12787787263E+00  0.19431353896E-01 0.  0.
         14    1    1    2    0    0  0.19333008452E-01  0.62223503592E-02  0.12508893339E-01  0.23852783326E-01  0.00000000000E+00 0. -1.
     999901    1    3    3    0    0 -0.81402820014E-01 -0.20751172823E-03 -0.12244675308E+00  0.89219934404E+00  0.88000000000E+00 0.  1.
        -11    1    4    4    0    0  0.30066136425E-01 -0.10740711579E-01  0.65938414805E-01  0.73263026915E-01  0.51100000000E-03 0.  1.
         11    1    4    4    0    0  0.32003675136E-01  0.47258729478E-02  0.43999444934E-01  0.54614845718E-01  0.51100000000E-03 0. -1.
</event>
<event>
 8    1  0.1163913E+005  0.1043930E+01  0.7957747E-01            NaN
         13   -1    0    0    0    0  0.00000000000E+00  0.00000000000E+00  0.74505805969E-08  0.10566000000E+00  0.10566000000E+00 0. -1.
     999900   -1    0    0    0    0 -0.00000000000E+00 -0.00000000000E+00 -0.74505805969E-08  0.93827000000E+00  0.93827000000E+00 0. -1.
     999902    2    1    2    0    0  0.16084656669E-02 -0.10669231538E-01 -0.20942831639E-01  0.10203710981E+01  0.10200990912E+01 0.  0.
     999903    2    3    3    0    0 -0.45309032958E-01 -0.11492606349E+00 -0.44403152781E-01  0.13266555828E+00  0.19172945581E-01 0.  0.
         14    1    1    2    0    0 -0.16084656669E-02  0.10669231538E-01  0.20942831639E-01  0.23558901937E-01  0.00000000000E+00 0. -1.
     999901    1    3    3    0    0  0.46917498625E-01  0.10425683195E+00  0.23460321141E-01  0.88770553978E+00  0.88000000000E+00 0.  1.
        -11    1    4    4    0    0 -0.29556972543E-01 -0.49926426042E-01 -0.23394772778E-01  0.62560683801E-01  0.51100000000E-03 0. -1.
         11    1    4    4    0    0 -0.15752060415E-01 -0.64999637443E-01 -0.21008380002E-01  0.70104874484E-01  0.51100000000E-03 0.  1.
</event>
<event>
 8    1  0.1163913E+005  0.1043930E+01  0.7957747E-01            NaN
         13   -1    0    0    0    0  0.00000000000E+00  0.00000000000E+00  0.74505805969E-08  0.10566000000E+00  0.10566000000E+00 0.  1.
     999900   -1    0    0    0    0 -0.00000000000E+00 -0.00000000000E+00 -0.74505805969E-08  0.93827000000E+00  0.93827000000E+00 0. -1.
     999902    2    1    2    0    0  0.18512377922E-02 -0.84380537170E-02  0.27042118085E-01  0.10155415520E+01  0.10151446891E+01 0.  0.
     999903    2    3    3    0    0 -0.62045567584E-01 -0.10789351327E+00 -0.12636068497E-01  0.12675105433E+00  0.20383740718E-01 0.  0.
         14    1    1    2    0    0 -0.18512377922E-02  0.84380537170E-02 -0.27042118085E-01  0.28388448046E-01  0.00000000000E+00 0. -1.
     999901    1    3    3    0    0  0.63896805376E-01  0.99455459550E-01  0.39678186582E-01  0.88879049762E+00  0.88000000000E+00 0.  1.
        -11    1    4    4    0    0 -0.40552936975E-01 -0.51487414887E-01 -0.28952261231E-02  0.65605929949E-01  0.51100000000E-03 0.  1.
         11    1    4    4    0    0 -0.21492630609E-01 -0.56406098379E-01 -0.97408423737E-02  0.61145124384E-01  0.51100000000E-03 0. -1.
</event>
<event>
 8    1  0.1163913E+005  0.1043930E+01  0.7957747E-01            NaN
         13   -1    0    0    0    0  0.00000000000E+00  0.00000000000E+00  0.74505805969E-08  0.10566000000E+00  0.10566000000E+00 0. -1.
     999900   -1    0    0    0    0 -0.00000000000E+00 -0.00000000000E+00 -0.74505805969E-08  0.93827000000E+00  0.93827000000E+00 0.  1.
     999902    2    1    2    0    0 -0.46325419723E-02 -0.19554335244E-01  0.13204776265E-01  0.10198842397E+01  0.10196007375E+01 0.  0.
     999903    2    3    3    0    0  0.17033100838E-01 -0.12959206292E+00  0.12361876250E-01  0.13276620242E+00  0.19743840153E-01 0.  0.
         14    1    1    2    0    0  0.46325419723E-02  0.19554335244E-01 -0.13204776265E-01  0.24045760296E-01  0.00000000000E+00 0.  1.
     999901    1    3    3    0    0 -0.21665642810E-01  0.11003772768E+00  0.84290001596E-03  0.88711803728E+00  0.88000000000E+00 0.  1.
        -11    1    4    4    0    0  0.20788476036E-01 -0.87952598697E-01  0.82972278010E-02  0.90757509131E-01  0.51100000000E-03 0.  1.
         11    1    4    4    0    0 -0.37553751981E-02 -0.41639464227E-01  0.40646484485E-02  0.42008693291E-01  0.51100000000E-03 0. -1.
</event>
<event>
 8    1  0.1163913E+005  0.1043930E+01  0.7957747E-01            NaN
         13   -1    0    0    0    0  0.00000000000E+00  0.00000000000E+00  0.74505805969E-08  0.10566000000E+00  0.10566000000E+00 0. -1.
     999900   -1    0    0    0    0 -0.00000000000E+00 -0.00000000000E+00 -0.74505805969E-08  0.93827000000E+00  0.93827000000E+00 0. -1.
     999902    2    1    2    0    0 -0.89399945248E-02 -0.65891217435E-02 -0.21639499111E-01  0.10196070078E+01  0.10193168508E+01 0.  0.
     999903    2    3    3    0    0 -0.81062043025E-02  0.36456497533E-01  0.12010279497E+00  0.12722564400E+00  0.19154539129E-01 0.  0.
         14    1    1    2    0    0  0.89399945248E-02  0.65891217435E-02  0.21639499111E-01  0.24322992194E-01  0.00000000000E+00 0. -1.
     999901    1    3    3    0    0 -0.83379022229E-03 -0.43045619277E-01 -0.14174229408E+00  0.89238136381E+00  0.88000000000E+00 0. -1.
        -11    1    4    4    0    0 -0.12381277721E-01  0.14889617582E-01  0.45585357706E-01  0.49530623941E-01  0.51100000000E-03 0.  1.
         11    1    4    4    0    0  0.42750734187E-02  0.21566879951E-01  0.74517437266E-01  0.77695020055E-01  0.51100000000E-03 0. -1.
</event>
<event>
 8    1  0.1163913E+005  0.1043930E+01  0.7957747E-01            NaN
         13   -1    0    0    0    0  0.00000000000E+00  0.00000000000E+00  0.74505805969E-08  0.10566000000E+00  0.10566000000E+00 0. -1.
     999900   -1    0    0    0    0 -0.00000000000E+00 -0.00000000000E+00 -0.74505805969E-08  0.93827000000E+00  0.93827000000E+00 0.  1.
     999902    2    1    2    0    0 -0.98532427135E-02 -0.82904110551E-02  0.19551609716E-01  0.10205188328E+01  0.10202502660E+01 0.  0.
     999903    2    3    3    0    0 -0.46016152720E-01 -0.49289131521E-02 -0.11892953360E+00  0.12894938358E+00  0.18491324103E-01 0.  0.
         14    1    1    2    0    0  0.98532427135E-02  0.82904110551E-02 -0.19551609716E-01  0.23411167205E-01  0.00000000000E+00 0.  1.
     999901    1    3    3    0    0  0.36162910007E-01 -0.33614979030E-02  0.13848114331E+00  0.89156944922E+00  0.88000000000E+00 0. -1.
        -11    1    4    4    0    0 -0.21194916788E-01  0.11837917777E-02 -0.32537143370E-01  0.38852962310E-01  0.51100000000E-03 0. -1.
         11    1    4    4    0    0 -0.24821235932E-01 -0.61127049297E-02 -0.86392390226E-01  0.90096421265E-01  0.51100000000E-03 0.  1.
</event>
<event>
 8    1  0.1163913E+005  0.1043930E+01  0.7957747E-01            NaN
         13   -1    0    0    0    0  0.00000000000E+00  0.00000000000E+00  0.74505805969E-08  0.10566000000E+00  0.10566000000E+00 0.  1.
     999900   -1    0    0    0    0 -0.00000000000E+00 -0.00000000000E+00 -0.74505805969E-08  0.93827000000E+00  0.93827000000E+00 0.  1.
     999902    2    1    2    0    0 -0.23087984233E-01  0.28788601294E-02  0.10747575012E-02  0.10206384145E+01  0.10203726159E+01 0.  0.
     999903    2    3    3    0    0 -0.62774782048E-01 -0.13794110216E-01 -0.11418775328E+00  0.13207863809E+00  0.16582306908E-01 0.  0.
         14    1    1    2    0    0  0.23087984233E-01 -0.28788601294E-02 -0.10747575012E-02  0.23291585503E-01  0.00000000000E+00 0.  1.
     999901    1    3    3    0    0  0.39686797815E-01  0.16672970345E-01  0.11526251078E+00  0.88855977641E+00  0.88000000000E+00 0. -1.
        -11    1    4    4    0    0 -0.20433631514E-01 -0.12257973321E-01 -0.45740790115E-01  0.51577826710E-01  0.51100000000E-03 0. -1.
         11    1    4    4    0    0 -0.42341150534E-01 -0.15361368953E-02 -0.68446963164E-01  0.80500811377E-01  0.51100000000E-03 0.  1.
</event>
<event>
 8    1  0.1163913E+005  0.1043930E+01  0.7957747E-01            NaN
         13   -1    0    0    0    0  0.00000000000E+00  0.00000000000E+00  0.74505805969E-08  0.10566000000E+00  0.10566000000E+00 0.  1.
     999900   -1    0    0    0    0 -0.00000000000E+00 -0.00000000000E+00 -0.74505805969E-08  0.93827000000E+00  0.93827000000E+00 0.  1.
     999902    2    1    2    0    0  0.26217410330E-02  0.40012677610E-03  0.23036971600E-01  0.10207408713E+01  0.10204774327E+01 0.  0.
     999903    2    3    3    0    0 -0.57846987072E-01  0.13645633309E-02 -0.11274435826E+00  0.12827576460E+00  0.19880782629E-01 0.  0.
         14    1    1    2    0    0 -0.26217410330E-02 -0.40012677610E-03 -0.23036971600E-01  0.23189128659E-01  0.00000000000E+00 0. -1.
     999901    1    3    3    0    0  0.60468728105E-01 -0.96443655481E-03  0.13578132986E+00  0.89246510674E+00  0.88000000000E+00 0. -1.
        -11    1    4    4    0    0 -0.18085515449E-01  0.50496177199E-02 -0.54576176139E-01  0.57718321452E-01  0.51100000000E-03 0. -1.
         11    1    4    4    0    0 -0.39761471622E-01 -0.36850543890E-02 -0.58168182118E-01  0.70557443146E-01  0.51100000000E-03 0.  1.
</event>
<event>
 8    1  0.1163913E+005  0.1043930E+01  0.7957747E-01            NaN
         13   -1    0    0    0    0  0.00000000000E+00  0.00000000000E+00  0.74505805969E-08  0.10566000000E+00  0.10566000000E+00 0. -1.
     999900   -1    0    0    0    0 -0.00000000000E+00 -0.00000000000E+00 -0.74505805969E-08  0.93827000000E+00  0.93827000000E+00 0.  1.
     999902    2    1    2    0    0 -0.10922564497E-01  0.20459116540E-01 -0.76630135122E-02  0.10195046107E+01  0.10192119758E+01 0.  0.
     999903    2    3    3    0    0 -0.78701880195E-01  0.40830039535E-01 -0.96038286416E-01  0.13225087081E+00  0.20146024381E-01 0.  0.
         14    1    1    2    0    0  0.10922564497E-01 -0.20459116540E-01  0.76630135122E-02  0.24425389268E-01  0.00000000000E+00 0. -1.
     999901    1    3    3    0    0  0.67779315697E-01 -0.20370922995E-01  0.88375272904E-01  0.88725373992E+00  0.88000000000E+00 0. -1.
        -11    1    4    4    0    0 -0.44471342227E-01  0.17917921292E-01 -0.38529865162E-01  0.61510680482E-01  0.51100000000E-03 0. -1.
         11    1    4    4    0    0 -0.34230537967E-01  0.22912118243E-01 -0.57508421254E-01  0.70740190331E-01  0.51100000000E-03 0.  1.
</event>
<event>
 8    1  0.1163913E+005  0.1043930E+01  0.7957747E-01            NaN
         13   -1    0    0    0    0  0.00000000000E+00  0.00000000000E+00  0.74505805969E-08  0.10566000000E+00  0.10566000000E+00 0.  1.
     999900   -1    0    0    0    0 -0.00000000000E+00 -0.00000000000E+00 -0.74505805969E-08  0.93827000000E+00  0.93827000000E+00 0.  1.
     999902    2    1    2    0    0 -0.23352256582E-02 -0.20659857935E-01  0.11485219141E-01  0.10201772472E+01  0.10199006924E+01 0.  0.
     999903    2    3    3    0    0 -0.52053208977E-01  0.34719770817E-01  0.11353640665E+00  0.13115912247E+00  0.19929895207E-01 0.  0.
         14    1    1    2    0    0  0.23352256582E-02  0.20659857935E-01 -0.11485219141E-01  0.23752752840E-01  0.00000000000E+00 0. -1.
     999901    1    3    3    0    0  0.49717983319E-01 -0.55379628752E-01 -0.10205118751E+00  0.88901812468E+00  0.88000000000E+00 0.  1.
        -11    1    4    4    0    0 -0.26472747109E-01  0.20783867406E-01  0.79646413562E-01  0.86467264315E-01  0.51100000000E-03 0. -1.
         11    1    4    4    0    0 -0.25580461868E-01  0.13935903411E-01  0.33889993088E-01  0.44691858160E-01  0.51100000000E-03 0.  1.
</event>
<event>
 8    1  0.1163913E+005  0.1043930E+01  0.7957747E-01            NaN
         13   -1    0    0    0    0  0.00000000000E+00  0.00000000000E+00  0.74505805969E-08  0.10566000000E+00  0.10566000000E+00 0. -1.
     999900   -1    0    0    0    0 -0.00000000000E+00 -0.00000000000E+00 -0.74505805969E-08  0.93827000000E+00  0.93827000000E+00 0.  1.
     999902    2    1    2    0    0 -0.34845101174E-02  0.17213508640E-01  0.16499423528E-01  0.10198327456E+01  0.10195480133E+01 0.  0.
     999903    2    3    3    0    0 -0.51553913888E-01 -0.11269165187E+00  0.29441452541E-01  0.12890428925E+00  0.19806620619E-01 0.  0.
         14    1    1    2    0    0  0.34845101174E-02 -0.17213508640E-01 -0.16499423528E-01  0.24097254350E-01  0.00000000000E+00 0.  1.
     999901    1    3    3    0    0  0.48069403771E-01  0.12990516051E+00 -0.12942029013E-01  0.89092845640E+00  0.88000000000E+00 0. -1.
        -11    1    4    4    0    0 -0.42985076779E-01 -0.75679014190E-01  0.15344449778E-01  0.88378409549E-01  0.51100000000E-03 0. -1.
         11    1    4    4    0    0 -0.85688371094E-02 -0.37012637683E-01  0.14097002763E-01  0.40525879701E-01  0.51100000000E-03 0.  1.
</event>
<event>
 8    1  0.1163913E+005  0.1043930E+01  0.7957747E-01            NaN
         13   -1    0    0    0    0  0.00000000000E+00  0.00000000000E+00  0.74505805969E-08  0.10566000000E+00  0.10566000000E+00 0.  1.
     999900   -1    0    0    0    0 -0.00000000000E+00 -0.00000000000E+00 -0.74505805969E-08  0.93827000000E+00  0.93827000000E+00 0. -1.
     999902    2    1    2    0    0 -0.93748845014E-02  0.19398248493E-01  0.80619327494E-02  0.10209261902E+01  0.10206669930E+01 0.  0.
     999903    2    3    3    0    0  0.14900630322E-01  0.71945570376E-01  0.10917242391E+00  0.13324727696E+00  0.20929041853E-01 0.  0.
         14    1    1    2    0    0  0.93748845014E-02 -0.19398248493E-01 -0.80619327494E-02  0.23003809764E-01  0.00000000000E+00 0.  1.
     999901    1    3    3    0    0 -0.24275514823E-01 -0.52547321883E-01 -0.10111049116E+00  0.88767891328E+00  0.88000000000E+00 0. -1.
        -11    1    4    4    0    0  0.13313872084E-01  0.34253980338E-01  0.39093592485E-01  0.53657846148E-01  0.51100000000E-03 0.  1.
         11    1    4    4    0    0  0.15867582378E-02  0.37691590038E-01  0.70078831427E-01  0.79589430809E-01  0.51100000000E-03 0. -1.
</event>
<event>
 8    1  0.1163913E+005  0.1043930E+01  0.7957747E-01            NaN
         13   -1    0    0    0    0  0.00000000000E+00  0.00000000000E+00  0.74505805969E-08  0.10566000000E+00  0.10566000000E+00 0. -1.
     999900   -1    0    0    0    0 -0.00000000000E+00 -0.00000000000E+00 -0.74505805969E-08  0.93827000000E+00  0.93827000000E+00 0. -1.
     999902    2    1    2    0    0 -0.77356655280E-03 -0.35311982930E-02  0.23456188720E-01  0.10201968890E+01  0.10199207969E+01 0.  0.
     999903    2    3    3    0    0 -0.75626016000E-01 -0.89624909618E-01  0.57897071684E-01  0.13216468763E+00  0.19066070049E-01 0.  0.
         14    1    1    2    0    0  0.77356655280E-03  0.35311982930E-02 -0.23456188720E-01  0.23733110961E-01  0.00000000000E+00 0.  1.
     999901    1    3    3    0    0  0.74852449447E-01  0.86093711324E-01 -0.34440882964E-01  0.88803220141E+00  0.88000000000E+00 0. -1.
        -11    1    4    4    0    0 -0.18510939960E-01 -0.33007073059E-01  0.12757687683E-01  0.39939222403E-01  0.51100000000E-03 0. -1.
         11    1    4    4    0    0 -0.57115076040E-01 -0.56617836558E-01  0.45139384001E-01  0.92225465228E-01  0.51100000000E-03 0.  1.
</event>
<event>
 8    1  0.1163913E+005  0.1043930E+01  0.7957747E-01            NaN
         13   -1    0    0    0    0  0.00000000000E+00  0.00000000000E+00  0.74505805969E-08  0.10566000000E+00  0.10566000000E+00 0. -1.
     999900   -1    0    0    0    0 -0.00000000000E+00 -0.00000000000E+00 -0.74505805969E-08  0.93827000000E+00  0.93827000000E+00 0.  1.
     999902    2    1    2    0    0 -0.21410782913E-01  0.83542623294E-02  0.55827218589E-02  0.10202787398E+01  0.10200045710E+01 0.  0.
     999903    2    3    3    0    0 -0.75089399581E-01 -0.76728064702E-01  0.74102535972E-01  0.13190080158E+00  0.19519779113E-01 0.  0.
         14    1    1    2    0    0  0.21410782913E-01 -0.83542623294E-02 -0.55827218589E-02  0.23651260164E-01  0.00000000000E+00 0.  1.
     999901    1    3    3    0    0  0.53678616668E-01  0.85082327031E-01 -0.68519814113E-01  0.88837793826E+00  0.88000000000E+00 0.  1.
        -11    1    4    4    0    0 -0.60815497873E-01 -0.50484025818E-01  0.50169726688E-01  0.93618503733E-01  0.51100000000E-03 0. -1.
         11    1    4    4    0    0 -0.14273901708E-01 -0.26244038884E-01  0.23932809283E-01  0.38282297843E-01  0.51100000000E-03 0.  1.
</event>
<event>
 8    1  0.1163913E+005  0.1043930E+01  0.7957747E-01            NaN
         13   -1    0    0    0    0  0.00000000000E+00  0.00000000000E+00  0.74505805969E-08  0.10566000000E+00  0.10566000000E+00 0. -1.
     999900   -1    0    0    0    0 -0.00000000000E+00 -0.00000000000E+00 -0.74505805969E-08  0.93827000000E+00  0.93827000000E+00 0. -1.
     999902    2    1    2    0    0  0.20878372502E-01  0.39241834277E-05  0.12111884791E-01  0.10197928045E+01  0.10195071162E+01 0.  0.
     999903    2    3    3    0    0  0.29930488590E-01  0.92086853476E-01 -0.84183319919E-01  0.12971754188E+00  0.19078432527E-01 0.  0.
         14    1    1    2    0    0 -0.20878372502E-01 -0.39241834277E-05 -0.12111884791E-01  0.24137195507E-01  0.00000000000E+00 0.  1.
     999901    1    3    3    0    0 -0.90521160881E-02 -0.92082929292E-01  0.96295204710E-01  0.89007526262E+00  0.88000000000E+00 0.  1.
        -11    1    4    4    0    0  0.28438597434E-01  0.66215204331E-01 -0.68473377240E-01  0.99408609387E-01  0.51100000000E-03 0. -1.
         11    1    4    4    0    0  0.14918911561E-02  0.25871649145E-01 -0.15709942678E-01  0.30308932489E-01  0.51100000000E-03 0.  1.
</event>
<event>
 8    1  0.1163913E+005  0.1043930E+01  0.7957747E-01            NaN
         13   -1    0    0    0    0  0.00000000000E+00  0.00000000000E+00  0.74505805969E-08  0.10566000000E+00  0.10566000000E+00 0. -1.
     999900   -1    0    0    0    0 -0.00000000000E+00 -0.00000000000E+00 -0.74505805969E-08  0.93827000000E+00  0.93827000000E+00 0. -1.
     999902    2    1    2    0    0  0.19390214050E-01  0.83652850307E-02 -0.98214862978E-02  0.10206400883E+01  0.10203743283E+01 0.  0.
     999903    2    3    3    0    0  0.30452773796E-01  0.71417053898E-01 -0.10687540877E+00  0.13299299081E+00  0.15395310505E-01 0.  0.
         14    1    1    2    0    0 -0.19390214050E-01 -0.83652850307E-02  0.98214862978E-02  0.23289911714E-01  0.00000000000E+00 0. -1.
     999901    1    3    3    0    0 -0.11062559746E-01 -0.63051768867E-01  0.97053922475E-01  0.88764709747E+00  0.88000000000E+00 0.  1.
        -11    1    4    4    0    0  0.28570916031E-01  0.65779530275E-01 -0.10410106747E+00  0.12641414958E+00  0.51100000000E-03 0. -1.
         11    1    4    4    0    0  0.18818577649E-02  0.56375236229E-02 -0.27743413072E-02  0.65788412305E-02  0.51100000000E-03 0.  1.
</event>
<event>
 8    1  0.1163913E+005  0.1043930E+01  0.7957747E-01            NaN
         13   -1    0    0    0    0  0.00000000000E+00  0.00000000000E+00  0.74505805969E-08  0.10566000000E+00  0.10566000000E+00 0.  1.
     999900   -1    0    0    0    0 -0.00000000000E+00 -0.00000000000E+00 -0.74505805969E-08  0.93827000000E+00  0.93827000000E+00 0.  1.
     999902    2    1    2    0    0 -0.20899325571E-02 -0.22741064154E-01 -0.56052933620E-02  0.10204152572E+01  0.10201442809E+01 0.  0.
     999903    2    3    3    0    0  0.17931092818E-01  0.12431952589E+00 -0.13502457051E-01  0.12795235945E+00  0.20313082879E-01 0.  0.
         14    1    1    2    0    0  0.20899325571E-02  0.22741064154E-01  0.56052933620E-02  0.23514742836E-01  0.00000000000E+00 0.  1.
     999901    1    3    3    0    0 -0.20021025375E-01 -0.14706059004E+00  0.78971636885E-02  0.89246289771E+00  0.88000000000E+00 0. -1.
        -11    1    4    4    0    0  0.14489169807E-01  0.35779826417E-01 -0.52475281282E-02  0.38960617200E-01  0.51100000000E-03 0.  1.
         11    1    4    4    0    0  0.34419230110E-02  0.88539699470E-01 -0.82549289223E-02  0.88991742251E-01  0.51100000000E-03 0. -1.
</event>
<event>
 8    1  0.1163913E+005  0.1043930E+01  0.7957747E-01            NaN
         13   -1    0    0    0    0  0.00000000000E+00  0.00000000000E+00  0.74505805969E-08  0.10566000000E+00  0.10566000000E+00 0.  1.
     999900   -1    0    0    0    0 -0.00000000000E+00 -0.00000000000E+00 -0.74505805969E-08  0.93827000000E+00  0.93827000000E+00 0. -1.
     999902    2    1    2    0    0 -0.10907554051E-01 -0.10112778894E-01 -0.17900014917E-01  0.10206565480E+01  0.10203911679E+01 0.  0.
     999903    2    3    3    0    0 -0.67097616381E-02 -0.10949889162E+00 -0.73111780351E-01  0.13333272896E+00  0.19931282406E-01 0.  0.
         14    1    1    2    0    0  0.10907554051E-01  0.10112778894E-01  0.17900014917E-01  0.23273451965E-01  0.00000000000E+00 0.  1.
     999901    1    3    3    0    0 -0.41977924133E-02  0.99386112721E-01  0.55211765435E-01  0.88732381908E+00  0.88000000000E+00 0.  1.
        -11    1    4    4    0    0  0.32642232009E-02 -0.22285872151E-01 -0.23259251773E-01  0.32381617697E-01  0.51100000000E-03 0. -1.
         11    1    4    4    0    0 -0.99739848390E-02 -0.87213019465E-01 -0.49852528578E-01  0.10095111126E+00  0.51100000000E-03 0.  1.
</event>
<event>
 8    1  0.1163913E+005  0.1043930E+01  0.7957747E-01            NaN
         13   -1    0    0    0    0  0.00000000000E+00  0.00000000000E+00  0.74505805969E-08  0.10566000000E+00  0.10566000000E+00 0.  1.
     999900   -1    0    0    0    0 -0.00000000000E+00 -0.00000000000E+00 -0.74505805969E-08  0.93827000000E+00  0.93827000000E+00 0.  1.
     999902    2    1    2    0    0 -0.21362446504E-02  0.19301200885E-01 -0.14234399411E-01  0.10198526658E+01  0.10195684096E+01 0.  0.
     999903    2    3    3    0    0  0.11790356689E+00 -0.20591918014E-01 -0.47142926574E-01  0.13019880699E+00  0.20099642848E-01 0.  0.
         14    1    1    2    0    0  0.21362446504E-02 -0.19301200885E-01  0.14234399411E-01  0.24077334225E-01  0.00000000000E+00 0.  1.
     999901    1    3    3    0    0 -0.12003981154E+00  0.39893118898E-01  0.32908527163E-01  0.88965385878E+00  0.88000000000E+00 0. -1.
        -11    1    4    4    0    0  0.32087699186E-01  0.33089166433E-02 -0.11524996961E-01  0.34258663785E-01  0.51100000000E-03 0. -1.
         11    1    4    4    0    0  0.85815867706E-01 -0.23900834657E-01 -0.35617929613E-01  0.95940143205E-01  0.51100000000E-03 0.  1.
</event>
<event>
 8    1  0.1163913E+005  0.1043930E+01  0.7957747E-01            NaN
         13   -1    0    0    0    0  0.00000000000E+00  0.00000000000E+00  0.74505805969E-08  0.10566000000E+00  0.10566000000E+00 0.  1.
     999900   -1    0    0    0    0 -0.00000000000E+00 -0.00000000000E+00 -0.74505805969E-08  0.93827000000E+00  0.93827000000E+00 0.  1.
     999902    2    1    2    0    0 -0.22724853613E-01  0.63911122684E-02  0.19308362213E-02  0.10202447004E+01  0.10199697325E+01 0.  0.
     999903    2    3    3    0    0  0.10055279039E+00  0.47015253727E-01  0.61938639615E-01  0.12870186081E+00  0.20161253969E-01 0.  0.
         14    1    1    2    0    0  0.22724853613E-01 -0.63911122684E-02 -0.19308362213E-02  0.23685299582E-01  0.00000000000E+00 0.  1.
     999901    1    3    3    0    0 -0.12327764400E+00 -0.40624141459E-01 -0.60007803394E-01  0.89154283960E+00  0.88000000000E+00 0. -1.
        -11    1    4    4    0    0  0.56570207789E-01  0.23610975556E-01  0.23030666767E-01  0.65485412946E-01  0.51100000000E-03 0.  1.
         11    1    4    4    0    0  0.43982582600E-01  0.23404278171E-01  0.38907972849E-01  0.63216447868E-01  0.51100000000E-03 0. -1.
</event>
<event>
 8    1  0.1163913E+005  0.1043930E+01  0.7957747E-01            NaN
         13   -1    0    0    0    0  0.00000000000E+00  0.00000000000E+00  0.74505805969E-08  0.10566000000E+00  0.10566000000E+00 0.  1.
     999900   -1    0    0    0    0 -0.00000000000E+00 -0.00000000000E+00 -0.74505805969E-08  0.93827000000E+00  0.93827000000E+00 0.  1.
     999902    2    1    2    0    0  0.67155309909E-02 -0.40081334397E-03  0.23186095288E-01  0.10197876301E+01  0.10195018178E+01 0.  0.
     999903    2    3    3    0    0  0.95799050003E-01  0.80083980146E-01  0.35387260556E-01  0.13155199486E+00  0.21512026518E-01 0.  0.
         14    1    1    2    0    0 -0.67155309909E-02  0.40081334397E-03 -0.23186095288E-01  0.24142369861E-01  0.00000000000E+00 0. -1.
     999901    1    3    3    0    0 -0.89083519012E-01 -0.80484793490E-01 -0.12201165268E-01  0.88823563528E+00  0.88000000000E+00 0. -1.
        -11    1    4    4    0    0  0.50666807877E-01  0.44670184193E-01  0.81301202770E-02  0.68036098896E-01  0.51100000000E-03 0.  1.
         11    1    4    4    0    0  0.45132242126E-01  0.35413795953E-01  0.27257140279E-01  0.63515895965E-01  0.51100000000E-03 0. -1.
</event>
<event>
 8    1  0.1163913E+005  0.1043930E+01  0.7957747E-01            NaN
         13   -1    0    0    0    0  0.00000000000E+00  0.00000000000E+00  0.74505805969E-08  0.10566000000E+00  0.10566000000E+00 0.  1.
     999900   -1    0    0    0    0 -0.00000000000E+00 -0.00000000000E+00 -0.74505805969E-08  0.93827000000E+00  0.93827000000E+00 0. -1.
     999902    2    1    2    0    0  0.89237811128E-02 -0.22649689318E-02 -0.17310884284E-01  0.10243230964E+01  0.10241354281E+01 0.  0.
     999903    2    3    3    0    0  0.10511238040E+00  0.81688288424E-01  0.73313967838E-02  0.13476835494E+00  0.19676664752E-01 0.  0.
         14    1    1    2    0    0 -0.89237811128E-02  0.22649689318E-02  0.17310884284E-01  0.19606903588E-01  0.00000000000E+00 0.  1.
     999901    1    3    3    0    0 -0.96188599290E-01 -0.83953257356E-01 -0.24642281068E-01  0.88955474147E+00  0.88000000000E+00 0.  1.
        -11    1    4    4    0    0  0.53010953436E-01  0.46065968934E-01 -0.51824590352E-02  0.70422678738E-01  0.51100000000E-03 0. -1.
         11    1    4    4    0    0  0.52101426967E-01  0.35622319490E-01  0.12513855819E-01  0.64345676205E-01  0.51100000000E-03 0.  1.
</event>
<event>
 8    1  0.1163913E+005  0.1043930E+01  0.7957747E-01            NaN
         13   -1    0    0    0    0  0.00000000000E+00  0.00000000000E+00  0.74505805969E-08  0.10566000000E+00  0.10566000000E+00 0.  1.
     999900   -1    0    0    0    0 -0.00000000000E+00 -0.00000000000E+00 -0.74505805969E-08  0.93827000000E+00  0.93827000000E+00 0.  1.
     999902    2    1    2    0    0 -0.19198155967E-02  0.22687090832E-01  0.44560813084E-02  0.10207298611E+01  0.10204661694E+01 0.  0.
     999903    2    3    3    0    0  0.22986900310E-01 -0.72562523894E-01 -0.10210899768E+00  0.12885041320E+00  0.19556689776E-01 0.  0.
         14    1    1    2    0    0  0.19198155967E-02 -0.22687090832E-01 -0.44560813084E-02  0.23200138856E-01  0.00000000000E+00 0.  1.
     999901    1    3    3    0    0 -0.24906715907E-01  0.95249614726E-01  0.10656507899E+00  0.89187944794E+00  0.88000000000E+00 0. -1.
        -11    1    4    4    0    0  0.12141145279E-01 -0.15037020443E-01 -0.18305281041E-01  0.26624496755E-01  0.51100000000E-03 0.  1.
         11    1    4    4    0    0  0.10845755030E-01 -0.57525503451E-01 -0.83803716640E-01  0.10222591645E+00  0.51100000000E-03 0. -1.
</event>
<event>
 8    1  0.1163913E+005  0.1043930E+01  0.7957747E-01            NaN
         13   -1    0    0    0    0  0.00000000000E+00  0.00000000000E+00  0.74505805969E-08  0.10566000000E+00  0.10566000000E+00 0. -1.
     999900   -1    0    0    0    0 -0.00000000000E+00 -0.00000000000E+00 -0.74505805969E-08  0.93827000000E+00  0.93827000000E+00 0.  1.
     999902    2    1    2    0    0 -0.16823229322E-01  0.16554949902E-01  0.32747200150E-02  0.10201012106E+01  0.10198228615E+01 0.  0.
     999903    2    3    3    0    0 -0.38391517678E-01  0.10081614579E+00  0.74837043967E-01  0.13292236373E+00  0.20735663670E-01 0.  0.
         14    1    1    2    0    0  0.16823229322E-01 -0.16554949902E-01 -0.32747200150E-02  0.23828789358E-01  0.00000000000E+00 0.  1.
     999901    1    3    3    0    0  0.21568288355E-01 -0.84261195892E-01 -0.71562323952E-01  0.88717884691E+00  0.88000000000E+00 0.  1.
        -11    1    4    4    0    0 -0.10711048064E-01  0.10972046140E-01  0.15157509936E-01  0.21566723803E-01  0.51100000000E-03 0.  1.
         11    1    4    4    0    0 -0.27680469613E-01  0.89844099655E-01  0.59679534031E-01  0.11135563993E+00  0.51100000000E-03 0. -1.
</event>
<event>
 8    1  0.1163913E+005  0.1043930E+01  0.7957747E-01            NaN
         13   -1    0    0    0    0  0.00000000000E+00  0.00000000000E+00  0.74505805969E-08  0.10566000000E+00  0.10566000000E+00 0. -1.
     999900   -1    0    0    0    0 -0.00000000000E+00 -0.00000000000E+00 -0.74505805969E-08  0.93827000000E+00  0.93827000000E+00 0.  1.
     999902    2    1    2    0    0  0.84409806673E-02 -0.88250253577E-02  0.19602220287E-01  0.10208350164E+01  0.10205737369E+01 0.  0.
     999903    2    3    3    0    0  0.39747312232E-01  0.12132630150E+00  0.19747571317E-01  0.13071172415E+00  0.19891404992E-01 0.  0.
         14    1    1    2    0    0 -0.84409806673E-02  0.88250253577E-02 -0.19602220287E-01  0.23094983597E-01  0.00000000000E+00 0.  1.
     999901    1    3    3    0    0 -0.31306331565E-01 -0.13015132686E+00 -0.14535103007E-03  0.89012329225E+00  0.88000000000E+00 0.  1.
        -11    1    4    4    0    0  0.22821421406E-01  0.64978016260E-01  0.20539866743E-01  0.71868679680E-01  0.51100000000E-03 0. -1.
         11    1    4    4    0    0  0.16925890826E-01  0.56348285241E-01 -0.79229542615E-03  0.58843044473E-01  0.51100000000E-03 0.  1.
</event>
<event>
 8    1  0.1163913E+005  0.1043930E+01  0.7957747E-01            NaN
         13   -1    0    0    0    0  0.00000000000E+00  0.00000000000E+00  0.74505805969E-08  0.10566000000E+00  0.10566000000E+00 0.  1.
     999900   -1    0    0    0    0 -0.00000000000E+00 -0.00000000000E+00 -0.74505805969E-08  0.93827000000E+00  0.93827000000E+00 0.  1.
     999902    2    1    2    0    0 -0.35387257749E-02  0.11907231240E-01 -0.19699090793E-01  0.10206413995E+01  0.10203756698E+01 0.  0.
     999903    2    3    3    0    0 -0.92355655530E-01 -0.46713906021E-01  0.74509503417E-01  0.12923793081E+00  0.20952816899E-01 0.  0.
         14    1    1    2    0    0  0.35387257749E-02 -0.11907231240E-01  0.19699090793E-01  0.23288600516E-01  0.00000000000E+00 0. -1.
     999901    1    3    3    0    0  0.88816929755E-01  0.58621137261E-01 -0.94208594210E-01  0.89140346868E+00  0.88000000000E+00 0. -1.
        -11    1    4    4    0    0 -0.76592750061E-01 -0.33488433871E-01  0.67659782661E-01  0.10754548747E+00  0.51100000000E-03 0.  1.
         11    1    4    4    0    0 -0.15762905469E-01 -0.13225472150E-01  0.68497207558E-02  0.21692443335E-01  0.51100000000E-03 0. -1.
</event>
<event>
 8    1  0.1163913E+005  0.1043930E+01  0.7957747E-01            NaN
         13   -1    0    0    0    0  0.00000000000E+00  0.00000000000E+00  0.74505805969E-08  0.10566000000E+00  0.10566000000E+00 0.  1.
     999900   -1    0    0    0    0 -0.00000000000E+00 -0.00000000000E+00 -0.74505805969E-08  0.93827000000E+00  0.93827000000E+00 0.  1.
     999902    2    1    2    0    0  0.13073682121E-01 -0.15141745459E-01 -0.11736085634E-01  0.10207366965E+01  0.10204731620E+01 0.  0.
     999903    2    3    3    0    0 -0.11135552180E+00  0.61283001816E-01  0.11292387581E-02  0.12861064862E+00  0.19589926266E-01 0.  0.
         14    1    1    2    0    0 -0.13073682121E-01  0.15141745459E-01  0.11736085634E-01  0.23193303468E-01  0.00000000000E+00 0.  1.
     999901    1    3    3    0    0  0.12442920393E+00 -0.76424747275E-01 -0.12865324392E-01  0.89212604791E+00  0.88000000000E+00 0.  1.
        -11    1    4    4    0    0 -0.34332051128E-01  0.29334389851E-01 -0.14333912721E-02  0.45183093012E-01  0.51100000000E-03 0. -1.
         11    1    4    4    0    0 -0.77023470677E-01  0.31948611965E-01  0.25626300302E-02  0.83427555612E-01  0.51100000000E-03 0.  1.
</event>
<event>
 8    1  0.1163913E+005  0.1043930E+01  0.7957747E-01            NaN
         13   -1    0    0    0    0  0.00000000000E+00  0.00000000000E+00  0.74505805969E-08  0.10566000000E+00  0.10566000000E+00 0. -1.
     999900   -1    0    0    0    0 -0.00000000000E+00 -0.00000000000E+00 -0.74505805969E-08  0.93827000000E+00  0.93827000000E+00 0.  1.
     999902    2    1    2    0    0  0.86850690356E-02  0.19611611822E-01 -0.91840225272E-02  0.10205977902E+01  0.10203310529E+01 0.  0.
     999903    2    3    3    0    0  0.46893937957E-01 -0.11945757632E+00 -0.44727686604E-02  0.12884538477E+00  0.10581756019E-01 0.  0.
         14    1    1    2    0    0 -0.86850690356E-02 -0.19611611822E-01  0.91840225272E-02  0.23332209758E-01  0.00000000000E+00 0. -1.
     999901    1    3    3    0    0 -0.38208868921E-01  0.13906918814E+00 -0.47112538669E-02  0.89175240547E+00  0.88000000000E+00 0.  1.
        -11    1    4    4    0    0  0.49571341152E-02 -0.17972189241E-01  0.24851402646E-02  0.18815148362E-01  0.51100000000E-03 0.  1.
         11    1    4    4    0    0  0.41936803842E-01 -0.10148538707E+00 -0.69579089249E-02  0.11003023641E+00  0.51100000000E-03 0. -1.
</event>
<event>
 8    1  0.1163913E+005  0.1043930E+01  0.7957747E-01            NaN
         13   -1    0    0    0    0  0.00000000000E+00  0.00000000000E+00  0.74505805969E-08  0.10566000000E+00  0.10566000000E+00 0.  1.
     999900   -1    0    0    0    0 -0.00000000000E+00 -0.00000000000E+00 -0.74505805969E-08  0.93827000000E+00  0.93827000000E+00 0.  1.
     999902    2    1    2    0    0 -0.37039077490E-02  0.14379412006E-01 -0.15890032857E-01  0.10221819066E+01  0.10219505226E+01 0.  0.
     999903    2    3    3    0    0  0.22283719173E-01  0.11563625663E+00 -0.62192128028E-01  0.13478560880E+00  0.20760336322E-01 0.  0.
         14    1    1    2    0    0  0.37039077490E-02 -0.14379412006E-01  0.15890032857E-01  0.21748093398E-01  0.00000000000E+00 0.  1.
     999901    1    3    3    0    0 -0.25987626922E-01 -0.10125684462E+00  0.46302095171E-01  0.88739629780E+00  0.88000000000E+00 0.  1.
        -11    1    4    4    0    0 -0.25599301564E-02  0.18768635533E-01 -0.15193363435E-01  0.24288152166E-01  0.51100000000E-03 0. -1.
         11    1    4    4    0    0  0.24843649329E-01  0.96867621093E-01 -0.46998764593E-01  0.11049745663E+00  0.51100000000E-03 0.  1.
</event>
<event>
 8    1  0.1163913E+005  0.1043930E+01  0.7957747E-01            NaN
         13   -1    0    0    0    0  0.00000000000E+00  0.00000000000E+00  0.74505805969E-08  0.10566000000E+00  0.10566000000E+00 0.  1.
     999900   -1    0    0    0    0 -0.00000000000E+00 -0.00000000000E+00 -0.74505805969E-08  0.93827000000E+00  0.93827000000E+00 0.  1.
     999902    2    1    2    0    0  0.91004883476E-03  0.22437177525E-01  0.16860065740E-02  0.10214111692E+01  0.10211629051E+01 0.  0.
     999903    2    3    3    0    0  0.91007619474E-01 -0.89517200915E-01  0.11402103724E-01  0.12970171108E+00  0.19920085990E-01 0.  0.
         14    1    1    2    0    0 -0.91004883476E-03 -0.22437177525E-01 -0.16860065740E-02  0.22518830839E-01  0.00000000000E+00 0.  1.
     999901    1    3    3    0    0 -0.90097570639E-01  0.11195437844E+00 -0.97160971504E-02  0.89170945808E+00  0.88000000000E+00 0. -1.
        -11    1    4    4    0    0  0.51417438478E-01 -0.63484793471E-01  0.98858637994E-02  0.82292547693E-01  0.51100000000E-03 0.  1.
         11    1    4    4    0    0  0.39590180995E-01 -0.26032407445E-01  0.15162399250E-02  0.47409163388E-01  0.51100000000E-03 0. -1.
</event>
<event>
 8    1  0.1163913E+005  0.1043930E+01  0.7957747E-01            NaN
         13   -1    0    0    0    0  0.00000000000E+00  0.00000000000E+00  0.74505805969E-08  0.10566000000E+00  0.10566000000E+00 0. -1.
     999900   -1    0    0    0    0 -0.00000000000E+00 -0.00000000000E+00 -0.74505805969E-08  0.93827000000E+00  0.93827000000E+00 0. -1.
     999902    2    1    2    0    0  0.17995225337E-01  0.14965198572E-01  0.18288326695E-02  0.10204538433E+01  0.10201837660E+01 0.  0.
     999903    2    3    3    0    0 -0.10367677602E+00 -0.48431191636E-01  0.53848814730E-01  0.12830516920E+00  0.21634865083E-01 0.  0.
         14    1    1    2    0    0 -0.17995225337E-01 -0.14965198572E-01 -0.18288326695E-02  0.23476156673E-01  0.00000000000E+00 0. -1.
     999901    1    3    3    0    0  0.12167200136E+00  0.63396390208E-01 -0.52019982060E-01  0.89214867412E+00  0.88000000000E+00 0. -1.
        -11    1    4    4    0    0 -0.74891954216E-01 -0.34125256241E-01  0.27613150378E-01  0.86810627889E-01  0.51100000000E-03 0.  1.
         11    1    4    4    0    0 -0.28784821805E-01 -0.14305935395E-01  0.26235664352E-01  0.41494541314E-01  0.51100000000E-03 0. -1.
</event>
<event>
 8    1  0.1163913E+005  0.1043930E+01  0.7957747E-01            NaN
         13   -1    0    0    0    0  0.00000000000E+00  0.00000000000E+00  0.74505805969E-08  0.10566000000E+00  0.10566000000E+00 0. -1.
     999900   -1    0    0    0    0 -0.00000000000E+00 -0.00000000000E+00 -0.74505805969E-08  0.93827000000E+00  0.93827000000E+00 0.  1.
     999902    2    1    2    0    0  0.10609630071E-01 -0.81571494547E-02 -0.18581138031E-01  0.10210310474E+01  0.10207742345E+01 0.  0.
     999903    2    3    3    0    0  0.11862563769E+00  0.19692960036E-01  0.48964600855E-01  0.13142129405E+00  0.20351162154E-01 0.  0.
         14    1    1    2    0    0 -0.10609630071E-01  0.81571494547E-02  0.18581138031E-01  0.22898952552E-01  0.00000000000E+00 0. -1.
     999901    1    3    3    0    0 -0.10801600762E+00 -0.27850109491E-01 -0.67545738885E-01  0.88960975340E+00  0.88000000000E+00 0.  1.
        -11    1    4    4    0    0  0.41981951925E-01 -0.22924687681E-02  0.13578664419E-01  0.44185755045E-01  0.51100000000E-03 0. -1.
         11    1    4    4    0    0  0.76643685762E-01  0.21985428804E-01  0.35385936436E-01  0.87235539004E-01  0.51100000000E-03 0.  1.
</event>
<event>
 8    1  0.1163913E+005  0.1043930E+01  0.7957747E-01            NaN
         13   -1    0    0    0    0  0.00000000000E+00  0.00000000000E+00  0.74505805969E-08  0.10566000000E+00  0.10566000000E+00 0.  1.
     999900   -1    0    0    0    0 -0.00000000000E+00 -0.00000000000E+00 -0.74505805969E-08  0.93827000000E+00  0.93827000000E+00 0.  1.
     999902    2    1    2    0    0 -0.36244198139E-02  0.12782103244E-01  0.19755868124E-01  0.10201221671E+01  0.10198443131E+01 0.  0.
     999903    2    3    3    0    0 -0.46020036415E-01 -0.12577602859E-01 -0.11703619934E+00  0.12818462852E+00  0.21395961913E-01 0.  0.
         14    1    1    2    0    0  0.36244198139E-02 -0.12782103244E-01 -0.19755868124E-01  0.23807832906E-01  0.00000000000E+00 0. -1.
     999901    1    3    3    0    0  0.42395616601E-01  0.25359706103E-01  0.13679206747E+00  0.89193753858E+00  0.88000000000E+00 0. -1.
        -11    1    4    4    0    0 -0.29758100210E-01 -0.78151040022E-02 -0.47382811342E-01  0.56497896513E-01  0.51100000000E-03 0.  1.
         11    1    4    4    0    0 -0.16261936205E-01 -0.47624988569E-02 -0.69653388001E-01  0.71686732005E-01  0.51100000000E-03 0. -1.
</event>
<event>
 8    1  0.1163913E+005  0.1043930E+01  0.7957747E-01            NaN
         13   -1    0    0    0    0  0.00000000000E+00  0.00000000000E+00  0.74505805969E-08  0.10566000000E+00  0.10566000000E+00 0.  1.
     999900   -1    0    0    0    0 -0.00000000000E+00 -0.00000000000E+00 -0.74505805969E-08  0.93827000000E+00  0.93827000000E+00 0.  1.
     999902    2    1    2    0    0  0.10854194361E-01  0.13595798991E-02 -0.20918028910E-01  0.10203243666E+01  0.10200512670E+01 0.  0.
     999903    2    3    3    0    0 -0.53200030544E-01  0.48497345557E-01 -0.10922160437E+00  0.13233650968E+00  0.20033900155E-01 0.  0.
         14    1    1    2    0    0 -0.10854194361E-01 -0.13595798991E-02  0.20918028910E-01  0.23605633357E-01  0.00000000000E+00 0.  1.
     999901    1    3    3    0    0  0.64054224904E-01 -0.47137765658E-01  0.88303575465E-01  0.88798785697E+00  0.88000000000E+00 0. -1.
        -11    1    4    4    0    0 -0.30123022396E-01  0.27673566923E-01 -0.43965355262E-01  0.60053612454E-01  0.51100000000E-03 0.  1.
         11    1    4    4    0    0 -0.23077008148E-01  0.20823778634E-01 -0.65256249113E-01  0.72282897223E-01  0.51100000000E-03 0. -1.
</event>
<event>
 8    1  0.1163913E+005  0.1043930E+01  0.7957747E-01            NaN
         13   -1    0    0    0    0  0.00000000000E+00  0.00000000000E+00  0.74505805969E-08  0.10566000000E+00  0.10566000000E+00 0.  1.
     999900   -1    0    0    0    0 -0.00000000000E+00 -0.00000000000E+00 -0.74505805969E-08  0.93827000000E+00  0.93827000000E+00 0. -1.
     999902    2    1    2    0    0 -0.14679691919E-01 -0.15278709863E-01  0.12271554768E-01  0.10194448333E+01  0.10191507469E+01 0.  0.
     999903    2    3    3    0    0 -0.75667574827E-01  0.71993850566E-01 -0.73163490468E-01  0.12891961269E+00  0.18938685236E-01 0.  0.
         14    1    1    2    0    0  0.14679691919E-01  0.15278709863E-01 -0.12271554768E-01  0.24485166659E-01  0.00000000000E+00 0. -1.
     999901    1    3    3    0    0  0.60987882908E-01 -0.87272560429E-01  0.85435045236E-01  0.89052522065E+00  0.88000000000E+00 0.  1.
        -11    1    4    4    0    0 -0.22915052915E-01  0.18164284208E-01 -0.11087690830E-01  0.31276810577E-01  0.51100000000E-03 0.  1.
         11    1    4    4    0    0 -0.52752521912E-01  0.53829566358E-01 -0.62075799638E-01  0.97642802110E-01  0.51100000000E-03 0. -1.
</event>
<event>
 8    1  0.1163913E+005  0.1043930E+01  0.7957747E-01            NaN
         13   -1    0    0    0    0  0.00000000000E+00  0.00000000000E+00  0.74505805969E-08  0.10566000000E+00  0.10566000000E+00 0. -1.
     999900   -1    0    0    0    0 -0.00000000000E+00 -0.00000000000E+00 -0.74505805969E-08  0.93827000000E+00  0.93827000000E+00 0.  1.
     999902    2    1    2    0    0  0.18330295029E-01  0.59766966560E-02 -0.14108535751E-01  0.10200391775E+01  0.10197593600E+01 0.  0.
     999903    2    3    3    0    0 -0.50546341983E-01  0.40126573875E-01 -0.11254944643E+00  0.13121927553E+00  0.19648047227E-01 0.  0.
         14    1    1    2    0    0 -0.18330295029E-01 -0.59766966560E-02  0.14108535751E-01  0.23890822502E-01  0.00000000000E+00 0.  1.
     999901    1    3    3    0    0  0.68876637012E-01 -0.34149877219E-01  0.98440910680E-01  0.88881990197E+00  0.88000000000E+00 0.  1.
        -11    1    4    4    0    0 -0.31627439688E-01  0.19318321623E-01 -0.46750370074E-01  0.59660294289E-01  0.51100000000E-03 0. -1.
         11    1    4    4    0    0 -0.18918902295E-01  0.20808252252E-01 -0.65799076357E-01  0.71558981241E-01  0.51100000000E-03 0.  1.
</event>
<event>
 8    1  0.1163913E+005  0.1043930E+01  0.7957747E-01            NaN
         13   -1    0    0    0    0  0.00000000000E+00  0.00000000000E+00  0.74505805969E-08  0.10566000000E+00  0.10566000000E+00 0.  1.
     999900   -1    0    0    0    0 -0.00000000000E+00 -0.00000000000E+00 -0.74505805969E-08  0.93827000000E+00  0.93827000000E+00 0.  1.
     999902    2    1    2    0    0  0.13582087831E-01 -0.19146881960E-01 -0.53031479046E-02  0.10198634345E+01  0.10195794355E+01 0.  0.
     999903    2    3    3    0    0  0.75720207119E-01 -0.29649534813E-01  0.10122187029E+00  0.13120206416E+00  0.18853910291E-01 0.  0.
         14    1    1    2    0    0 -0.13582087831E-01  0.19146881960E-01  0.53031479046E-02  0.24066565529E-01  0.00000000000E+00 0.  1.
     999901    1    3    3    0    0 -0.62138119289E-01  0.10502652852E-01 -0.10652501820E+00  0.88866137031E+00  0.88000000000E+00 0.  1.
        -11    1    4    4    0    0  0.37131681286E-01 -0.21723725808E-01  0.63169295639E-01  0.76428417821E-01  0.51100000000E-03 0. -1.
         11    1    4    4    0    0  0.38588525834E-01 -0.79258090045E-02  0.38052574652E-01  0.54773646337E-01  0.51100000000E-03 0.  1.
</event>
<event>
 8    1  0.1382481E+005  0.1043930E+01  0.7957747E-01            NaN
         13   -1    0    0    0    0  0.00000000000E+00  0.00000000000E+00  0.74505805969E-08  0.10566000000E+00  0.10566000000E+00 0. -1.
     999900   -1    0    0    0    0 -0.00000000000E+00 -0.00000000000E+00 -0.74505805969E-08  0.93827000000E+00  0.93827000000E+00 0. -1.
     999902    2    1    2    0    0 -0.82968345650E-02  0.14001470320E-01  0.17101544054E-01  0.10203219199E+01  0.10200487630E+01 0.  0.
     999903    2    3    3    0    0 -0.40865141365E-01  0.12190076876E+00 -0.23296828751E-01  0.13221439169E+00  0.20202622042E-01 0.  0.
         14    1    1    2    0    0  0.82968345650E-02 -0.14001470320E-01 -0.17101544054E-01  0.23608080057E-01  0.00000000000E+00 0.  1.
     999901    1    3    3    0    0  0.32568306800E-01 -0.10789929844E+00  0.40398372805E-01  0.88810752825E+00  0.88000000000E+00 0.  1.
        -11    1    4    4    0    0 -0.34165146910E-01  0.80421798495E-01 -0.90581817201E-02  0.87847792879E-01  0.51100000000E-03 0. -1.
         11    1    4    4    0    0 -0.66999944554E-02  0.41478970265E-01 -0.14238647031E-01  0.44366598813E-01  0.51100000000E-03 0.  1.
</event>
<event>
 8    1  0.1163913E+005  0.1043930E+01  0.7957747E-01            NaN
         13   -1    0    0    0    0  0.00000000000E+00  0.00000000000E+00  0.74505805969E-08  0.10566000000E+00  0.10566000000E+00 0.  1.
     999900   -1    0    0    0    0 -0.00000000000E+00 -0.00000000000E+00 -0.74505805969E-08  0.93827000000E+00  0.93827000000E+00 0.  1.
     999902    2    1    2    0    0  0.16830831675E-01 -0.33015623327E-02 -0.30053685559E-01  0.10093265143E+01  0.10087331715E+01 0.  0.
     999903    2    3    3    0    0 -0.80099442666E-01 -0.76413189006E-01  0.37218904081E-01  0.11844695487E+00  0.19736720309E-01 0.  0.
         14    1    1    2    0    0 -0.16830831675E-01  0.33015623327E-02  0.30053685559E-01  0.34603485726E-01  0.00000000000E+00 0.  1.
     999901    1    3    3    0    0  0.96930274341E-01  0.73111626674E-01 -0.67272589641E-01  0.89087955940E+00  0.88000000000E+00 0.  1.
        -11    1    4    4    0    0 -0.63446874551E-01 -0.48759347602E-01  0.29197973830E-01  0.85180764646E-01  0.51100000000E-03 0. -1.
         11    1    4    4    0    0 -0.16652568114E-01 -0.27653841404E-01  0.80209302514E-02  0.33266190228E-01  0.51100000000E-03 0.  1.
</event>
<event>
 8    1  0.1163913E+005  0.1043930E+01  0.7957747E-01            NaN
         13   -1    0    0    0    0  0.00000000000E+00  0.00000000000E+00  0.74505805969E-08  0.10566000000E+00  0.10566000000E+00 0. -1.
     999900   -1    0    0    0    0 -0.00000000000E+00 -0.00000000000E+00 -0.74505805969E-08  0.93827000000E+00  0.93827000000E+00 0.  1.
     999902    2    1    2    0    0 -0.26073359171E-02 -0.22374776640E-01 -0.69771133251E-02  0.10203480378E+01  0.10200754920E+01 0.  0.
     999903    2    3    3    0    0  0.12498676548E+00  0.51167922940E-02  0.29173838287E-01  0.12998691311E+00  0.19940201426E-01 0.  0.
         14    1    1    2    0    0  0.26073359171E-02  0.22374776640E-01  0.69771133251E-02  0.23581962188E-01  0.00000000000E+00 0.  1.
     999901    1    3    3    0    0 -0.12759410139E+00 -0.27491568934E-01 -0.36150951612E-01  0.89036112470E+00  0.88000000000E+00 0. -1.
        -11    1    4    4    0    0  0.44216198447E-01  0.88591876691E-02  0.17103015545E-01  0.48232060634E-01  0.51100000000E-03 0. -1.
         11    1    4    4    0    0  0.80770567029E-01 -0.37423953751E-02  0.12070822742E-01  0.81754852479E-01  0.51100000000E-03 0.  1.
</event>
<event>
 8    1  0.1163913E+005  0.1043930E+01  0.7957747E-01            NaN
         13   -1    0    0    0    0  0.00000000000E+00  0.00000000000E+00  0.74505805969E-08  0.10566000000E+00  0.10566000000E+00 0. -1.
     999900   -1    0    0    0    0 -0.00000000000E+00 -0.00000000000E+00 -0.74505805969E-08  0.93827000000E+00  0.93827000000E+00 0.  1.
     999902    2    1    2    0    0 -0.83263834843E-02 -0.18593477924E-01 -0.11034340389E-01  0.10207609959E+01  0.10204980196E+01 0.  0.
     999903    2    3    3    0    0  0.89065227434E-01 -0.95115547383E-01  0.54625003531E-02  0.13193429808E+00  0.19930830621E-01 0.  0.
         14    1    1    2    0    0  0.83263834843E-02  0.18593477924E-01  0.11034340389E-01  0.23169004102E-01  0.00000000000E+00 0. -1.
     999901    1    3    3    0    0 -0.97391610918E-01  0.76522069459E-01 -0.16496840742E-01  0.88882669781E+00  0.88000000000E+00 0.  1.
        -11    1    4    4    0    0  0.60844528870E-01 -0.70527888425E-01 -0.43079525887E-02  0.93247301921E-01  0.51100000000E-03 0.  1.
         11    1    4    4    0    0  0.28220698564E-01 -0.24587658958E-01  0.97704529417E-02  0.38686996164E-01  0.51100000000E-03 0. -1.
</event>
<event>
 8    1  0.1163913E+005  0.1043930E+01  0.7957747E-01            NaN
         13   -1    0    0    0    0  0.00000000000E+00  0.00000000000E+00  0.74505805969E-08  0.10566000000E+00  0.10566000000E+00 0.  1.
     999900   -1    0    0    0    0 -0.00000000000E+00 -0.00000000000E+00 -0.74505805969E-08  0.93827000000E+00  0.93827000000E+00 0.  1.
     999902    2    1    2    0    0 -0.14795092614E-01  0.13836938404E-01 -0.10247343098E-01  0.10212283774E+01  0.10209760208E+01 0.  0.
     999903    2    3    3    0    0  0.35188625802E-01  0.59194420474E-01 -0.11182199224E+00  0.13281795271E+00  0.19855271654E-01 0.  0.
         14    1    1    2    0    0  0.14795092614E-01 -0.13836938404E-01  0.10247343098E-01  0.22701622639E-01  0.00000000000E+00 0.  1.
     999901    1    3    3    0    0 -0.49983718417E-01 -0.45357482069E-01  0.10157464914E+00  0.88841042465E+00  0.88000000000E+00 0. -1.
        -11    1    4    4    0    0  0.17120705679E-01  0.41120353602E-01 -0.83697012343E-01  0.94812726147E-01  0.51100000000E-03 0. -1.
         11    1    4    4    0    0  0.18067920123E-01  0.18074066872E-01 -0.28124979894E-01  0.38005226560E-01  0.51100000000E-03 0.  1.
</event>
<event>
 8    1  0.1163913E+005  0.1043930E+01  0.7957747E-01            NaN
         13   -1    0    0    0    0  0.00000000000E+00  0.00000000000E+00  0.74505805969E-08  0.10566000000E+00  0.10566000000E+00 0. -1.
     999900   -1    0    0    0    0 -0.00000000000E+00 -0.00000000000E+00 -0.74505805969E-08  0.93827000000E+00  0.93827000000E+00 0.  1.
     999902    2    1    2    0    0  0.22985724844E-01 -0.48866194481E-02  0.91436217438E-02  0.10187143617E+01  0.10184022399E+01 0.  0.
     999903    2    3    3    0    0 -0.34707421779E-01  0.79759264649E-01 -0.90591714270E-01  0.12717604951E+00  0.20018577615E-01 0.  0.
         14    1    1    2    0    0 -0.22985724844E-01  0.48866194481E-02 -0.91436217438E-02  0.25215638299E-01  0.00000000000E+00 0.  1.
     999901    1    3    3    0    0  0.57693146623E-01 -0.84645884097E-01  0.99735336013E-01  0.89153831220E+00  0.88000000000E+00 0. -1.
        -11    1    4    4    0    0 -0.29915504444E-01  0.78715151495E-01 -0.86969473395E-01  0.12105768420E+00  0.51100000000E-03 0. -1.
         11    1    4    4    0    0 -0.47919173349E-02  0.10441131538E-02 -0.36222408748E-02  0.61183653027E-02  0.51100000000E-03 0.  1.
</event>
<event>
 8    1  0.1163913E+005  0.1043930E+01  0.7957747E-01            NaN
         13   -1    0    0    0    0  0.00000000000E+00  0.00000000000E+00  0.74505805969E-08  0.10566000000E+00  0.10566000000E+00 0. -1.
     999900   -1    0    0    0    0 -0.00000000000E+00 -0.00000000000E+00 -0.74505805969E-08  0.93827000000E+00  0.93827000000E+00 0.  1.
     999902    2    1    2    0    0  0.28430703088E-02 -0.84060144895E-02  0.21733781713E-01  0.10204544511E+01  0.10201843879E+01 0.  0.
     999903    2    3    3    0    0 -0.33777407573E-01  0.71818436381E-01  0.10390326850E+00  0.13223778470E+00  0.19802561221E-01 0.  0.
         14    1    1    2    0    0 -0.28430703088E-02  0.84060144895E-02 -0.21733781713E-01  0.23475548896E-01  0.00000000000E+00 0.  1.
     999901    1    3    3    0    0  0.36620477882E-01 -0.80224450871E-01 -0.82169486787E-01  0.88821666640E+00  0.88000000000E+00 0.  1.
        -11    1    4    4    0    0 -0.83027526914E-02  0.12155346968E-01  0.89419145823E-02  0.17230992994E-01  0.51100000000E-03 0.  1.
         11    1    4    4    0    0 -0.25474654882E-01  0.59663089413E-01  0.94961353919E-01  0.11500679171E+00  0.51100000000E-03 0. -1.
</event>
<event>
 7    1  0.1163913E+005  0.1043930E+01  0.7957747E-01            NaN
         13   -1    0    0    0    0  0.00000000000E+00  0.00000000000E+00  0.74505805969E-08  0.10566000000E+00  0.10566000000E+00 0. -1.
     999900   -1    0    0    0    0 -0.00000000000E+00 -0.00000000000E+00 -0.74505805969E-08  0.93827000000E+00  0.93827000000E+00 0. -1.
     999903    2    1    2    0    0  0.54241855388E-01 -0.28436965960E-01  0.90871937025E-01  0.11123225678E+00  0.19080516254E-01 0.  0.
         14    1    1    2    0    0 -0.36581684565E-01 -0.16024971641E-01 -0.28753821192E-01  0.49211803410E-01  0.00000000000E+00 0.  1.
     999901    1    1    2    0    0 -0.17660170823E-01  0.44461937601E-01 -0.62118115833E-01  0.88348593981E+00  0.88000000000E+00 0. -1.
        -11    1    3    3    0    0  0.42454381996E-01 -0.19890995328E-01  0.81140051230E-01  0.93712300583E-01  0.51100000000E-03 0. -1.
         11    1    3    3    0    0  0.11787473392E-01 -0.85459706320E-02  0.97318857950E-02  0.17519956197E-01  0.51100000000E-03 0.  1.
</event>
<event>
 8    1  0.1163913E+005  0.1043930E+01  0.7957747E-01            NaN
         13   -1    0    0    0    0  0.00000000000E+00  0.00000000000E+00  0.74505805969E-08  0.10566000000E+00  0.10566000000E+00 0.  1.
     999900   -1    0    0    0    0 -0.00000000000E+00 -0.00000000000E+00 -0.74505805969E-08  0.93827000000E+00  0.93827000000E+00 0.  1.
     999902    2    1    2    0    0 -0.70285270792E-02  0.19619802485E-01 -0.11770411483E-01  0.10199951002E+01  0.10197142369E+01 0.  0.
     999903    2    3    3    0    0 -0.45384759537E-01  0.97891895051E-01  0.72152979144E-01  0.13171538268E+00  0.22367166131E-01 0.  0.
         14    1    1    2    0    0  0.70285270792E-02 -0.19619802485E-01  0.11770411483E-01  0.23934899810E-01  0.00000000000E+00 0.  1.
     999901    1    3    3    0    0  0.38356232457E-01 -0.78272092566E-01 -0.83923390627E-01  0.88827971751E+00  0.88000000000E+00 0.  1.
        -11    1    4    4    0    0 -0.35122603111E-01  0.90731355841E-01  0.60254615921E-01  0.11444062235E+00  0.51100000000E-03 0.  1.
         11    1    4    4    0    0 -0.10262156426E-01  0.71605392103E-02  0.11898363223E-01  0.17274760336E-01  0.51100000000E-03 0. -1.
</event>
<event>
 8    1  0.1163913E+005  0.1043930E+01  0.7957747E-01            NaN
         13   -1    0    0    0    0  0.00000000000E+00  0.00000000000E+00  0.74505805969E-08  0.10566000000E+00  0.10566000000E+00 0.  1.
     999900   -1    0    0    0    0 -0.00000000000E+00 -0.00000000000E+00 -0.74505805969E-08  0.93827000000E+00  0.93827000000E+00 0. -1.
     999902    2    1    2    0    0 -0.50988916480E-02  0.20214115612E-01  0.47891753318E-02  0.10225396899E+01  0.10223159355E+01 0.  0.
     999903    2    3    3    0    0  0.47765756276E-01 -0.10345777498E+00  0.60999111614E-01  0.13054811793E+00  0.18353223146E-01 0.  0.
         14    1    1    2    0    0  0.50988916480E-02 -0.20214115612E-01 -0.47891753318E-02  0.21390310105E-01  0.00000000000E+00 0.  1.
     999901    1    3    3    0    0 -0.52864647924E-01  0.12367189060E+00 -0.56209936282E-01  0.89199157197E+00  0.88000000000E+00 0. -1.
        -11    1    4    4    0    0  0.18602992455E-01 -0.34945991872E-01  0.30940086019E-01  0.50247823038E-01  0.51100000000E-03 0.  1.
         11    1    4    4    0    0  0.29162763821E-01 -0.68511783111E-01  0.30059025594E-01  0.80300294890E-01  0.51100000000E-03 0. -1.
</event>
<event>
 8    1  0.1163913E+005  0.1043930E+01  0.7957747E-01            NaN
         13   -1    0    0    0    0  0.00000000000E+00  0.00000000000E+00  0.74505805969E-08  0.10566000000E+00  0.10566000000E+00 0.  1.
     999900   -1    0    0    0    0 -0.00000000000E+00 -0.00000000000E+00 -0.74505805969E-08  0.93827000000E+00  0.93827000000E+00 0. -1.
     999902    2    1    2    0    0 -0.85682859947E-02 -0.14024645064E-01 -0.19217708389E-01  0.10186431159E+01  0.10183292056E+01 0.  0.
     999903    2    3    3    0    0 -0.12522840524E+00  0.18530281952E-01  0.18925325948E-01  0.12952878251E+00  0.19849753347E-01 0.  0.
         14    1    1    2    0    0  0.85682859947E-02  0.14024645064E-01  0.19217708389E-01  0.25286884145E-01  0.00000000000E+00 0.  1.
     999901    1    3    3    0    0  0.11666011924E+00 -0.32554927016E-01 -0.38143034337E-01  0.88911433335E+00  0.88000000000E+00 0. -1.
        -11    1    4    4    0    0 -0.43667542965E-01 -0.22540193654E-02  0.10249731020E-01  0.44913839948E-01  0.51100000000E-03 0.  1.
         11    1    4    4    0    0 -0.81560862273E-01  0.20784301318E-01  0.86755949285E-02  0.84614942559E-01  0.51100000000E-03 0. -1.
</event>
<event>
 8    1  0.1163913E+005  0.1043930E+01  0.7957747E-01            NaN
         13   -1    0    0    0    0  0.00000000000E+00  0.00000000000E+00  0.74505805969E-08  0.10566000000E+00  0.10566000000E+00 0. -1.
     999900   -1    0    0    0    0 -0.00000000000E+00 -0.00000000000E+00 -0.74505805969E-08  0.93827000000E+00  0.93827000000E+00 0. -1.
     999902    2    1    2    0    0  0.12687534226E-01  0.27619402115E-01 -0.14798074500E-01  0.10101248538E+01  0.10095590287E+01 0.  0.
     999903    2    3    3    0    0 -0.75463774797E-01 -0.80238780004E-01  0.36313375905E-01  0.11770319280E+00  0.20058344962E-01 0.  0.
         14    1    1    2    0    0 -0.12687534226E-01 -0.27619402115E-01  0.14798074500E-01  0.33805146159E-01  0.00000000000E+00 0.  1.
     999901    1    3    3    0    0  0.88151309023E-01  0.10785818212E+00 -0.51111450406E-01  0.89242166104E+00  0.88000000000E+00 0. -1.
        -11    1    4    4    0    0 -0.32887693603E-01 -0.40881788953E-01  0.26890960106E-01  0.58960206199E-01  0.51100000000E-03 0.  1.
         11    1    4    4    0    0 -0.42576081194E-01 -0.39356991050E-01  0.94224157992E-02  0.58742986601E-01  0.51100000000E-03 0. -1.
</event>
<event>
 8    1  0.1163913E+005  0.1043930E+01  0.7957747E-01            NaN
         13   -1    0    0    0    0  0.00000000000E+00  0.00000000000E+00  0.74505805969E-08  0.10566000000E+00  0.10566000000E+00 0.  1.
     999900   -1    0    0    0    0 -0.00000000000E+00 -0.00000000000E+00 -0.74505805969E-08  0.93827000000E+00  0.93827000000E+00 0.  1.
     999902    2    1    2    0    0  0.14364016371E-01  0.10860936001E-01 -0.13235500043E-01  0.10215813231E+01  0.10213368379E+01 0.  0.
     999903    2    3    3    0    0  0.66065028648E-01 -0.86789674277E-01  0.69635359867E-01  0.13080850372E+00  0.19098317439E-01 0.  0.
         14    1    1    2    0    0 -0.14364016371E-01 -0.10860936001E-01  0.13235500043E-01  0.22348676885E-01  0.00000000000E+00 0.  1.
     999901    1    3    3    0    0 -0.51701012278E-01  0.97650610279E-01 -0.82870859910E-01  0.89077281940E+00  0.88000000000E+00 0.  1.
        -11    1    4    4    0    0  0.18690911711E-01 -0.13165574437E-01  0.18535824962E-01  0.29436719567E-01  0.51100000000E-03 0. -1.
         11    1    4    4    0    0  0.47374116937E-01 -0.73624099841E-01  0.51099534905E-01  0.10137178415E+00  0.51100000000E-03 0.  1.
</event>
<event>
 8    1  0.1163913E+005  0.1043930E+01  0.7957747E-01            NaN
         13   -1    0    0    0    0  0.00000000000E+00  0.00000000000E+00  0.74505805969E-08  0.10566000000E+00  0.10566000000E+00 0.  1.
     999900   -1    0    0    0    0 -0.00000000000E+00 -0.00000000000E+00 -0.74505805969E-08  0.93827000000E+00  0.93827000000E+00 0. -1.
     999902    2    1    2    0    0 -0.46425459557E-02 -0.12536051043E-01  0.19825890604E-01  0.10200182509E+01  0.10197379371E+01 0.  0.
     999903    2    3    3    0    0  0.49966875771E-01 -0.10904495229E+00  0.52608239608E-01  0.13245369582E+00  0.19719644214E-01 0.  0.
         14    1    1    2    0    0  0.46425459557E-02  0.12536051043E-01 -0.19825890604E-01  0.23911749140E-01  0.00000000000E+00 0. -1.
     999901    1    3    3    0    0 -0.54609421727E-01  0.96508901243E-01 -0.32782349004E-01  0.88756455504E+00  0.88000000000E+00 0. -1.
        -11    1    4    4    0    0  0.38692997714E-01 -0.87404081301E-01  0.50093491066E-01  0.10791774862E+00  0.51100000000E-03 0. -1.
         11    1    4    4    0    0  0.11273878057E-01 -0.21640870985E-01  0.25147485421E-02  0.24535947193E-01  0.51100000000E-03 0.  1.
</event>
<event>
 8    1  0.1163913E+005  0.1043930E+01  0.7957747E-01            NaN
         13   -1    0    0    0    0  0.00000000000E+00  0.00000000000E+00  0.74505805969E-08  0.10566000000E+00  0.10566000000E+00 0.  1.
     999900   -1    0    0    0    0 -0.00000000000E+00 -0.00000000000E+00 -0.74505805969E-08  0.93827000000E+00  0.93827000000E+00 0. -1.
     999902    2    1    2    0    0  0.20886701260E-01  0.62964368617E-02 -0.48520265177E-02  0.10215818106E+01  0.10213373362E+01 0.  0.
     999903    2    3    3    0    0 -0.20533087479E-02 -0.33999020840E-01  0.12455056952E+00  0.13091071543E+00  0.21555081804E-01 0.  0.
         14    1    1    2    0    0 -0.20886701260E-01 -0.62964368617E-02  0.48520265177E-02  0.22348189368E-01  0.00000000000E+00 0.  1.
     999901    1    3    3    0    0  0.22940010008E-01  0.40295457701E-01 -0.12940259604E+00  0.89067109520E+00  0.88000000000E+00 0. -1.
        -11    1    4    4    0    0 -0.82509253764E-03 -0.22532502291E-01  0.43081254421E-01  0.48627667440E-01  0.51100000000E-03 0.  1.
         11    1    4    4    0    0 -0.12282162102E-02 -0.11466518549E-01  0.81469315098E-01  0.82283047989E-01  0.51100000000E-03 0. -1.
</event>
<event>
 8    1  0.1163913E+005  0.1043930E+01  0.7957747E-01            NaN
         13   -1    0    0    0    0  0.00000000000E+00  0.00000000000E+00  0.74505805969E-08  0.10566000000E+00  0.10566000000E+00 0.  1.
     999900   -1    0    0    0    0 -0.00000000000E+00 -0.00000000000E+00 -0.74505805969E-08  0.93827000000E+00  0.93827000000E+00 0.  1.
     999902    2    1    2    0    0  0.15747138026E-01  0.90420255881E-02  0.14878765179E-01  0.10204543054E+01  0.10201842389E+01 0.  0.
     999903    2    3    3    0    0  0.55992821428E-01 -0.63926924185E-01 -0.95784205550E-01  0.12961735302E+00  0.20104638395E-01 0.  0.
         14    1    1    2    0    0 -0.15747138026E-01 -0.90420255881E-02 -0.14878765179E-01  0.23475694580E-01  0.00000000000E+00 0. -1.
     999901    1    3    3    0    0 -0.40245683403E-01  0.72968949773E-01  0.11066297073E+00  0.89083695240E+00  0.88000000000E+00 0. -1.
        -11    1    4    4    0    0  0.51230267186E-01 -0.63963132814E-01 -0.86417293553E-01  0.11909673539E+00  0.51100000000E-03 0.  1.
         11    1    4    4    0    0  0.47625542423E-02  0.36208629356E-04 -0.93669119975E-02  0.10520617631E-01  0.51100000000E-03 0. -1.
</event>
<event>
 8    1  0.1163913E+005  0.1043930E+01  0.7957747E-01            NaN
         13   -1    0    0    0    0  0.00000000000E+00  0.00000000000E+00  0.74505805969E-08  0.10566000000E+00  0.10566000000E+00 0.  1.
     999900   -1    0    0    0    0 -0.00000000000E+00 -0.00000000000E+00 -0.74505805969E-08  0.93827000000E+00  0.93827000000E+00 0.  1.
     999902    2    1    2    0    0 -0.19062045893E-01 -0.15455807372E-01 -0.93247215914E-02  0.10176774952E+01  0.10173388276E+01 0.  0.
     999903    2    3    3    0    0 -0.59319417420E-01 -0.10071510560E+00 -0.56556652176E-01  0.13138146161E+00  0.20002694084E-01 0.  0.
         14    1    1    2    0    0  0.19062045893E-01  0.15455807372E-01  0.93247215914E-02  0.26252504793E-01  0.00000000000E+00 0.  1.
     999901    1    3    3    0    0  0.40257371528E-01  0.85259298231E-01  0.47231930584E-01  0.88629603359E+00  0.88000000000E+00 0. -1.
        -11    1    4    4    0    0 -0.41201981035E-01 -0.85536200923E-01 -0.45157683165E-01  0.10513573312E+00  0.51100000000E-03 0.  1.
         11    1    4    4    0    0 -0.18117436386E-01 -0.15178904680E-01 -0.11398969011E-01  0.26245728491E-01  0.51100000000E-03 0. -1.
</event>
<event>
 8    1  0.1163913E+005  0.1043930E+01  0.7957747E-01            NaN
         13   -1    0    0    0    0  0.00000000000E+00  0.00000000000E+00  0.74505805969E-08  0.10566000000E+00  0.10566000000E+00 0.  1.
     999900   -1    0    0    0    0 -0.00000000000E+00 -0.00000000000E+00 -0.74505805969E-08  0.93827000000E+00  0.93827000000E+00 0. -1.
     999902    2    1    2    0    0  0.23671734255E-01 -0.45544239640E-02  0.48674393498E-02  0.10193376080E+01  0.10190409085E+01 0.  0.
     999903    2    3    3    0    0  0.10259890966E+00 -0.80760148584E-01  0.12858790183E-02  0.13251764931E+00  0.22595044418E-01 0.  0.
         14    1    1    2    0    0 -0.23671734255E-01  0.45544239640E-02 -0.48674393498E-02  0.24592392037E-01  0.00000000000E+00 0.  1.
     999901    1    3    3    0    0 -0.78927175405E-01  0.76205724620E-01  0.35815603316E-02  0.88681995865E+00  0.88000000000E+00 0.  1.
        -11    1    4    4    0    0  0.44151396081E-01 -0.45936815636E-01 -0.64503078733E-02  0.64042207952E-01  0.51100000000E-03 0. -1.
         11    1    4    4    0    0  0.58447513580E-01 -0.34823332948E-01  0.77361868916E-02  0.68475441363E-01  0.51100000000E-03 0.  1.
</event>
<event>
 8    1  0.1163913E+005  0.1043930E+01  0.7957747E-01            NaN
         13   -1    0    0    0    0  0.00000000000E+00  0.00000000000E+00  0.74505805969E-08  0.10566000000E+00  0.10566000000E+00 0.  1.
     999900   -1    0    0    0    0 -0.00000000000E+00 -0.00000000000E+00 -0.74505805969E-08  0.93827000000E+00  0.93827000000E+00 0. -1.
     999902    2    1    2    0    0 -0.16216479234E-02  0.19404796539E-01 -0.29902795164E-01  0.10082459275E+01  0.10076142602E+01 0.  0.
     999903    2    3    3    0    0  0.89992563301E-01  0.46769657329E-01  0.58165884055E-01  0.11869655195E+00  0.20482653163E-01 0.  0.
         14    1    1    2    0    0  0.16216479234E-02 -0.19404796539E-01  0.29902795164E-01  0.35684072488E-01  0.00000000000E+00 0.  1.
     999901    1    3    3    0    0 -0.91614211224E-01 -0.27364860791E-01 -0.88068679220E-01  0.88954937556E+00  0.88000000000E+00 0. -1.
        -11    1    4    4    0    0  0.58006052467E-01  0.39689745339E-01  0.44544186840E-01  0.83213122223E-01  0.51100000000E-03 0.  1.
         11    1    4    4    0    0  0.31986510834E-01  0.70799119900E-02  0.13621697215E-01  0.35483429726E-01  0.51100000000E-03 0. -1.
</event>
<event>
 8    1  0.1163913E+005  0.1043930E+01  0.7957747E-01            NaN
         13   -1    0    0    0    0  0.00000000000E+00  0.00000000000E+00  0.74505805969E-08  0.10566000000E+00  0.10566000000E+00 0. -1.
     999900   -1    0    0    0    0 -0.00000000000E+00 -0.00000000000E+00 -0.74505805969E-08  0.93827000000E+00  0.93827000000E+00 0. -1.
     999902    2    1    2    0    0 -0.11408860942E-01 -0.48566352409E-02  0.21226757608E-01  0.10193469926E+01  0.10190505223E+01 0.  0.
     999903    2    3    3    0    0  0.11454774963E+00  0.47004574872E-01  0.29473409814E-01  0.12882879508E+00  0.19938895408E-01 0.  0.
         14    1    1    2    0    0  0.11408860942E-01  0.48566352409E-02 -0.21226757608E-01  0.24583007391E-01  0.00000000000E+00 0.  1.
     999901    1    3    3    0    0 -0.12595661058E+00 -0.51861210113E-01 -0.82466522065E-02  0.89051819753E+00  0.88000000000E+00 0.  1.
        -11    1    4    4    0    0  0.13171002375E-01  0.12336729465E-01  0.69501414419E-02  0.19345174709E-01  0.51100000000E-03 0.  1.
         11    1    4    4    0    0  0.10137674726E+00  0.34667845407E-01  0.22523268372E-01  0.10948362037E+00  0.51100000000E-03 0. -1.
</event>
<event>
 8    1  0.1163913E+005  0.1043930E+01  0.7957747E-01            NaN
         13   -1    0    0    0    0  0.00000000000E+00  0.00000000000E+00  0.74505805969E-08  0.10566000000E+00  0.10566000000E+00 0.  1.
     999900   -1    0    0    0    0 -0.00000000000E+00 -0.00000000000E+00 -0.74505805969E-08  0.93827000000E+00  0.93827000000E+00 0. -1.
     999902    2    1    2    0    0  0.14694840341E-01  0.99443995456E-02  0.61765106690E-02  0.10251422726E+01  0.10249700974E+01 0.  0.
     999903    2    3    3    0    0 -0.56416019358E-01 -0.72825321319E-01 -0.93519108815E-01  0.13281565218E+00  0.20196016542E-01 0.  0.
         14    1    1    2    0    0 -0.14694840341E-01 -0.99443995456E-02 -0.61765106690E-02  0.18787727351E-01  0.00000000000E+00 0. -1.
     999901    1    3    3    0    0  0.71110859699E-01  0.82769720865E-01  0.99695619483E-01  0.89232662047E+00  0.88000000000E+00 0.  1.
        -11    1    4    4    0    0 -0.29828433458E-01 -0.51033414385E-01 -0.67320468156E-01  0.89590464783E-01  0.51100000000E-03 0.  1.
         11    1    4    4    0    0 -0.26587585900E-01 -0.21791906935E-01 -0.26198640659E-01  0.43225187394E-01  0.51100000000E-03 0. -1.
</event>
<event>
 8    1  0.1163913E+005  0.1043930E+01  0.7957747E-01            NaN
         13   -1    0    0    0    0  0.00000000000E+00  0.00000000000E+00  0.74505805969E-08  0.10566000000E+00  0.10566000000E+00 0. -1.
     999900   -1    0    0    0    0 -0.00000000000E+00 -0.00000000000E+00 -0.74505805969E-08  0.93827000000E+00  0.93827000000E+00 0.  1.
     999902    2    1    2    0    0  0.14491521011E-01  0.14565793367E-01  0.83231817236E-02  0.10217615117E+01  0.10215209959E+01 0.  0.
     999903    2    3    3    0    0  0.40788690545E-02 -0.10499889530E+00  0.74377893329E-01  0.13116207147E+00  0.25100055559E-01 0.  0.
         14    1    1    2    0    0 -0.14491521011E-01 -0.14565793367E-01 -0.83231817236E-02  0.22168488258E-01  0.00000000000E+00 0.  1.
     999901    1    3    3    0    0  0.10412651957E-01  0.11956468866E+00 -0.66054711606E-01  0.89059944028E+00  0.88000000000E+00 0. -1.
        -11    1    4    4    0    0  0.10708466385E-01 -0.19449360187E-01  0.16279609835E-01  0.27536079630E-01  0.51100000000E-03 0. -1.
         11    1    4    4    0    0 -0.66295973303E-02 -0.85549535108E-01  0.58098283495E-01  0.10362599184E+00  0.51100000000E-03 0.  1.
</event>
<event>
 8    1  0.1163913E+005  0.1043930E+01  0.7957747E-01            NaN
         13   -1    0    0    0    0  0.00000000000E+00  0.00000000000E+00  0.74505805969E-08  0.10566000000E+00  0.10566000000E+00 0. -1.
     999900   -1    0    0    0    0 -0.00000000000E+00 -0.00000000000E+00 -0.74505805969E-08  0.93827000000E+00  0.93827000000E+00 0.  1.
     999902    2    1    2    0    0 -0.10775828320E-01  0.15816621190E-01  0.14075633174E-01  0.10201727394E+01  0.10198960784E+01 0.  0.
     999903    2    3    3    0    0  0.22195421537E-01 -0.76780952081E-01  0.10111112286E+00  0.13043311999E+00  0.20034677030E-01 0.  0.
         14    1    1    2    0    0  0.10775828320E-01 -0.15816621190E-01 -0.14075633174E-01  0.23757260598E-01  0.00000000000E+00 0.  1.
     999901    1    3    3    0    0 -0.32971249857E-01  0.92597573271E-01 -0.87035489686E-01  0.88973961942E+00  0.88000000000E+00 0.  1.
        -11    1    4    4    0    0  0.12030512360E-01 -0.36301724642E-01  0.32826712606E-01  0.50402406898E-01  0.51100000000E-03 0.  1.
         11    1    4    4    0    0  0.10164909177E-01 -0.40479227439E-01  0.68284410255E-01  0.80030713089E-01  0.51100000000E-03 0. -1.
</event>
<event>
 8    1  0.1163913E+005  0.1043930E+01  0.7957747E-01            NaN
         13   -1    0    0    0    0  0.00000000000E+00  0.00000000000E+00  0.74505805969E-08  0.10566000000E+00  0.10566000000E+00 0.  1.
     999900   -1    0    0    0    0 -0.00000000000E+00 -0.00000000000E+00 -0.74505805969E-08  0.93827000000E+00  0.93827000000E+00 0. -1.
     999902    2    1    2    0    0 -0.16565803194E-02 -0.22159414076E-01 -0.18098048680E-01  0.10152712621E+01  0.10148666969E+01 0.  0.
     999903    2    3    3    0    0  0.33050050861E-01  0.11096133993E+00 -0.39850991730E-01  0.12431734866E+00  0.21493645878E-01 0.  0.
         14    1    1    2    0    0  0.16565803194E-02  0.22159414076E-01  0.18098048680E-01  0.28658737875E-01  0.00000000000E+00 0.  1.
     999901    1    3    3    0    0 -0.34706631180E-01 -0.13312075401E+00  0.21752943050E-01  0.89095391347E+00  0.88000000000E+00 0.  1.
        -11    1    4    4    0    0  0.20187310894E-01  0.33065066188E-01 -0.11255587416E-01  0.40345699799E-01  0.51100000000E-03 0.  1.
         11    1    4    4    0    0  0.12862739967E-01  0.77896273745E-01 -0.28595404314E-01  0.83971648856E-01  0.51100000000E-03 0. -1.
</event>
<event>
 8    1  0.1163913E+005  0.1043930E+01  0.7957747E-01            NaN
         13   -1    0    0    0    0  0.00000000000E+00  0.00000000000E+00  0.74505805969E-08  0.10566000000E+00  0.10566000000E+00 0.  1.
     999900   -1    0    0    0    0 -0.00000000000E+00 -0.00000000000E+00 -0.74505805969E-08  0.93827000000E+00  0.93827000000E+00 0. -1.
     999902    2    1    2    0    0  0.20251685033E-01  0.20950375451E-02 -0.13059124958E-01  0.10197419725E+01  0.10194550651E+01 0.  0.
     999903    2    3    3    0    0  0.10939189572E+00  0.46591536562E-01  0.52347558884E-01  0.13170821759E+00  0.21666322543E-01 0.  0.
         14    1    1    2    0    0 -0.20251685033E-01 -0.20950375451E-02  0.13059124958E-01  0.24188027486E-01  0.00000000000E+00 0.  1.
     999901    1    3    3    0    0 -0.89140210686E-01 -0.44496499017E-01 -0.65406683841E-01  0.88803375492E+00  0.88000000000E+00 0. -1.
        -11    1    4    4    0    0  0.56954456602E-01  0.25159074281E-01  0.39115367422E-01  0.73532729006E-01  0.51100000000E-03 0. -1.
         11    1    4    4    0    0  0.52437439118E-01  0.21432462281E-01  0.13232191461E-01  0.58175488589E-01  0.51100000000E-03 0.  1.
</event>
<event>
 8    1  0.1163913E+005  0.1043930E+01  0.7957747E-01            NaN
         13   -1    0    0    0    0  0.00000000000E+00  0.00000000000E+00  0.74505805969E-08  0.10566000000E+00  0.10566000000E+00 0. -1.
     999900   -1    0    0    0    0 -0.00000000000E+00 -0.00000000000E+00 -0.74505805969E-08  0.93827000000E+00  0.93827000000E+00 0. -1.
     999902    2    1    2    0    0  0.18149492965E-01  0.42690957938E-02  0.10136256180E-01  0.10227080076E+01  0.10224877974E+01 0.  0.
     999903    2    3    3    0    0 -0.58952113322E-01 -0.10357953965E+00 -0.49924571854E-01  0.13075325034E+00  0.19996922294E-01 0.  0.
         14    1    1    2    0    0 -0.18149492965E-01 -0.42690957938E-02 -0.10136256180E-01  0.21221992440E-01  0.00000000000E+00 0. -1.
     999901    1    3    3    0    0  0.77101606287E-01  0.10784863544E+00  0.60060828034E-01  0.89195475722E+00  0.88000000000E+00 0.  1.
        -11    1    4    4    0    0 -0.52830641795E-01 -0.76070578470E-01 -0.39732840077E-01  0.10078079838E+00  0.51100000000E-03 0. -1.
         11    1    4    4    0    0 -0.61214715268E-02 -0.27508961179E-01 -0.10191731777E-01  0.29972451959E-01  0.51100000000E-03 0.  1.
</event>
<event>
 8    1  0.1163913E+005  0.1043930E+01  0.7957747E-01            NaN
         13   -1    0    0    0    0  0.00000000000E+00  0.00000000000E+00  0.74505805969E-08  0.10566000000E+00  0.10566000000E+00 0. -1.
     999900   -1    0    0    0    0 -0.00000000000E+00 -0.00000000000E+00 -0.74505805969E-08  0.93827000000E+00  0.93827000000E+00 0. -1.
     999902    2    1    2    0    0  0.17302073959E-01  0.98637471856E-02 -0.13033610595E-01  0.10201281035E+01  0.10198503897E+01 0.  0.
     999903    2    3    3    0    0  0.81239251303E-01  0.31518596436E-01  0.96258414172E-01  0.13080159326E+00  0.15815708213E-01 0.  0.
         14    1    1    2    0    0 -0.17302073959E-01 -0.98637471856E-02  0.13033610595E-01  0.23801896500E-01  0.00000000000E+00 0. -1.
     999901    1    3    3    0    0 -0.63937177344E-01 -0.21654849250E-01 -0.10929202477E+00  0.88932651024E+00  0.88000000000E+00 0. -1.
        -11    1    4    4    0    0  0.67571036520E-01  0.25528337188E-01  0.69958478455E-01  0.10055839500E+00  0.51100000000E-03 0.  1.
         11    1    4    4    0    0  0.13668214783E-01  0.59902592479E-02  0.26299935717E-01  0.30243198259E-01  0.51100000000E-03 0. -1.
</event>
<event>
 8    1  0.1163913E+005  0.1043930E+01  0.7957747E-01            NaN
         13   -1    0    0    0    0  0.00000000000E+00  0.00000000000E+00  0.74505805969E-08  0.10566000000E+00  0.10566000000E+00 0.  1.
     999900   -1    0    0    0    0 -0.00000000000E+00 -0.00000000000E+00 -0.74505805969E-08  0.93827000000E+00  0.93827000000E+00 0. -1.
     999902    2    1    2    0    0  0.64916970058E-02  0.20985476347E-01  0.71663258571E-02  0.10208239711E+01  0.10205624387E+01 0.  0.
     999903    2    3    3    0    0  0.36407656326E-01  0.55753789798E-01  0.11368675002E+00  0.13321459694E+00  0.19683729154E-01 0.  0.
         14    1    1    2    0    0 -0.64916970058E-02 -0.20985476347E-01 -0.71663258571E-02  0.23106028949E-01  0.00000000000E+00 0. -1.
     999901    1    3    3    0    0 -0.29915959320E-01 -0.34768313452E-01 -0.10652042416E+00  0.88760937411E+00  0.88000000000E+00 0. -1.
        -11    1    4    4    0    0  0.69297809344E-03  0.11509530498E-01  0.28963246614E-01  0.31178202102E-01  0.51100000000E-03 0. -1.
         11    1    4    4    0    0  0.35714678233E-01  0.44244259300E-01  0.84723503402E-01  0.10203639484E+00  0.51100000000E-03 0.  1.
</event>
<event>
 8    1  0.1163913E+005  0.1043930E+01  0.7957747E-01            NaN
         13   -1    0    0    0    0  0.00000000000E+00  0.00000000000E+00  0.74505805969E-08  0.10566000000E+00  0.10566000000E+00 0. -1.
     999900   -1    0    0    0    0 -0.00000000000E+00 -0.00000000000E+00 -0.74505805969E-08  0.93827000000E+00  0.93827000000E+00 0. -1.
     999902    2    1    2    0    0  0.16529826692E-01  0.17141164971E-01  0.40771954578E-02  0.10197705664E+01  0.10194843451E+01 0.  0.
     999903    2    3    3    0    0 -0.63993475548E-01 -0.10427908392E+00 -0.26162353946E-01  0.12727893657E+00  0.23370209122E-01 0.  0.
         14    1    1    2    0    0 -0.16529826692E-01 -0.17141164971E-01 -0.40771954578E-02  0.24159433558E-01  0.00000000000E+00 0.  1.
     999901    1    3    3    0    0  0.80523302240E-01  0.12142024889E+00  0.30239549403E-01  0.89249162987E+00  0.88000000000E+00 0.  1.
        -11    1    4    4    0    0 -0.51458640815E-01 -0.80382489116E-01 -0.29931762068E-01  0.10002753507E+00  0.51100000000E-03 0. -1.
         11    1    4    4    0    0 -0.12534834733E-01 -0.23896594804E-01  0.37694081225E-02  0.27251401498E-01  0.51100000000E-03 0.  1.
</event>
<event>
 8    1  0.1235034E+005  0.1043930E+01  0.7957747E-01            NaN
         13   -1    0    0    0    0  0.00000000000E+00  0.00000000000E+00  0.74505805969E-08  0.10566000000E+00  0.10566000000E+00 0. -1.
     999900   -1    0    0    0    0 -0.00000000000E+00 -0.00000000000E+00 -0.74505805969E-08  0.93827000000E+00  0.93827000000E+00 0. -1.
     999902    2    1    2    0    0  0.69145303680E-02  0.30977936904E-01  0.18922820279E-01  0.10069771052E+01  0.10062988493E+01 0.  0.
     999903    2    3    3    0    0  0.12995552679E-01  0.11046472988E+00  0.47812052448E-01  0.12290147677E+00  0.21152770438E-01 0.  0.
         14    1    1    2    0    0 -0.69145303680E-02 -0.30977936904E-01 -0.18922820279E-01  0.36952894776E-01  0.00000000000E+00 0. -1.
     999901    1    3    3    0    0 -0.60810223111E-02 -0.79486792972E-01 -0.28889232169E-01  0.88407562845E+00  0.88000000000E+00 0. -1.
        -11    1    4    4    0    0  0.74102459087E-02  0.78242319487E-01  0.43730125155E-01  0.89940854288E-01  0.51100000000E-03 0. -1.
         11    1    4    4    0    0  0.55853067704E-02  0.32222410389E-01  0.40819272933E-02  0.32960622482E-01  0.51100000000E-03 0.  1.
</event>
<event>
 8    1  0.1163913E+005  0.1043930E+01  0.7957747E-01            NaN
         13   -1    0    0    0    0  0.00000000000E+00  0.00000000000E+00  0.74505805969E-08  0.10566000000E+00  0.10566000000E+00 0.  1.
     999900   -1    0    0    0    0 -0.00000000000E+00 -0.00000000000E+00 -0.74505805969E-08  0.93827000000E+00  0.93827000000E+00 0.  1.
     999902    2    1    2    0    0  0.83836836275E-02 -0.20454158300E-01  0.44984589700E-02  0.10213713015E+01  0.10211221478E+01 0.  0.
     999903    2    3    3    0    0 -0.12115910154E+00 -0.26852770362E-01  0.37660997646E-01  0.13124657467E+00  0.20167138004E-01 0.  0.
         14    1    1    2    0    0 -0.83836836275E-02  0.20454158300E-01 -0.44984589700E-02  0.22558698456E-01  0.00000000000E+00 0. -1.
     999901    1    3    3    0    0  0.12954278517E+00  0.63986120624E-02 -0.33162538676E-01  0.89012472688E+00  0.88000000000E+00 0. -1.
        -11    1    4    4    0    0 -0.82448981673E-01 -0.18673221002E-01  0.15672234966E-01  0.85979089500E-01  0.51100000000E-03 0.  1.
         11    1    4    4    0    0 -0.38710119871E-01 -0.81795493608E-02  0.21988762680E-01  0.45267485167E-01  0.51100000000E-03 0. -1.
</event>
<event>
 8    1  0.1163913E+005  0.1043930E+01  0.7957747E-01            NaN
         13   -1    0    0    0    0  0.00000000000E+00  0.00000000000E+00  0.74505805969E-08  0.10566000000E+00  0.10566000000E+00 0. -1.
     999900   -1    0    0    0    0 -0.00000000000E+00 -0.00000000000E+00 -0.74505805969E-08  0.93827000000E+00  0.93827000000E+00 0.  1.
     999902    2    1    2    0    0 -0.23171534579E-01  0.47537104303E-02 -0.46987205698E-02  0.10198137036E+01  0.10195285157E+01 0.  0.
     999903    2    3    3    0    0 -0.45026597559E-01 -0.17451183189E-01 -0.12081248838E+00  0.13163967326E+00  0.20035167724E-01 0.  0.
         14    1    1    2    0    0  0.23171534579E-01 -0.47537104303E-02  0.46987205698E-02  0.24116296411E-01  0.00000000000E+00 0.  1.
     999901    1    3    3    0    0  0.21855062981E-01  0.22204893619E-01  0.11611376781E+00  0.88817403033E+00  0.88000000000E+00 0. -1.
        -11    1    4    4    0    0 -0.17733513966E-01 -0.54991228289E-03 -0.63641271344E-01  0.66070057215E-01  0.51100000000E-03 0.  1.
         11    1    4    4    0    0 -0.27293083593E-01 -0.16901270906E-01 -0.57171217032E-01  0.65569616044E-01  0.51100000000E-03 0. -1.
</event>
<event>
 8    1  0.1163913E+005  0.1043930E+01  0.7957747E-01            NaN
         13   -1    0    0    0    0  0.00000000000E+00  0.00000000000E+00  0.74505805969E-08  0.10566000000E+00  0.10566000000E+00 0. -1.
     999900   -1    0    0    0    0 -0.00000000000E+00 -0.00000000000E+00 -0.74505805969E-08  0.93827000000E+00  0.93827000000E+00 0.  1.
     999902    2    1    2    0    0 -0.11716075949E-01  0.18346984447E-01  0.78872200530E-02  0.10207764578E+01  0.10205138364E+01 0.  0.
     999903    2    3    3    0    0  0.81729062950E-01 -0.58162189591E-02  0.10009323560E+00  0.13071027846E+00  0.18789703313E-01 0.  0.
         14    1    1    2    0    0  0.11716075949E-01 -0.18346984447E-01 -0.78872200530E-02  0.23153542150E-01  0.00000000000E+00 0.  1.
     999901    1    3    3    0    0 -0.93445138899E-01  0.24163203406E-01 -0.92206015543E-01  0.89006617938E+00  0.88000000000E+00 0.  1.
        -11    1    4    4    0    0  0.54585033266E-01  0.41396420631E-02  0.59276733806E-01  0.80688628596E-01  0.51100000000E-03 0. -1.
         11    1    4    4    0    0  0.27144029684E-01 -0.99558610222E-02  0.40816501790E-01  0.50021649868E-01  0.51100000000E-03 0.  1.
</event>
<event>
 7    1  0.1163913E+005  0.1043930E+01  0.7957747E-01            NaN
         13   -1    0    0    0    0  0.00000000000E+00  0.00000000000E+00  0.74505805969E-08  0.10566000000E+00  0.10566000000E+00 0.  1.
     999900   -1    0    0    0    0 -0.00000000000E+00 -0.00000000000E+00 -0.74505805969E-08  0.93827000000E+00  0.93827000000E+00 0. -1.
     999902    2    1    2    0    0  0.17304152180E-01  0.16614350002E-01  0.25303388797E-01  0.10090626543E+01  0.10084600679E+01 0.  0.
         14    1    1    2    0    0 -0.17304152180E-01 -0.16614350002E-01 -0.25303388797E-01  0.34867345659E-01  0.00000000000E+00 0. -1.
     999901    1    3    3    0    0  0.10620274190E+00  0.30022132671E-01 -0.36508035440E-01  0.88764474171E+00  0.88000000000E+00 0. -1.
        -11    1    3    3    0    0 -0.40517969329E-01 -0.13732384605E-01 -0.17284087106E-03  0.42785221987E-01  0.51100000000E-03 0. -1.
         11    1    3    3    0    0 -0.48380620389E-01  0.32460193704E-03  0.61984265108E-01  0.78632690642E-01  0.51100000000E-03 0.  1.
</event>
<event>
 8    1  0.1163913E+005  0.1043930E+01  0.7957747E-01            NaN
         13   -1    0    0    0    0  0.00000000000E+00  0.00000000000E+00  0.74505805969E-08  0.10566000000E+00  0.10566000000E+00 0. -1.
     999900   -1    0    0    0    0 -0.00000000000E+00 -0.00000000000E+00 -0.74505805969E-08  0.93827000000E+00  0.93827000000E+00 0. -1.
     999902    2    1    2    0    0  0.81815652640E-02 -0.20176014031E-01  0.53298655891E-02  0.10215153392E+01  0.10212693921E+01 0.  0.
     999903    2    3    3    0    0  0.27486524690E-01 -0.33433159461E-01  0.12446627982E+00  0.13317873712E+00  0.19272675463E-01 0.  0.
         14    1    1    2    0    0 -0.81815652640E-02  0.20176014031E-01 -0.53298655891E-02  0.22414660817E-01  0.00000000000E+00 0.  1.
     999901    1    3    3    0    0 -0.19304959426E-01  0.13257145430E-01 -0.11913641423E+00  0.88833660206E+00  0.88000000000E+00 0. -1.
        -11    1    4    4    0    0  0.22623887438E-01 -0.16572389673E-01  0.57897409154E-01  0.64333937312E-01  0.51100000000E-03 0. -1.
         11    1    4    4    0    0  0.48626372511E-02 -0.16860769788E-01  0.66568870662E-01  0.68844799812E-01  0.51100000000E-03 0.  1.
</event>
<event>
 8    1  0.1163913E+005  0.1043930E+01  0.7957747E-01            NaN
         13   -1    0    0    0    0  0.00000000000E+00  0.00000000000E+00  0.74505805969E-08  0.10566000000E+00  0.10566000000E+00 0. -1.
     999900   -1    0    0    0    0 -0.00000000000E+00 -0.00000000000E+00 -0.74505805969E-08  0.93827000000E+00  0.93827000000E+00 0.  1.
     999902    2    1    2    0    0 -0.21733524079E-01 -0.83651201239E-02 -0.36387232611E-03  0.10206393644E+01  0.10203735877E+01 0.  0.
     999903    2    3    3    0    0  0.60219676441E-01  0.49171709680E-01  0.10118221649E+00  0.12915833711E+00  0.19994215386E-01 0.  0.
         14    1    1    2    0    0  0.21733524079E-01  0.83651201239E-02  0.36387232611E-03  0.23290635600E-01  0.00000000000E+00 0. -1.
     999901    1    3    3    0    0 -0.81953200520E-01 -0.57536829804E-01 -0.10154608881E+00  0.89148102729E+00  0.88000000000E+00 0.  1.
        -11    1    4    4    0    0  0.80145751591E-02  0.71211682238E-02  0.27624203292E-01  0.29636163388E-01  0.51100000000E-03 0.  1.
         11    1    4    4    0    0  0.52205101282E-01  0.42050541456E-01  0.73558013196E-01  0.99522173725E-01  0.51100000000E-03 0. -1.
</event>
<event>
 8    1  0.1163913E+005  0.1043930E+01  0.7957747E-01            NaN
         13   -1    0    0    0    0  0.00000000000E+00  0.00000000000E+00  0.74505805969E-08  0.10566000000E+00  0.10566000000E+00 0.  1.
     999900   -1    0    0    0    0 -0.00000000000E+00 -0.00000000000E+00 -0.74505805969E-08  0.93827000000E+00  0.93827000000E+00 0. -1.
     999902    2    1    2    0    0  0.29140841046E-02  0.21023859413E-01 -0.17266186674E-01  0.10165691566E+01  0.10162008829E+01 0.  0.
     999903    2    3    3    0    0  0.98346023729E-01 -0.60066175858E-01  0.45304317739E-01  0.12550354903E+00  0.20463962184E-01 0.  0.
         14    1    1    2    0    0 -0.29140841046E-02 -0.21023859413E-01  0.17266186674E-01  0.27360843427E-01  0.00000000000E+00 0.  1.
     999901    1    3    3    0    0 -0.95431939624E-01  0.81090035271E-01 -0.62570504412E-01  0.89106560754E+00  0.88000000000E+00 0. -1.
        -11    1    4    4    0    0  0.29899415225E-01 -0.24640179153E-01  0.23854211987E-01  0.45501626455E-01  0.51100000000E-03 0.  1.
         11    1    4    4    0    0  0.68446608504E-01 -0.35425996705E-01  0.21450105751E-01  0.80001922577E-01  0.51100000000E-03 0. -1.
</event>
<event>
 8    1  0.1163913E+005  0.1043930E+01  0.7957747E-01            NaN
         13   -1    0    0    0    0  0.00000000000E+00  0.00000000000E+00  0.74505805969E-08  0.10566000000E+00  0.10566000000E+00 0. -1.
     999900   -1    0    0    0    0 -0.00000000000E+00 -0.00000000000E+00 -0.74505805969E-08  0.93827000000E+00  0.93827000000E+00 0.  1.
     999902    2    1    2    0    0 -0.10972378401E-01 -0.11496425701E-01  0.17513883836E-01  0.10202805387E+01  0.10200064121E+01 0.  0.
     999903    2    3    3    0    0  0.18190517001E-01  0.50887810215E-01 -0.11415399258E+00  0.12782398682E+00  0.19681804987E-01 0.  0.
         14    1    1    2    0    0  0.10972378401E-01  0.11496425701E-01 -0.17513883836E-01  0.23649461277E-01  0.00000000000E+00 0.  1.
     999901    1    3    3    0    0 -0.29162895402E-01 -0.62384235916E-01  0.13166787641E+00  0.89245655190E+00  0.88000000000E+00 0. -1.
        -11    1    4    4    0    0  0.20508253353E-01  0.29689747646E-01 -0.68140175598E-01  0.77106512192E-01  0.51100000000E-03 0.  1.
         11    1    4    4    0    0 -0.23177363521E-02  0.21198062569E-01 -0.46013816979E-01  0.50717474626E-01  0.51100000000E-03 0. -1.
</event>
<event>
 8    1  0.1163913E+005  0.1043930E+01  0.7957747E-01            NaN
         13   -1    0    0    0    0  0.00000000000E+00  0.00000000000E+00  0.74505805969E-08  0.10566000000E+00  0.10566000000E+00 0.  1.
     999900   -1    0    0    0    0 -0.00000000000E+00 -0.00000000000E+00 -0.74505805969E-08  0.93827000000E+00  0.93827000000E+00 0.  1.
     999902    2    1    2    0    0 -0.19174345895E-01 -0.98858763833E-02 -0.63194496128E-02  0.10214506420E+01  0.10212032572E+01 0.  0.
     999903    2    3    3    0    0 -0.57127937786E-02  0.22386137479E-01  0.12692017648E+00  0.13073436045E+00  0.21188832917E-01 0.  0.
         14    1    1    2    0    0  0.19174345895E-01  0.98858763833E-02  0.63194496128E-02  0.22479357993E-01  0.00000000000E+00 0.  1.
     999901    1    3    3    0    0 -0.13461552116E-01 -0.32272013863E-01 -0.13323962610E+00  0.89071628155E+00  0.88000000000E+00 0.  1.
        -11    1    4    4    0    0 -0.12986228820E-01  0.92714427176E-02  0.55249492495E-01  0.57509732489E-01  0.51100000000E-03 0. -1.
         11    1    4    4    0    0  0.72734350417E-02  0.13114694762E-01  0.71670683988E-01  0.73224627963E-01  0.51100000000E-03 0.  1.
</event>
<event>
 8    1  0.1163913E+005  0.1043930E+01  0.7957747E-01            NaN
         13   -1    0    0    0    0  0.00000000000E+00  0.00000000000E+00  0.74505805969E-08  0.10566000000E+00  0.10566000000E+00 0.  1.
     999900   -1    0    0    0    0 -0.00000000000E+00 -0.00000000000E+00 -0.74505805969E-08  0.93827000000E+00  0.93827000000E+00 0. -1.
     999902    2    1    2    0    0  0.37075614612E-02  0.13869971552E-01 -0.18796426652E-01  0.10202777744E+01  0.10200035829E+01 0.  0.
     999903    2    3    3    0    0 -0.40115266111E-01 -0.16546864565E-01 -0.12354268514E+00  0.13246168822E+00  0.20006761160E-01 0.  0.
         14    1    1    2    0    0 -0.37075614612E-02 -0.13869971552E-01  0.18796426652E-01  0.23652225640E-01  0.00000000000E+00 0.  1.
     999901    1    3    3    0    0  0.43822827572E-01  0.30416836117E-01  0.10474625849E+00  0.88781608614E+00  0.88000000000E+00 0.  1.
        -11    1    4    4    0    0 -0.18594723728E-01  0.28321148285E-02 -0.49421774922E-01  0.52882488428E-01  0.51100000000E-03 0.  1.
         11    1    4    4    0    0 -0.21520542383E-01 -0.19378979393E-01 -0.74120910223E-01  0.79579199795E-01  0.51100000000E-03 0. -1.
</event>
<event>
 8    1  0.1163913E+005  0.1043930E+01  0.7957747E-01            NaN
         13   -1    0    0    0    0  0.00000000000E+00  0.00000000000E+00  0.74505805969E-08  0.10566000000E+00  0.10566000000E+00 0.  1.
     999900   -1    0    0    0    0 -0.00000000000E+00 -0.00000000000E+00 -0.74505805969E-08  0.93827000000E+00  0.93827000000E+00 0.  1.
     999902    2    1    2    0    0 -0.32808072192E-02  0.19831790013E-01 -0.25717965389E-01  0.10112883497E+01  0.10107614204E+01 0.  0.
     999903    2    3    3    0    0  0.71968449336E-01 -0.82964962050E-01  0.42792434154E-01  0.11947934677E+00  0.19531493951E-01 0.  0.
         14    1    1    2    0    0  0.32808072192E-02 -0.19831790013E-01  0.25717965389E-01  0.32641650309E-01  0.00000000000E+00 0.  1.
     999901    1    3    3    0    0 -0.75249256555E-01  0.10279675206E+00 -0.68510399543E-01  0.89180900292E+00  0.88000000000E+00 0.  1.
        -11    1    4    4    0    0  0.40897203982E-01 -0.33765643851E-01  0.15863306370E-01  0.55358880120E-01  0.51100000000E-03 0.  1.
         11    1    4    4    0    0  0.31071245354E-01 -0.49199318199E-01  0.26929127785E-01  0.64120466649E-01  0.51100000000E-03 0. -1.
</event>
<event>
 8    1  0.1163913E+005  0.1043930E+01  0.7957747E-01            NaN
         13   -1    0    0    0    0  0.00000000000E+00  0.00000000000E+00  0.74505805969E-08  0.10566000000E+00  0.10566000000E+00 0.  1.
     999900   -1    0    0    0    0 -0.00000000000E+00 -0.00000000000E+00 -0.74505805969E-08  0.93827000000E+00  0.93827000000E+00 0. -1.
     999902    2    1    2    0    0 -0.56093772485E-02  0.16579196813E-01 -0.16286532156E-01  0.10200221350E+01  0.10197419133E+01 0.  0.
     999903    2    3    3    0    0 -0.12504821747E-01 -0.11863234269E+00  0.40037963519E-01  0.12788864924E+00  0.22857488520E-01 0.  0.
         14    1    1    2    0    0  0.56093772485E-02 -0.16579196813E-01  0.16286532156E-01  0.23907865019E-01  0.00000000000E+00 0.  1.
     999901    1    3    3    0    0  0.68954444985E-02  0.13521153951E+00 -0.56324495675E-01  0.89213348574E+00  0.88000000000E+00 0. -1.
        -11    1    4    4    0    0 -0.74505158698E-02 -0.75126004934E-01  0.13556025601E-01  0.76703674979E-01  0.51100000000E-03 0. -1.
         11    1    4    4    0    0 -0.50543058772E-02 -0.43506337759E-01  0.26481937918E-01  0.51184974260E-01  0.51100000000E-03 0.  1.
</event>
<event>
 8    1  0.1163913E+005  0.1043930E+01  0.7957747E-01            NaN
         13   -1    0    0    0    0  0.00000000000E+00  0.00000000000E+00  0.74505805969E-08  0.10566000000E+00  0.10566000000E+00 0. -1.
     999900   -1    0    0    0    0 -0.00000000000E+00 -0.00000000000E+00 -0.74505805969E-08  0.93827000000E+00  0.93827000000E+00 0. -1.
     999902    2    1    2    0    0 -0.21361110815E-01  0.16458571336E-02 -0.94974295171E-02  0.10204948327E+01  0.10202257086E+01 0.  0.
     999903    2    3    3    0    0 -0.12405889836E-01  0.12852466629E+00 -0.13013203405E-01  0.13134310834E+00  0.20228017603E-01 0.  0.
         14    1    1    2    0    0  0.21361110815E-01 -0.16458571336E-02  0.94974295171E-02  0.23435167342E-01  0.00000000000E+00 0. -1.
     999901    1    3    3    0    0 -0.89552209787E-02 -0.12687880916E+00  0.35157738874E-02  0.88915172432E+00  0.88000000000E+00 0. -1.
        -11    1    4    4    0    0 -0.16016207697E-01  0.10170347136E+00 -0.15675433036E-01  0.10414458852E+00  0.51100000000E-03 0. -1.
         11    1    4    4    0    0  0.36103178612E-02  0.26821194932E-01  0.26622296310E-02  0.27198519817E-01  0.51100000000E-03 0.  1.
</event>
<event>
 8    1  0.1163913E+005  0.1043930E+01  0.7957747E-01            NaN
         13   -1    0    0    0    0  0.00000000000E+00  0.00000000000E+00  0.74505805969E-08  0.10566000000E+00  0.10566000000E+00 0. -1.
     999900   -1    0    0    0    0 -0.00000000000E+00 -0.00000000000E+00 -0.74505805969E-08  0.93827000000E+00  0.93827000000E+00 0. -1.
     999902    2    1    2    0    0  0.55403149397E-02 -0.17171187210E-01  0.15054825203E-01  0.10204312230E+01  0.10201606189E+01 0.  0.
     999903    2    3    3    0    0  0.45173981686E-01  0.69909358719E-01  0.98843266770E-01  0.13128874173E+00  0.23210671265E-01 0.  0.
         14    1    1    2    0    0 -0.55403149397E-02  0.17171187210E-01 -0.15054825203E-01  0.23498777026E-01  0.00000000000E+00 0.  1.
     999901    1    3    3    0    0 -0.39633666746E-01 -0.87080545929E-01 -0.83788441567E-01  0.88914248125E+00  0.88000000000E+00 0. -1.
        -11    1    4    4    0    0 -0.21318546180E-02  0.73626235621E-02  0.12269521470E-01  0.14476025281E-01  0.51100000000E-03 0.  1.
         11    1    4    4    0    0  0.47305836304E-01  0.62546735157E-01  0.86573745299E-01  0.11681271645E+00  0.51100000000E-03 0. -1.
</event>
<event>
 8    1  0.1163913E+005  0.1043930E+01  0.7957747E-01            NaN
         13   -1    0    0    0    0  0.00000000000E+00  0.00000000000E+00  0.74505805969E-08  0.10566000000E+00  0.10566000000E+00 0. -1.
     999900   -1    0    0    0    0 -0.00000000000E+00 -0.00000000000E+00 -0.74505805969E-08  0.93827000000E+00  0.93827000000E+00 0.  1.
     999902    2    1    2    0    0  0.22554820411E-01 -0.44661995722E-03  0.45280417650E-02  0.10209208158E+01  0.10206614961E+01 0.  0.
     999903    2    3    3    0    0 -0.89666355181E-01 -0.45847167021E-01  0.78685057077E-01  0.12954319394E+00  0.21167969022E-01 0.  0.
         14    1    1    2    0    0 -0.22554820411E-01  0.44661995722E-03 -0.45280417650E-02  0.23009184153E-01  0.00000000000E+00 0. -1.
     999901    1    3    3    0    0  0.11222117559E+00  0.45400547064E-01 -0.74157015312E-01  0.89137762191E+00  0.88000000000E+00 0. -1.
        -11    1    4    4    0    0 -0.28150486645E-01 -0.10544516524E-01  0.12594558094E-01  0.32596330187E-01  0.51100000000E-03 0.  1.
         11    1    4    4    0    0 -0.61515868536E-01 -0.35302650497E-01  0.66090498984E-01  0.96946863749E-01  0.51100000000E-03 0. -1.
</event>
<event>
 8    1  0.1163913E+005  0.1043930E+01  0.7957747E-01            NaN
         13   -1    0    0    0    0  0.00000000000E+00  0.00000000000E+00  0.74505805969E-08  0.10566000000E+00  0.10566000000E+00 0. -1.
     999900   -1    0    0    0    0 -0.00000000000E+00 -0.00000000000E+00 -0.74505805969E-08  0.93827000000E+00  0.93827000000E+00 0. -1.
     999902    2    1    2    0    0  0.10014301043E-01 -0.19929618735E-01 -0.87779004400E-02  0.10199606975E+01  0.10196790166E+01 0.  0.
     999903    2    3    3    0    0  0.51920246880E-01  0.74917750624E-03 -0.11864992809E+00  0.13189787120E+00  0.24959360765E-01 0.  0.
         14    1    1    2    0    0 -0.10014301043E-01  0.19929618735E-01  0.87779004400E-02  0.23969302543E-01  0.00000000000E+00 0. -1.
     999901    1    3    3    0    0 -0.41905945837E-01 -0.20678796241E-01  0.10987202765E+00  0.88806282625E+00  0.88000000000E+00 0.  1.
        -11    1    4    4    0    0  0.14020677540E-01 -0.81437468640E-02 -0.54453773958E-01  0.56818787658E-01  0.51100000000E-03 0. -1.
         11    1    4    4    0    0  0.37899569340E-01  0.88929243702E-02 -0.64196154131E-01  0.75079083547E-01  0.51100000000E-03 0.  1.
</event>
<event>
 8    1  0.1163913E+005  0.1043930E+01  0.7957747E-01            NaN
         13   -1    0    0    0    0  0.00000000000E+00  0.00000000000E+00  0.74505805969E-08  0.10566000000E+00  0.10566000000E+00 0. -1.
     999900   -1    0    0    0    0 -0.00000000000E+00 -0.00000000000E+00 -0.74505805969E-08  0.93827000000E+00  0.93827000000E+00 0. -1.
     999902    2    1    2    0    0 -0.14580567171E-01  0.16176493530E-01  0.11947386312E-01  0.10190902753E+01  0.10187875035E+01 0.  0.
     999903    2    3    3    0    0  0.51718634696E-01  0.11753461822E+00  0.14582593071E-01  0.13079077746E+00  0.20108997787E-01 0.  0.
         14    1    1    2    0    0  0.14580567171E-01 -0.16176493530E-01 -0.11947386312E-01  0.24839724669E-01  0.00000000000E+00 0.  1.
     999901    1    3    3    0    0 -0.66299201867E-01 -0.10135812469E+00 -0.26352067590E-02  0.88829949787E+00  0.88000000000E+00 0. -1.
        -11    1    4    4    0    0  0.22699432131E-01  0.50560874555E-01  0.16320542714E-01  0.57777915247E-01  0.51100000000E-03 0.  1.
         11    1    4    4    0    0  0.29019202566E-01  0.66973743665E-01 -0.17379496427E-02  0.73012862210E-01  0.51100000000E-03 0. -1.
</event>
<event>
 8    1  0.1163913E+005  0.1043930E+01  0.7957747E-01            NaN
         13   -1    0    0    0    0  0.00000000000E+00  0.00000000000E+00  0.74505805969E-08  0.10566000000E+00  0.10566000000E+00 0. -1.
     999900   -1    0    0    0    0 -0.00000000000E+00 -0.00000000000E+00 -0.74505805969E-08  0.93827000000E+00  0.93827000000E+00 0. -1.
     999902    2    1    2    0    0  0.14639827741E-01 -0.14239303070E-01  0.10713804311E-01  0.10208677384E+01  0.10206072072E+01 0.  0.
     999903    2    3    3    0    0 -0.80113104789E-01 -0.40018383253E-01  0.94014074382E-01  0.13149626695E+00  0.20809648804E-01 0.  0.
         14    1    1    2    0    0 -0.14639827741E-01  0.14239303070E-01 -0.10713804311E-01  0.23062261619E-01  0.00000000000E+00 0.  1.
     999901    1    3    3    0    0  0.94752932529E-01  0.25779080183E-01 -0.83300270071E-01  0.88937147143E+00  0.88000000000E+00 0. -1.
        -11    1    4    4    0    0 -0.35402912504E-01 -0.24724047067E-01  0.56764061461E-01  0.71323660252E-01  0.51100000000E-03 0. -1.
         11    1    4    4    0    0 -0.44710192284E-01 -0.15294336186E-01  0.37250012920E-01  0.60172606700E-01  0.51100000000E-03 0.  1.
</event>
<event>
 8    1  0.1163913E+005  0.1043930E+01  0.7957747E-01            NaN
         13   -1    0    0    0    0  0.00000000000E+00  0.00000000000E+00  0.74505805969E-08  0.10566000000E+00  0.10566000000E+00 0. -1.
     999900   -1    0    0    0    0 -0.00000000000E+00 -0.00000000000E+00 -0.74505805969E-08  0.93827000000E+00  0.93827000000E+00 0.  1.
     999902    2    1    2    0    0 -0.21051653391E-01 -0.72441343227E-02 -0.80350864276E-02  0.10202611976E+01  0.10199866171E+01 0.  0.
     999903    2    3    3    0    0  0.52824877249E-02  0.47258706010E-01 -0.12041311665E+00  0.13105207245E+00  0.20347900704E-01 0.  0.
         14    1    1    2    0    0  0.21051653391E-01  0.72441343227E-02  0.80350864276E-02  0.23668802388E-01  0.00000000000E+00 0.  1.
     999901    1    3    3    0    0 -0.26334141115E-01 -0.54502840333E-01  0.11237803022E+00  0.88920912516E+00  0.88000000000E+00 0. -1.
        -11    1    4    4    0    0 -0.75200540244E-02  0.15396803083E-01 -0.34343305198E-01  0.38384065582E-01  0.51100000000E-03 0.  1.
         11    1    4    4    0    0  0.12802541749E-01  0.31861902927E-01 -0.86069811449E-01  0.92668006870E-01  0.51100000000E-03 0. -1.
</event>
<event>
 8    1  0.1163913E+005  0.1043930E+01  0.7957747E-01            NaN
         13   -1    0    0    0    0  0.00000000000E+00  0.00000000000E+00  0.74505805969E-08  0.10566000000E+00  0.10566000000E+00 0.  1.
     999900   -1    0    0    0    0 -0.00000000000E+00 -0.00000000000E+00 -0.74505805969E-08  0.93827000000E+00  0.93827000000E+00 0.  1.
     999902    2    1    2    0    0 -0.93090443696E-02 -0.20783201498E-01  0.32043536796E-02  0.10209328773E+01  0.10206738324E+01 0.  0.
     999903    2    3    3    0    0 -0.84855324128E-01 -0.55645062297E-01 -0.83083109458E-01  0.13280669478E+00  0.20928834413E-01 0.  0.
         14    1    1    2    0    0  0.93090443696E-02  0.20783201498E-01 -0.32043536796E-02  0.22997122735E-01  0.00000000000E+00 0. -1.
     999901    1    3    3    0    0  0.75546279759E-01  0.34861860800E-01  0.86287463137E-01  0.88812618249E+00  0.88000000000E+00 0. -1.
        -11    1    4    4    0    0 -0.60357545858E-01 -0.48668666712E-01 -0.56148657360E-01  0.95731945065E-01  0.51100000000E-03 0.  1.
         11    1    4    4    0    0 -0.24497778270E-01 -0.69763955848E-02 -0.26934452098E-01  0.37074749714E-01  0.51100000000E-03 0. -1.
</event>
<event>
 8    1  0.1163913E+005  0.1043930E+01  0.7957747E-01            NaN
         13   -1    0    0    0    0  0.00000000000E+00  0.00000000000E+00  0.74505805969E-08  0.10566000000E+00  0.10566000000E+00 0. -1.
     999900   -1    0    0    0    0 -0.00000000000E+00 -0.00000000000E+00 -0.74505805969E-08  0.93827000000E+00  0.93827000000E+00 0.  1.
     999902    2    1    2    0    0 -0.22911501209E-01  0.98517456808E-02 -0.22127751405E-03  0.10189892152E+01  0.10186839441E+01 0.  0.
     999903    2    3    3    0    0  0.88041257785E-01  0.64280103321E-01 -0.64251356461E-01  0.12804992895E+00  0.19630403517E-01 0.  0.
         14    1    1    2    0    0  0.22911501209E-01 -0.98517456808E-02  0.22127751405E-03  0.24940784758E-01  0.00000000000E+00 0. -1.
     999901    1    3    3    0    0 -0.11095275899E+00 -0.54428357640E-01  0.64030078947E-01  0.89093928629E+00  0.88000000000E+00 0. -1.
        -11    1    4    4    0    0  0.49485732215E-01  0.27802079900E-01 -0.24951283820E-01  0.62005008063E-01  0.51100000000E-03 0. -1.
         11    1    4    4    0    0  0.38555525570E-01  0.36478023421E-01 -0.39300072641E-01  0.66044920890E-01  0.51100000000E-03 0.  1.
</event>
<event>
 8    1  0.1163913E+005  0.1043930E+01  0.7957747E-01            NaN
         13   -1    0    0    0    0  0.00000000000E+00  0.00000000000E+00  0.74505805969E-08  0.10566000000E+00  0.10566000000E+00 0. -1.
     999900   -1    0    0    0    0 -0.00000000000E+00 -0.00000000000E+00 -0.74505805969E-08  0.93827000000E+00  0.93827000000E+00 0. -1.
     999902    2    1    2    0    0  0.19044272247E-01  0.16743453428E-01  0.10076286828E-02  0.10185520006E+01  0.10182357954E+01 0.  0.
     999903    2    3    3    0    0 -0.74397440018E-01  0.91970636277E-01 -0.47286959558E-01  0.12910113074E+00  0.20915745190E-01 0.  0.
         14    1    1    2    0    0 -0.19044272247E-01 -0.16743453428E-01 -0.10076286828E-02  0.25377999402E-01  0.00000000000E+00 0.  1.
     999901    1    3    3    0    0  0.93441712265E-01 -0.75227182849E-01  0.48294588240E-01  0.88945086985E+00  0.88000000000E+00 0.  1.
        -11    1    4    4    0    0 -0.17366589331E-01  0.19426021424E-01 -0.20061926838E-01  0.32889371579E-01  0.51100000000E-03 0.  1.
         11    1    4    4    0    0 -0.57030850687E-01  0.72544614852E-01 -0.27225032719E-01  0.96211759165E-01  0.51100000000E-03 0. -1.
</event>
<event>
 8    1  0.1163913E+005  0.1043930E+01  0.7957747E-01            NaN
         13   -1    0    0    0    0  0.00000000000E+00  0.00000000000E+00  0.74505805969E-08  0.10566000000E+00  0.10566000000E+00 0.  1.
     999900   -1    0    0    0    0 -0.00000000000E+00 -0.00000000000E+00 -0.74505805969E-08  0.93827000000E+00  0.93827000000E+00 0.  1.
     999902    2    1    2    0    0  0.33576718546E-02  0.18779802129E-01 -0.16744440313E-01  0.10185463200E+01  0.10182299715E+01 0.  0.
     999903    2    3    3    0    0  0.46768501998E-01  0.11967951546E+00  0.15376182642E-01  0.13113605033E+00  0.21207486959E-01 0.  0.
         14    1    1    2    0    0 -0.33576718546E-02 -0.18779802129E-01  0.16744440313E-01  0.25383679987E-01  0.00000000000E+00 0.  1.
     999901    1    3    3    0    0 -0.43410830143E-01 -0.10089971333E+00 -0.32120622955E-01  0.88741026969E+00  0.88000000000E+00 0.  1.
        -11    1    4    4    0    0  0.95393273934E-02  0.13130946326E-01 -0.37365035953E-02  0.16662625803E-01  0.51100000000E-03 0. -1.
         11    1    4    4    0    0  0.37229174605E-01  0.10654856913E+00  0.19112686238E-01  0.11447342452E+00  0.51100000000E-03 0.  1.
</event>
<event>
 8    1  0.1163913E+005  0.1043930E+01  0.7957747E-01            NaN
         13   -1    0    0    0    0  0.00000000000E+00  0.00000000000E+00  0.74505805969E-08  0.10566000000E+00  0.10566000000E+00 0. -1.
     999900   -1    0    0    0    0 -0.00000000000E+00 -0.00000000000E+00 -0.74505805969E-08  0.93827000000E+00  0.93827000000E+00 0.  1.
     999902    2    1    2    0    0  0.17065814009E-01 -0.98543929320E-03  0.13776133438E-01  0.10219756166E+01  0.10217397741E+01 0.  0.
     999903    2    3    3    0    0  0.37875385732E-01  0.10810605169E+00 -0.61938900676E-01  0.13176959658E+00  0.20132955795E-01 0.  0.
         14    1    1    2    0    0 -0.17065814009E-01  0.98543929320E-03 -0.13776133438E-01  0.21954383410E-01  0.00000000000E+00 0. -1.
     999901    1    3    3    0    0 -0.20809571723E-01 -0.10909149098E+00  0.75715034114E-01  0.89020602001E+00  0.88000000000E+00 0. -1.
        -11    1    4    4    0    0  0.15406900544E-01  0.72466473970E-01 -0.41862460136E-01  0.85096939567E-01  0.51100000000E-03 0. -1.
         11    1    4    4    0    0  0.22468485188E-01  0.35639577717E-01 -0.20076440539E-01  0.46672657008E-01  0.51100000000E-03 0.  1.
</event>
<event>
 8    1  0.1163913E+005  0.1043930E+01  0.7957747E-01            NaN
         13   -1    0    0    0    0  0.00000000000E+00  0.00000000000E+00  0.74505805969E-08  0.10566000000E+00  0.10566000000E+00 0. -1.
     999900   -1    0    0    0    0 -0.00000000000E+00 -0.00000000000E+00 -0.74505805969E-08  0.93827000000E+00  0.93827000000E+00 0.  1.
     999902    2    1    2    0    0  0.21355536890E-01  0.16316625469E-01  0.99340085069E-02  0.10152773256E+01  0.10148729340E+01 0.  0.
     999903    2    3    3    0    0  0.61384845566E-02  0.82620565011E-01 -0.94644946063E-01  0.12647783824E+00  0.13234009018E-01 0.  0.
         14    1    1    2    0    0 -0.21355536890E-01 -0.16316625469E-01 -0.99340085069E-02  0.28652674353E-01  0.00000000000E+00 0.  1.
     999901    1    3    3    0    0  0.15217052333E-01 -0.66303939542E-01  0.10457895457E+00  0.88879948741E+00  0.88000000000E+00 0. -1.
        -11    1    4    4    0    0 -0.36444122107E-02  0.12563722687E-01 -0.16691016616E-01  0.21212732610E-01  0.51100000000E-03 0.  1.
         11    1    4    4    0    0  0.97828967673E-02  0.70056842324E-01 -0.77953929447E-01  0.10526510563E+00  0.51100000000E-03 0. -1.
</event>
<event>
 8    1  0.1163913E+005  0.1043930E+01  0.7957747E-01            NaN
         13   -1    0    0    0    0  0.00000000000E+00  0.00000000000E+00  0.74505805969E-08  0.10566000000E+00  0.10566000000E+00 0. -1.
     999900   -1    0    0    0    0 -0.00000000000E+00 -0.00000000000E+00 -0.74505805969E-08  0.93827000000E+00  0.93827000000E+00 0.  1.
     999902    2    1    2    0    0  0.14564380646E-01  0.17317201893E-02  0.17031190742E-01  0.10214537571E+01  0.10212064416E+01 0.  0.
     999903    2    3    3    0    0  0.39203078677E-01  0.65457927257E-01  0.10863353585E+00  0.13406484315E+00  0.18722057560E-01 0.  0.
         14    1    1    2    0    0 -0.14564380646E-01 -0.17317201893E-02 -0.17031190742E-01  0.22476242936E-01  0.00000000000E+00 0.  1.
     999901    1    3    3    0    0 -0.24638698031E-01 -0.63726207068E-01 -0.91602345107E-01  0.88738891391E+00  0.88000000000E+00 0.  1.
        -11    1    4    4    0    0  0.24564763286E-01  0.32243675447E-01  0.71128719039E-01  0.81869640251E-01  0.51100000000E-03 0. -1.
         11    1    4    4    0    0  0.14638315391E-01  0.33214251810E-01  0.37504816810E-01  0.52195202900E-01  0.51100000000E-03 0.  1.
</event>
<event>
 8    1  0.1163913E+005  0.1043930E+01  0.7957747E-01            NaN
         13   -1    0    0    0    0  0.00000000000E+00  0.00000000000E+00  0.74505805969E-08  0.10566000000E+00  0.10566000000E+00 0.  1.
     999900   -1    0    0    0    0 -0.00000000000E+00 -0.00000000000E+00 -0.74505805969E-08  0.93827000000E+00  0.93827000000E+00 0. -1.
     999902    2    1    2    0    0 -0.56159025087E-02 -0.17103448267E-01 -0.15637599892E-01  0.10200846475E+01  0.10198059067E+01 0.  0.
     999903    2    3    3    0    0  0.83040658031E-01 -0.79983012798E-01 -0.61222212017E-01  0.13222667341E+00  0.21040453753E-01 0.  0.
         14    1    1    2    0    0  0.56159025087E-02  0.17103448267E-01  0.15637599892E-01  0.23845352461E-01  0.00000000000E+00 0.  1.
     999901    1    3    3    0    0 -0.88656560540E-01  0.62879564531E-01  0.45584612125E-01  0.88785797413E+00  0.88000000000E+00 0. -1.
        -11    1    4    4    0    0  0.19232201051E-01 -0.84249233743E-02 -0.14864641251E-01  0.25730829206E-01  0.51100000000E-03 0. -1.
         11    1    4    4    0    0  0.63808456980E-01 -0.71558089424E-01 -0.46357570766E-01  0.10649584420E+00  0.51100000000E-03 0.  1.
</event>
<event>
 8    1  0.1163913E+005  0.1043930E+01  0.7957747E-01            NaN
         13   -1    0    0    0    0  0.00000000000E+00  0.00000000000E+00  0.74505805969E-08  0.10566000000E+00  0.10566000000E+00 0. -1.
     999900   -1    0    0    0    0 -0.00000000000E+00 -0.00000000000E+00 -0.74505805969E-08  0.93827000000E+00  0.93827000000E+00 0.  1.
     999902    2    1    2    0    0 -0.10913398431E-01 -0.19066535158E-01 -0.86344290861E-02  0.10203251616E+01  0.10200520806E+01 0.  0.
     999903    2    3    3    0    0 -0.82029095516E-01 -0.63992310266E-01 -0.80940432775E-01  0.13336184458E+00  0.20254373558E-01 0.  0.
         14    1    1    2    0    0  0.10913398431E-01  0.19066535158E-01  0.86344290861E-02  0.23604838357E-01  0.00000000000E+00 0.  1.
     999901    1    3    3    0    0  0.71115697085E-01  0.44925775108E-01  0.72306003689E-01  0.88696331706E+00  0.88000000000E+00 0. -1.
        -11    1    4    4    0    0 -0.34446571379E-01 -0.17427850336E-01 -0.21959023850E-01  0.44415719025E-01  0.51100000000E-03 0. -1.
         11    1    4    4    0    0 -0.47582524137E-01 -0.46564459930E-01 -0.58981408925E-01  0.88946125557E-01  0.51100000000E-03 0.  1.
</event>
<event>
 8    1  0.1163913E+005  0.1043930E+01  0.7957747E-01            NaN
         13   -1    0    0    0    0  0.00000000000E+00  0.00000000000E+00  0.74505805969E-08  0.10566000000E+00  0.10566000000E+00 0. -1.
     999900   -1    0    0    0    0 -0.00000000000E+00 -0.00000000000E+00 -0.74505805969E-08  0.93827000000E+00  0.93827000000E+00 0.  1.
     999902    2    1    2    0    0 -0.10465936815E-01  0.65460076013E-02  0.20798731791E-01  0.10197437789E+01  0.10194569148E+01 0.  0.
     999903    2    3    3    0    0  0.21277976989E-01 -0.12238018631E+00 -0.27221509941E-01  0.12848871820E+00  0.18403200626E-01 0.  0.
         14    1    1    2    0    0  0.10465936815E-01 -0.65460076013E-02 -0.20798731791E-01  0.24186221141E-01  0.00000000000E+00 0.  1.
     999901    1    3    3    0    0 -0.31743913804E-01  0.12892619392E+00  0.48020241733E-01  0.89125506066E+00  0.88000000000E+00 0.  1.
        -11    1    4    4    0    0  0.21789076969E-01 -0.73526173968E-01 -0.17856720822E-01  0.78739988145E-01  0.51100000000E-03 0. -1.
         11    1    4    4    0    0 -0.51109998000E-03 -0.48854012346E-01 -0.93647891193E-02  0.49748730052E-01  0.51100000000E-03 0.  1.
</event>
<event>
 8    1  0.1163913E+005  0.1043930E+01  0.7957747E-01            NaN
         13   -1    0    0    0    0  0.00000000000E+00  0.00000000000E+00  0.74505805969E-08  0.10566000000E+00  0.10566000000E+00 0.  1.
     999900   -1    0    0    0    0 -0.00000000000E+00 -0.00000000000E+00 -0.74505805969E-08  0.93827000000E+00  0.93827000000E+00 0.  1.
     999902    2    1    2    0    0 -0.10606590421E-01 -0.12221034852E-01  0.82326537999E-02  0.10257742835E+01  0.10256135971E+01 0.  0.
     999903    2    3    3    0    0  0.64350430201E-01  0.30903495420E-01  0.11315985649E+00  0.13533169808E+00  0.20334981897E-01 0.  0.
         14    1    1    2    0    0  0.10606590421E-01  0.12221034852E-01 -0.82326537999E-02  0.18155716505E-01  0.00000000000E+00 0. -1.
     999901    1    3    3    0    0 -0.74957020622E-01 -0.43124530272E-01 -0.10492720269E+00  0.89044258541E+00  0.88000000000E+00 0.  1.
        -11    1    4    4    0    0  0.53281972201E-01  0.33164267296E-01  0.92565635784E-01  0.11183691357E+00  0.51100000000E-03 0.  1.
         11    1    4    4    0    0  0.11068458000E-01 -0.22607718757E-02  0.20594220706E-01  0.23494784517E-01  0.51100000000E-03 0. -1.
</event>
<event>
 8    1  0.1163913E+005  0.1043930E+01  0.7957747E-01            NaN
         13   -1    0    0    0    0  0.00000000000E+00  0.00000000000E+00  0.74505805969E-08  0.10566000000E+00  0.10566000000E+00 0. -1.
     999900   -1    0    0    0    0 -0.00000000000E+00 -0.00000000000E+00 -0.74505805969E-08  0.93827000000E+00  0.93827000000E+00 0. -1.
     999902    2    1    2    0    0  0.96633564663E-02 -0.23049760815E-01  0.22063575605E-03  0.10189355884E+01  0.10186289868E+01 0.  0.
     999903    2    3    3    0    0  0.11565619316E+00 -0.18801133856E-01 -0.54861001126E-01  0.13085534484E+00  0.19584539238E-01 0.  0.
         14    1    1    2    0    0 -0.96633564663E-02  0.23049760815E-01 -0.22063575605E-03  0.24994411614E-01  0.00000000000E+00 0. -1.
     999901    1    3    3    0    0 -0.10599283669E+00 -0.42486269585E-02  0.55081636883E-01  0.88808024355E+00  0.88000000000E+00 0.  1.
        -11    1    4    4    0    0  0.14892129727E-01 -0.62945655708E-02 -0.14037665531E-01  0.21417615603E-01  0.51100000000E-03 0. -1.
         11    1    4    4    0    0  0.10076406343E+00 -0.12506568285E-01 -0.40823335595E-01  0.10943772923E+00  0.51100000000E-03 0.  1.
</event>
<event>
 8    1  0.1163913E+005  0.1043930E+01  0.7957747E-01            NaN
         13   -1    0    0    0    0  0.00000000000E+00  0.00000000000E+00  0.74505805969E-08  0.10566000000E+00  0.10566000000E+00 0. -1.
     999900   -1    0    0    0    0 -0.00000000000E+00 -0.00000000000E+00 -0.74505805969E-08  0.93827000000E+00  0.93827000000E+00 0.  1.
     999902    2    1    2    0    0 -0.18255298384E-01 -0.13971982162E-01  0.59694850791E-02  0.10201790641E+01  0.10199025521E+01 0.  0.
     999903    2    3    3    0    0  0.11722585221E+00  0.46879198674E-01 -0.62920882260E-02  0.12764987434E+00  0.17757825035E-01 0.  0.
         14    1    1    2    0    0  0.18255298384E-01  0.13971982162E-01 -0.59694850791E-02  0.23750935913E-01  0.00000000000E+00 0. -1.
     999901    1    3    3    0    0 -0.13548115059E+00 -0.60851180836E-01  0.12261573305E-01  0.89252918975E+00  0.88000000000E+00 0. -1.
        -11    1    4    4    0    0  0.90453942815E-01  0.28286735042E-01 -0.22526952386E-02  0.94801850757E-01  0.51100000000E-03 0. -1.
         11    1    4    4    0    0  0.26771909393E-01  0.18592463632E-01 -0.40393929874E-02  0.32848023581E-01  0.51100000000E-03 0.  1.
</event>
<event>
 8    1  0.1163913E+005  0.1043930E+01  0.7957747E-01            NaN
         13   -1    0    0    0    0  0.00000000000E+00  0.00000000000E+00  0.74505805969E-08  0.10566000000E+00  0.10566000000E+00 0.  1.
     999900   -1    0    0    0    0 -0.00000000000E+00 -0.00000000000E+00 -0.74505805969E-08  0.93827000000E+00  0.93827000000E+00 0. -1.
     999902    2    1    2    0    0 -0.78250046972E-02  0.11263572586E-01 -0.19059152165E-01  0.10204491557E+01  0.10201789693E+01 0.  0.
     999903    2    3    3    0    0  0.55667462191E-01 -0.35764840428E-02 -0.11865262438E+00  0.13243430207E+00  0.18674621982E-01 0.  0.
         14    1    1    2    0    0  0.78250046972E-02 -0.11263572586E-01  0.19059152165E-01  0.23480844260E-01  0.00000000000E+00 0.  1.
     999901    1    3    3    0    0 -0.63492466888E-01  0.14840056628E-01  0.99593472219E-01  0.88801485367E+00  0.88000000000E+00 0.  1.
        -11    1    4    4    0    0  0.20290366461E-01 -0.99383524175E-02 -0.52185005361E-01  0.56868319171E-01  0.51100000000E-03 0.  1.
         11    1    4    4    0    0  0.35377095730E-01  0.63618683747E-02 -0.66467619024E-01  0.75565982897E-01  0.51100000000E-03 0. -1.
</event>
<event>
 8    1  0.1163913E+005  0.1043930E+01  0.7957747E-01            NaN
         13   -1    0    0    0    0  0.00000000000E+00  0.00000000000E+00  0.74505805969E-08  0.10566000000E+00  0.10566000000E+00 0. -1.
     999900   -1    0    0    0    0 -0.00000000000E+00 -0.00000000000E+00 -0.74505805969E-08  0.93827000000E+00  0.93827000000E+00 0.  1.
     999902    2    1    2    0    0 -0.93943949042E-02  0.99314643471E-02 -0.19322861163E-01  0.10202601541E+01  0.10199855492E+01 0.  0.
     999903    2    3    3    0    0 -0.92799013413E-01  0.75613435263E-01 -0.54822683887E-01  0.13316901502E+00  0.19985279812E-01 0.  0.
         14    1    1    2    0    0  0.93943949042E-02 -0.99314643471E-02  0.19322861163E-01  0.23669845864E-01  0.00000000000E+00 0.  1.
     999901    1    3    3    0    0  0.83404618509E-01 -0.65681970916E-01  0.35499822724E-01  0.88709113912E+00  0.88000000000E+00 0. -1.
        -11    1    4    4    0    0 -0.48044629401E-01  0.30517148183E-01 -0.17824956507E-01  0.59645393309E-01  0.51100000000E-03 0. -1.
         11    1    4    4    0    0 -0.44754384012E-01  0.45096287080E-01 -0.36997727380E-01  0.73523621707E-01  0.51100000000E-03 0.  1.
</event>
<event>
 8    1  0.1163913E+005  0.1043930E+01  0.7957747E-01            NaN
         13   -1    0    0    0    0  0.00000000000E+00  0.00000000000E+00  0.74505805969E-08  0.10566000000E+00  0.10566000000E+00 0.  1.
     999900   -1    0    0    0    0 -0.00000000000E+00 -0.00000000000E+00 -0.74505805969E-08  0.93827000000E+00  0.93827000000E+00 0. -1.
     999902    2    1    2    0    0 -0.17384174829E-01 -0.19814983489E-02  0.14808416401E-01  0.10210078477E+01  0.10207505082E+01 0.  0.
     999903    2    3    3    0    0 -0.28239749060E-02  0.70578948533E-01 -0.10673632441E+00  0.12957633496E+00  0.20199525278E-01 0.  0.
         14    1    1    2    0    0  0.17384174829E-01  0.19814983489E-02 -0.14808416401E-01  0.22922152310E-01  0.00000000000E+00 0. -1.
     999901    1    3    3    0    0 -0.14560199923E-01 -0.72560446882E-01  0.12154474081E+00  0.89143151273E+00  0.88000000000E+00 0.  1.
        -11    1    4    4    0    0 -0.78916532232E-02  0.10542718653E-01 -0.17635056567E-01  0.22015527436E-01  0.51100000000E-03 0. -1.
         11    1    4    4    0    0  0.50676783172E-02  0.60036229879E-01 -0.89101267847E-01  0.10756080752E+00  0.51100000000E-03 0.  1.
</event>
<event>
 8    1  0.1163913E+005  0.1043930E+01  0.7957747E-01            NaN
         13   -1    0    0    0    0  0.00000000000E+00  0.00000000000E+00  0.74505805969E-08  0.10566000000E+00  0.10566000000E+00 0.  1.
     999900   -1    0    0    0    0 -0.00000000000E+00 -0.00000000000E+00 -0.74505805969E-08  0.93827000000E+00  0.93827000000E+00 0. -1.
     999902    2    1    2    0    0 -0.13851254767E-01  0.42645165511E-02  0.20414990784E-01  0.10188937221E+01  0.10185860797E+01 0.  0.
     999903    2    3    3    0    0  0.18420999509E-01 -0.12234242604E+00 -0.26246147837E-01  0.12802443984E+00  0.19859367737E-01 0.  0.
         14    1    1    2    0    0  0.13851254767E-01 -0.42645165511E-02 -0.20414990784E-01  0.25036277853E-01  0.00000000000E+00 0. -1.
     999901    1    3    3    0    0 -0.32272254276E-01  0.12660694259E+00  0.46661138621E-01  0.89086928231E+00  0.88000000000E+00 0.  1.
        -11    1    4    4    0    0  0.55354713057E-02 -0.90822409966E-01 -0.15424468641E-01  0.92290448847E-01  0.51100000000E-03 0. -1.
         11    1    4    4    0    0  0.12885528203E-01 -0.31520016074E-01 -0.10821679196E-01  0.35733990989E-01  0.51100000000E-03 0.  1.
</event>
<event>
 8    1  0.1163913E+005  0.1043930E+01  0.7957747E-01            NaN
         13   -1    0    0    0    0  0.00000000000E+00  0.00000000000E+00  0.74505805969E-08  0.10566000000E+00  0.10566000000E+00 0.  1.
     999900   -1    0    0    0    0 -0.00000000000E+00 -0.00000000000E+00 -0.74505805969E-08  0.93827000000E+00  0.93827000000E+00 0. -1.
     999902    2    1    2    0    0 -0.20411877641E-01  0.11483013473E-01  0.81083508144E-04  0.10205096900E+01  0.10202409110E+01 0.  0.
     999903    2    3    3    0    0 -0.18433359201E-01  0.22151972122E-01 -0.12661422096E+00  0.13136997014E+00  0.19910035274E-01 0.  0.
         14    1    1    2    0    0  0.20411877641E-01 -0.11483013473E-01 -0.81083508144E-04  0.23420310028E-01  0.00000000000E+00 0.  1.
     999901    1    3    3    0    0 -0.19785184401E-02 -0.10668958649E-01  0.12669530447E+00  0.88913971983E+00  0.88000000000E+00 0.  1.
        -11    1    4    4    0    0 -0.14092978914E-01  0.76230695460E-02 -0.94526095633E-01  0.95875790065E-01  0.51100000000E-03 0.  1.
         11    1    4    4    0    0 -0.43403802876E-02  0.14528902576E-01 -0.32088125326E-01  0.35494180073E-01  0.51100000000E-03 0. -1.
</event>
<event>
 8    1  0.1163913E+005  0.1043930E+01  0.7957747E-01            NaN
         13   -1    0    0    0    0  0.00000000000E+00  0.00000000000E+00  0.74505805969E-08  0.10566000000E+00  0.10566000000E+00 0.  1.
     999900   -1    0    0    0    0 -0.00000000000E+00 -0.00000000000E+00 -0.74505805969E-08  0.93827000000E+00  0.93827000000E+00 0. -1.
     999902    2    1    2    0    0 -0.23714975153E-01 -0.29414524572E-01  0.52306845685E-02  0.10057858738E+01  0.10050623113E+01 0.  0.
     999903    2    3    3    0    0 -0.11286720510E+00  0.13041636903E-01 -0.31985060616E-01  0.11948137904E+00  0.18538218761E-01 0.  0.
         14    1    1    2    0    0  0.23714975153E-01  0.29414524572E-01 -0.52306845685E-02  0.38144126198E-01  0.00000000000E+00 0. -1.
     999901    1    3    3    0    0  0.89152229942E-01 -0.42456161476E-01  0.37215745185E-01  0.88630449476E+00  0.88000000000E+00 0. -1.
        -11    1    4    4    0    0 -0.33423917541E-01 -0.38189608039E-02 -0.57382575460E-02  0.34131092073E-01  0.51100000000E-03 0. -1.
         11    1    4    4    0    0 -0.79443287554E-01  0.16860597707E-01 -0.26246803070E-01  0.85350286964E-01  0.51100000000E-03 0.  1.
</event>
<event>
 8    1  0.1163913E+005  0.1043930E+01  0.7957747E-01            NaN
         13   -1    0    0    0    0  0.00000000000E+00  0.00000000000E+00  0.74505805969E-08  0.10566000000E+00  0.10566000000E+00 0.  1.
     999900   -1    0    0    0    0 -0.00000000000E+00 -0.00000000000E+00 -0.74505805969E-08  0.93827000000E+00  0.93827000000E+00 0.  1.
     999902    2    1    2    0    0  0.31053794880E-02 -0.33667806772E-02  0.23155068698E-01  0.10203262757E+01  0.10200532207E+01 0.  0.
     999903    2    3    3    0    0 -0.11424912593E+00 -0.45505090562E-01  0.42011918830E-01  0.13133623195E+00  0.18990220048E-01 0.  0.
         14    1    1    2    0    0 -0.31053794880E-02  0.33667806772E-02 -0.23155068698E-01  0.23603724289E-01  0.00000000000E+00 0. -1.
     999901    1    3    3    0    0  0.11735450542E+00  0.42138309885E-01 -0.18856850132E-01  0.88899004376E+00  0.88000000000E+00 0.  1.
        -11    1    4    4    0    0 -0.62218859937E-01 -0.23393851492E-01  0.32546106890E-01  0.74013302955E-01  0.51100000000E-03 0. -1.
         11    1    4    4    0    0 -0.52030265992E-01 -0.22111239069E-01  0.94658119396E-02  0.57322929000E-01  0.51100000000E-03 0.  1.
</event>
<event>
 8    1  0.1163913E+005  0.1043930E+01  0.7957747E-01            NaN
         13   -1    0    0    0    0  0.00000000000E+00  0.00000000000E+00  0.74505805969E-08  0.10566000000E+00  0.10566000000E+00 0.  1.
     999900   -1    0    0    0    0 -0.00000000000E+00 -0.00000000000E+00 -0.74505805969E-08  0.93827000000E+00  0.93827000000E+00 0.  1.
     999902    2    1    2    0    0 -0.97703498070E-02  0.19599737797E-01 -0.99411071092E-02  0.10198793229E+01  0.10195957033E+01 0.  0.
     999903    2    3    3    0    0  0.52198264491E-02 -0.12549795399E+00 -0.13885158427E-01  0.12786273054E+00  0.19470418406E-01 0.  0.
         14    1    1    2    0    0  0.97703498070E-02 -0.19599737797E-01  0.99411071092E-02  0.24050677072E-01  0.00000000000E+00 0.  1.
     999901    1    3    3    0    0 -0.14990176256E-01  0.14509769179E+00  0.39440513179E-02  0.89201659238E+00  0.88000000000E+00 0. -1.
        -11    1    4    4    0    0  0.95678108353E-02 -0.73750095645E-01 -0.15226800200E-01  0.75912687854E-01  0.51100000000E-03 0.  1.
         11    1    4    4    0    0 -0.43479843863E-02 -0.51747858349E-01  0.13416417729E-02  0.51950042690E-01  0.51100000000E-03 0. -1.
</event>
<event>
 8    1  0.1163913E+005  0.1043930E+01  0.7957747E-01            NaN
         13   -1    0    0    0    0  0.00000000000E+00  0.00000000000E+00  0.74505805969E-08  0.10566000000E+00  0.10566000000E+00 0. -1.
     999900   -1    0    0    0    0 -0.00000000000E+00 -0.00000000000E+00 -0.74505805969E-08  0.93827000000E+00  0.93827000000E+00 0. -1.
     999902    2    1    2    0    0  0.10731707501E-01  0.11130808478E-01  0.17731599948E-01  0.10204039702E+01  0.10201327307E+01 0.  0.
     999903    2    3    3    0    0  0.10172354710E+00  0.82683988221E-01  0.93273950726E-03  0.13266438328E+00  0.20362874175E-01 0.  0.
         14    1    1    2    0    0 -0.10731707501E-01 -0.11130808478E-01 -0.17731599948E-01  0.23526029839E-01  0.00000000000E+00 0.  1.
     999901    1    3    3    0    0 -0.90991839601E-01 -0.71553179743E-01  0.16798860441E-01  0.88773958688E+00  0.88000000000E+00 0. -1.
        -11    1    4    4    0    0  0.26103882405E-01  0.30455816767E-01  0.62845983605E-02  0.40604516363E-01  0.51100000000E-03 0. -1.
         11    1    4    4    0    0  0.75619664697E-01  0.52228171454E-01 -0.53518588533E-02  0.92059866916E-01  0.51100000000E-03 0.  1.
</event>
<event>
 8    1  0.1163913E+005  0.1043930E+01  0.7957747E-01            NaN
         13   -1    0    0    0    0  0.00000000000E+00  0.00000000000E+00  0.74505805969E-08  0.10566000000E+00  0.10566000000E+00 0. -1.
     999900   -1    0    0    0    0 -0.00000000000E+00 -0.00000000000E+00 -0.74505805969E-08  0.93827000000E+00  0.93827000000E+00 0.  1.
     999902    2    1    2    0    0  0.21481213685E-01  0.42112819472E-02 -0.68658703933E-02  0.10209883869E+01  0.10207306053E+01 0.  0.
     999903    2    3    3    0    0  0.13087787628E+00  0.97188334046E-02  0.16713944337E-01  0.13388412548E+00  0.20545775614E-01 0.  0.
         14    1    1    2    0    0 -0.21481213685E-01 -0.42112819472E-02  0.68658703933E-02  0.22941613136E-01  0.00000000000E+00 0.  1.
     999901    1    3    3    0    0 -0.10939666260E+00 -0.55075514575E-02 -0.23579814730E-01  0.88710426139E+00  0.88000000000E+00 0. -1.
        -11    1    4    4    0    0  0.82359420227E-01  0.15435570179E-01  0.13959836212E-01  0.84949803266E-01  0.51100000000E-03 0.  1.
         11    1    4    4    0    0  0.48518456057E-01 -0.57167367742E-02  0.27541081246E-02  0.48934322209E-01  0.51100000000E-03 0. -1.
</event>
<event>
 8    1  0.1163913E+005  0.1043930E+01  0.7957747E-01            NaN
         13   -1    0    0    0    0  0.00000000000E+00  0.00000000000E+00  0.74505805969E-08  0.10566000000E+00  0.10566000000E+00 0. -1.
     999900   -1    0    0    0    0 -0.00000000000E+00 -0.00000000000E+00 -0.74505805969E-08  0.93827000000E+00  0.93827000000E+00 0.  1.
     999902    2    1    2    0    0  0.17517073714E-02  0.14252187326E-01 -0.20971926959E-01  0.10185131740E+01  0.10181959883E+01 0.  0.
     999903    2    3    3    0    0  0.92281355508E-01 -0.44915001807E-01 -0.76726268788E-01  0.13014111228E+00  0.22728458383E-01 0.  0.
         14    1    1    2    0    0 -0.17517073714E-02 -0.14252187326E-01  0.20971926959E-01  0.25416825976E-01  0.00000000000E+00 0. -1.
     999901    1    3    3    0    0 -0.90529648137E-01  0.59167189134E-01  0.55754341829E-01  0.88837206175E+00  0.88000000000E+00 0. -1.
        -11    1    4    4    0    0  0.77589741265E-01 -0.40499754839E-01 -0.73863517990E-01  0.11452719547E+00  0.51100000000E-03 0.  1.
         11    1    4    4    0    0  0.14691614243E-01 -0.44152469689E-02 -0.28627507985E-02  0.15613916806E-01  0.51100000000E-03 0. -1.
</event>
<event>
 8    1  0.1163913E+005  0.1043930E+01  0.7957747E-01            NaN
         13   -1    0    0    0    0  0.00000000000E+00  0.00000000000E+00  0.74505805969E-08  0.10566000000E+00  0.10566000000E+00 0. -1.
     999900   -1    0    0    0    0 -0.00000000000E+00 -0.00000000000E+00 -0.74505805969E-08  0.93827000000E+00  0.93827000000E+00 0.  1.
     999902    2    1    2    0    0 -0.12577985538E-01 -0.21060552765E-01 -0.91751747739E-03  0.10193822009E+01  0.10190865896E+01 0.  0.
     999903    2    3    3    0    0 -0.12456190355E+00 -0.37090819581E-01 -0.11672469894E-01  0.13207558176E+00  0.20403823932E-01 0.  0.
         14    1    1    2    0    0  0.12577985538E-01  0.21060552765E-01  0.91751747739E-03  0.24547799113E-01  0.00000000000E+00 0. -1.
     999901    1    3    3    0    0  0.11198391801E+00  0.16030266816E-01  0.10754952416E-01  0.88730661913E+00  0.88000000000E+00 0.  1.
        -11    1    4    4    0    0 -0.22996411999E-01 -0.15410073329E-01 -0.33187968452E-02  0.27885136871E-01  0.51100000000E-03 0. -1.
         11    1    4    4    0    0 -0.10156549155E+00 -0.21680746252E-01 -0.83536730484E-02  0.10419044489E+00  0.51100000000E-03 0.  1.
</event>
<event>
 8    1  0.1163913E+005  0.1043930E+01  0.7957747E-01            NaN
         13   -1    0    0    0    0  0.00000000000E+00  0.00000000000E+00  0.74505805969E-08  0.10566000000E+00  0.10566000000E+00 0.  1.
     999900   -1    0    0    0    0 -0.00000000000E+00 -0.00000000000E+00 -0.74505805969E-08  0.93827000000E+00  0.93827000000E+00 0.  1.
     999902    2    1    2    0    0 -0.17490819075E-01  0.44629534573E-02 -0.15270665592E-01  0.10202859747E+01  0.10200119755E+01 0.  0.
     999903    2    3    3    0    0 -0.10294935807E+00  0.36707554017E-01 -0.75101358924E-01  0.13353765187E+00  0.15686794017E-01 0.  0.
         14    1    1    2    0    0  0.17490819075E-01 -0.44629534573E-02  0.15270665592E-01  0.23644025315E-01  0.00000000000E+00 0.  1.
     999901    1    3    3    0    0  0.85458538990E-01 -0.32244600560E-01  0.59830693332E-01  0.88674832282E+00  0.88000000000E+00 0. -1.
        -11    1    4    4    0    0 -0.91750058510E-01  0.37603115315E-01 -0.66823144200E-01  0.11957282818E+00  0.51100000000E-03 0.  1.
         11    1    4    4    0    0 -0.11199299555E-01 -0.89556129729E-03 -0.82782147239E-02  0.13964823686E-01  0.51100000000E-03 0. -1.
</event>
<event>
 8    1  0.1163913E+005  0.1043930E+01  0.7957747E-01            NaN
         13   -1    0    0    0    0  0.00000000000E+00  0.00000000000E+00  0.74505805969E-08  0.10566000000E+00  0.10566000000E+00 0.  1.
     999900   -1    0    0    0    0 -0.00000000000E+00 -0.00000000000E+00 -0.74505805969E-08  0.93827000000E+00  0.93827000000E+00 0. -1.
     999902    2    1    2    0    0 -0.17418196059E-01  0.56526349345E-02 -0.14805647739E-01  0.10203810501E+01  0.10201092757E+01 0.  0.
     999903    2    3    3    0    0 -0.72727635570E-01 -0.96498273742E-01  0.45564738511E-01  0.13069654099E+00  0.20105089414E-01 0.  0.
         14    1    1    2    0    0  0.17418196059E-01 -0.56526349345E-02  0.14805647739E-01  0.23548949884E-01  0.00000000000E+00 0.  1.
     999901    1    3    3    0    0  0.55309439510E-01  0.10215090868E+00 -0.60370386250E-01  0.88968450913E+00  0.88000000000E+00 0. -1.
        -11    1    4    4    0    0 -0.59548501241E-01 -0.86985470264E-01  0.34083111370E-01  0.11078996181E+00  0.51100000000E-03 0. -1.
         11    1    4    4    0    0 -0.13179134329E-01 -0.95128034781E-02  0.11481627141E-01  0.19906579176E-01  0.51100000000E-03 0.  1.
</event>
<event>
 8    1  0.1178762E+005  0.1043930E+01  0.7957747E-01            NaN
         13   -1    0    0    0    0  0.00000000000E+00  0.00000000000E+00  0.74505805969E-08  0.10566000000E+00  0.10566000000E+00 0.  1.
     999900   -1    0    0    0    0 -0.00000000000E+00 -0.00000000000E+00 -0.74505805969E-08  0.93827000000E+00  0.93827000000E+00 0. -1.
     999902    2    1    2    0    0 -0.23695445501E-01  0.28562411093E-02  0.28974547938E-03  0.10200612714E+01  0.10197819773E+01 0.  0.
     999903    2    3    3    0    0 -0.11374701828E-01 -0.12592491934E+00 -0.24659552604E-01  0.13025294630E+00  0.19268298660E-01 0.  0.
         14    1    1    2    0    0  0.23695445501E-01 -0.28562411093E-02 -0.28974547938E-03  0.23868728563E-01  0.00000000000E+00 0. -1.
     999901    1    3    3    0    0 -0.12320743673E-01  0.12878116045E+00  0.24949298083E-01  0.88980832514E+00  0.88000000000E+00 0. -1.
        -11    1    4    4    0    0  0.18877179259E-02 -0.78553165295E-01 -0.17949608613E-01  0.80601568391E-01  0.51100000000E-03 0. -1.
         11    1    4    4    0    0 -0.13262419754E-01 -0.47371754042E-01 -0.67099439904E-02  0.49651377907E-01  0.51100000000E-03 0.  1.
</event>
<event>
 8    1  0.1208699E+005  0.1043930E+01  0.7957747E-01            NaN
         13   -1    0    0    0    0  0.00000000000E+00  0.00000000000E+00  0.74505805969E-08  0.10566000000E+00  0.10566000000E+00 0. -1.
     999900   -1    0    0    0    0 -0.00000000000E+00 -0.00000000000E+00 -0.74505805969E-08  0.93827000000E+00  0.93827000000E+00 0.  1.
     999902    2    1    2    0    0 -0.11347879957E-01  0.20785420688E-01  0.16885007037E-03  0.10202480110E+01  0.10199731209E+01 0.  0.
     999903    2    3    3    0    0 -0.72585890565E-02  0.64111889095E-01  0.11328558527E+00  0.13194102524E+00  0.20292581714E-01 0.  0.
         14    1    1    2    0    0  0.11347879957E-01 -0.20785420688E-01 -0.16885007037E-03  0.23681989001E-01  0.00000000000E+00 0.  1.
     999901    1    3    3    0    0 -0.40892909007E-02 -0.43326468407E-01 -0.11311673520E+00  0.88830698576E+00  0.88000000000E+00 0.  1.
        -11    1    4    4    0    0 -0.12696563816E-01  0.32501431382E-01  0.49784704449E-01  0.60797398733E-01  0.51100000000E-03 0. -1.
         11    1    4    4    0    0  0.54379747598E-02  0.31610457712E-01  0.63500880823E-01  0.71143626507E-01  0.51100000000E-03 0.  1.
</event>
<event>
 8    1  0.1163913E+005  0.1043930E+01  0.7957747E-01            NaN
         13   -1    0    0    0    0  0.00000000000E+00  0.00000000000E+00  0.74505805969E-08  0.10566000000E+00  0.10566000000E+00 0.  1.
     999900   -1    0    0    0    0 -0.00000000000E+00 -0.00000000000E+00 -0.74505805969E-08  0.93827000000E+00  0.93827000000E+00 0. -1.
     999902    2    1    2    0    0  0.74691555574E-02  0.22416606832E-01  0.46782008309E-02  0.10198431133E+01  0.10195586289E+01 0.  0.
     999903    2    3    3    0    0  0.75983892007E-02  0.82626904031E-01 -0.10014211399E+00  0.13157930398E+00  0.19993235238E-01 0.  0.
         14    1    1    2    0    0 -0.74691555574E-02 -0.22416606832E-01 -0.46782008309E-02  0.24086886673E-01  0.00000000000E+00 0. -1.
     999901    1    3    3    0    0 -0.12923364328E-03 -0.60210297200E-01  0.10482031482E+00  0.88826380934E+00  0.88000000000E+00 0.  1.
        -11    1    4    4    0    0 -0.65990991628E-02  0.21176980683E-01 -0.28796988960E-01  0.36352995953E-01  0.51100000000E-03 0. -1.
         11    1    4    4    0    0  0.14197488364E-01  0.61449923348E-01 -0.71345125025E-01  0.95226308031E-01  0.51100000000E-03 0.  1.
</event>
<event>
 8    1  0.1163913E+005  0.1043930E+01  0.7957747E-01            NaN
         13   -1    0    0    0    0  0.00000000000E+00  0.00000000000E+00  0.74505805969E-08  0.10566000000E+00  0.10566000000E+00 0.  1.
     999900   -1    0    0    0    0 -0.00000000000E+00 -0.00000000000E+00 -0.74505805969E-08  0.93827000000E+00  0.93827000000E+00 0.  1.
     999902    2    1    2    0    0  0.22353980750E-01 -0.17016864051E-02 -0.76651159440E-02  0.10202371700E+01  0.10199620252E+01 0.  0.
     999903    2    3    3    0    0 -0.59462739080E-01 -0.48241469070E-02 -0.11389455106E+00  0.13007515198E+00  0.19710065176E-01 0.  0.
         14    1    1    2    0    0 -0.22353980750E-01  0.17016864051E-02  0.76651159440E-02  0.23692830021E-01  0.00000000000E+00 0.  1.
     999901    1    3    3    0    0  0.81816719830E-01  0.31224605019E-02  0.10622943512E+00  0.89016201800E+00  0.88000000000E+00 0. -1.
        -11    1    4    4    0    0 -0.30661680393E-01 -0.64382780299E-02 -0.77759203492E-01  0.83835224799E-01  0.51100000000E-03 0. -1.
         11    1    4    4    0    0 -0.28801058688E-01  0.16141311229E-02 -0.36135347567E-01  0.46239927180E-01  0.51100000000E-03 0.  1.
</event>
<event>
 8    1  0.1163913E+005  0.1043930E+01  0.7957747E-01            NaN
         13   -1    0    0    0    0  0.00000000000E+00  0.00000000000E+00  0.74505805969E-08  0.10566000000E+00  0.10566000000E+00 0. -1.
     999900   -1    0    0    0    0 -0.00000000000E+00 -0.00000000000E+00 -0.74505805969E-08  0.93827000000E+00  0.93827000000E+00 0.  1.
     999902    2    1    2    0    0  0.15355337800E-01 -0.17969222295E-01  0.59822785059E-03  0.10202860319E+01  0.10200120341E+01 0.  0.
     999903    2    3    3    0    0 -0.45485784087E-01 -0.50416254358E-01 -0.11002870193E+00  0.13068344112E+00  0.19002401888E-01 0.  0.
         14    1    1    2    0    0 -0.15355337800E-01  0.17969222295E-01 -0.59822785059E-03  0.23643968055E-01  0.00000000000E+00 0.  1.
     999901    1    3    3    0    0  0.60841121886E-01  0.32447032062E-01  0.11062692978E+00  0.88960259082E+00  0.88000000000E+00 0. -1.
        -11    1    4    4    0    0 -0.25098942531E-01 -0.14726393762E-01 -0.51636697696E-01  0.59274220866E-01  0.51100000000E-03 0. -1.
         11    1    4    4    0    0 -0.20386841556E-01 -0.35689860595E-01 -0.58392004237E-01  0.71409220257E-01  0.51100000000E-03 0.  1.
</event>
<event>
 8    1  0.1163913E+005  0.1043930E+01  0.7957747E-01            NaN
         13   -1    0    0    0    0  0.00000000000E+00  0.00000000000E+00  0.74505805969E-08  0.10566000000E+00  0.10566000000E+00 0. -1.
     999900   -1    0    0    0    0 -0.00000000000E+00 -0.00000000000E+00 -0.74505805969E-08  0.93827000000E+00  0.93827000000E+00 0. -1.
     999902    2    1    2    0    0 -0.58594056959E-02  0.20301242464E-01 -0.10001814534E-01  0.10205524600E+01  0.10202846732E+01 0.  0.
     999903    2    3    3    0    0  0.18191278957E-01  0.43124315928E-01 -0.12291590044E+00  0.13271862485E+00  0.17756281870E-01 0.  0.
         14    1    1    2    0    0  0.58594056959E-02 -0.20301242464E-01  0.10001814534E-01  0.23377539962E-01  0.00000000000E+00 0. -1.
     999901    1    3    3    0    0 -0.24050684653E-01 -0.22823073464E-01  0.11291408591E+00  0.88783383519E+00  0.88000000000E+00 0.  1.
        -11    1    4    4    0    0  0.14259725018E-02  0.54468126250E-02 -0.36852411057E-01  0.37283541772E-01  0.51100000000E-03 0. -1.
         11    1    4    4    0    0  0.16765306455E-01  0.37677503303E-01 -0.86063489383E-01  0.95435083075E-01  0.51100000000E-03 0.  1.
</event>
<event>
 8    1  0.1163913E+005  0.1043930E+01  0.7957747E-01            NaN
         13   -1    0    0    0    0  0.00000000000E+00  0.00000000000E+00  0.74505805969E-08  0.10566000000E+00  0.10566000000E+00 0.  1.
     999900   -1    0    0    0    0 -0.00000000000E+00 -0.00000000000E+00 -0.74505805969E-08  0.93827000000E+00  0.93827000000E+00 0.  1.
     999902    2    1    2    0    0 -0.93346356985E-02  0.11401846590E-01 -0.15975049712E-01  0.10221966215E+01  0.10219655538E+01 0.  0.
     999903    2    3    3    0    0 -0.51891572920E-01  0.23641942932E-01 -0.12059536338E+00  0.13489378539E+00  0.20035340359E-01 0.  0.
         14    1    1    2    0    0  0.93346356985E-02 -0.11401846590E-01  0.15975049712E-01  0.21733378536E-01  0.00000000000E+00 0.  1.
     999901    1    3    3    0    0  0.42556937221E-01 -0.12240096341E-01  0.10462031367E+00  0.88730283607E+00  0.88000000000E+00 0. -1.
        -11    1    4    4    0    0 -0.29048664481E-01  0.56918258356E-02 -0.44586158317E-01  0.53520168385E-01  0.51100000000E-03 0.  1.
         11    1    4    4    0    0 -0.22842908439E-01  0.17950117096E-01 -0.76009205065E-01  0.81373617010E-01  0.51100000000E-03 0. -1.
</event>
<event>
 8    1  0.1163913E+005  0.1043930E+01  0.7957747E-01            NaN
         13   -1    0    0    0    0  0.00000000000E+00  0.00000000000E+00  0.74505805969E-08  0.10566000000E+00  0.10566000000E+00 0. -1.
     999900   -1    0    0    0    0 -0.00000000000E+00 -0.00000000000E+00 -0.74505805969E-08  0.93827000000E+00  0.93827000000E+00 0. -1.
     999902    2    1    2    0    0 -0.20755669316E-03  0.46811878449E-02  0.23101987014E-01  0.10203575923E+01  0.10200852699E+01 0.  0.
     999903    2    3    3    0    0  0.17233124989E-01  0.12851024160E+00 -0.21647652284E-02  0.13115782810E+00  0.19642476187E-01 0.  0.
         14    1    1    2    0    0  0.20755669316E-03 -0.46811878449E-02 -0.23101987014E-01  0.23572407671E-01  0.00000000000E+00 0.  1.
     999901    1    3    3    0    0 -0.17440681682E-01 -0.12382905376E+00  0.25266752242E-01  0.88919976423E+00  0.88000000000E+00 0.  1.
        -11    1    4    4    0    0 -0.16632444511E-02  0.52745882073E-01 -0.50647349384E-02  0.53017045549E-01  0.51100000000E-03 0.  1.
         11    1    4    4    0    0  0.18896369440E-01  0.75764359529E-01  0.28999697100E-02  0.78140782554E-01  0.51100000000E-03 0. -1.
</event>
<event>
 8    1  0.1163913E+005  0.1043930E+01  0.7957747E-01            NaN
         13   -1    0    0    0    0  0.00000000000E+00  0.00000000000E+00  0.74505805969E-08  0.10566000000E+00  0.10566000000E+00 0.  1.
     999900   -1    0    0    0    0 -0.00000000000E+00 -0.00000000000E+00 -0.74505805969E-08  0.93827000000E+00  0.93827000000E+00 0. -1.
     999902    2    1    2    0    0  0.19839010093E-01  0.10862855706E-01 -0.88275798733E-02  0.10196500881E+01  0.10193609704E+01 0.  0.
     999903    2    3    3    0    0  0.11085808515E-01  0.82099297635E-01 -0.10066770125E+00  0.13196441339E+00  0.20431116053E-01 0.  0.
         14    1    1    2    0    0 -0.19839010093E-01 -0.10862855706E-01  0.88275798733E-02  0.24279911902E-01  0.00000000000E+00 0. -1.
     999901    1    3    3    0    0  0.87532015774E-02 -0.71236441929E-01  0.91840121374E-01  0.88768567471E+00  0.88000000000E+00 0.  1.
        -11    1    4    4    0    0 -0.17182347952E-02  0.35951137527E-01 -0.31494509344E-01  0.47828881025E-01  0.51100000000E-03 0.  1.
         11    1    4    4    0    0  0.12804043311E-01  0.46148160108E-01 -0.69173191903E-01  0.84135532360E-01  0.51100000000E-03 0. -1.
</event>
<event>
 8    1  0.1163913E+005  0.1043930E+01  0.7957747E-01            NaN
         13   -1    0    0    0    0  0.00000000000E+00  0.00000000000E+00  0.74505805969E-08  0.10566000000E+00  0.10566000000E+00 0. -1.
     999900   -1    0    0    0    0 -0.00000000000E+00 -0.00000000000E+00 -0.74505805969E-08  0.93827000000E+00  0.93827000000E+00 0.  1.
     999902    2    1    2    0    0 -0.90576282701E-02 -0.80796063047E-03  0.21724422780E-01  0.10203791194E+01  0.10201072999E+01 0.  0.
     999903    2    3    3    0    0 -0.29960416997E-03  0.35611337676E-01  0.12621826447E+00  0.13340559603E+00  0.24448837047E-01 0.  0.
         14    1    1    2    0    0  0.90576282701E-02  0.80796063047E-03 -0.21724422780E-01  0.23550880565E-01  0.00000000000E+00 0.  1.
     999901    1    3    3    0    0 -0.87580241001E-02 -0.36419298306E-01 -0.10449384169E+00  0.88697352341E+00  0.88000000000E+00 0.  1.
        -11    1    4    4    0    0 -0.96751050446E-02  0.26242995334E-01  0.64952653106E-01  0.70720652770E-01  0.51100000000E-03 0. -1.
         11    1    4    4    0    0  0.93755008746E-02  0.93683423419E-02  0.61265611360E-01  0.62684943257E-01  0.51100000000E-03 0.  1.
</event>
<event>
 8    1  0.1163913E+005  0.1043930E+01  0.7957747E-01            NaN
         13   -1    0    0    0    0  0.00000000000E+00  0.00000000000E+00  0.74505805969E-08  0.10566000000E+00  0.10566000000E+00 0. -1.
     999900   -1    0    0    0    0 -0.00000000000E+00 -0.00000000000E+00 -0.74505805969E-08  0.93827000000E+00  0.93827000000E+00 0. -1.
     999902    2    1    2    0    0  0.14546883368E-01  0.13746880760E-01  0.14127833519E-01  0.10194313424E+01  0.10191369278E+01 0.  0.
     999903    2    3    3    0    0 -0.98335565885E-01  0.42015032340E-01  0.70941894702E-01  0.12995432001E+00  0.20499424480E-01 0.  0.
         14    1    1    2    0    0 -0.14546883368E-01 -0.13746880760E-01 -0.14127833519E-01  0.24498657642E-01  0.00000000000E+00 0.  1.
     999901    1    3    3    0    0  0.11288244925E+00 -0.28268151580E-01 -0.56814061183E-01  0.88947702235E+00  0.88000000000E+00 0.  1.
        -11    1    4    4    0    0 -0.23527650131E-01  0.13493636668E-01  0.85204546336E-02  0.28433920226E-01  0.51100000000E-03 0. -1.
         11    1    4    4    0    0 -0.74807915753E-01  0.28521395672E-01  0.62421440068E-01  0.10152039978E+00  0.51100000000E-03 0.  1.
</event>
<event>
 8    1  0.1163913E+005  0.1043930E+01  0.7957747E-01            NaN
         13   -1    0    0    0    0  0.00000000000E+00  0.00000000000E+00  0.74505805969E-08  0.10566000000E+00  0.10566000000E+00 0. -1.
     999900   -1    0    0    0    0 -0.00000000000E+00 -0.00000000000E+00 -0.74505805969E-08  0.93827000000E+00  0.93827000000E+00 0. -1.
     999902    2    1    2    0    0 -0.68159097172E-02  0.14304008602E-01 -0.17890422750E-01  0.10200317048E+01  0.10197517101E+01 0.  0.
     999903    2    3    3    0    0 -0.81149795125E-01 -0.91464381200E-01  0.35843744168E-01  0.12896501846E+00  0.19904263722E-01 0.  0.
         14    1    1    2    0    0  0.68159097172E-02 -0.14304008602E-01  0.17890422750E-01  0.23898295202E-01  0.00000000000E+00 0.  1.
     999901    1    3    3    0    0  0.74333885408E-01  0.10576838980E+00 -0.53734166918E-01  0.89106668633E+00  0.88000000000E+00 0. -1.
        -11    1    4    4    0    0 -0.41517341084E-01 -0.43250183562E-01  0.27620910178E-01  0.66010936889E-01  0.51100000000E-03 0. -1.
         11    1    4    4    0    0 -0.39632454041E-01 -0.48214197637E-01  0.82228339894E-02  0.62954081575E-01  0.51100000000E-03 0.  1.
</event>
<event>
 8    1  0.1163913E+005  0.1043930E+01  0.7957747E-01            NaN
         13   -1    0    0    0    0  0.00000000000E+00  0.00000000000E+00  0.74505805969E-08  0.10566000000E+00  0.10566000000E+00 0.  1.
     999900   -1    0    0    0    0 -0.00000000000E+00 -0.00000000000E+00 -0.74505805969E-08  0.93827000000E+00  0.93827000000E+00 0.  1.
     999902    2    1    2    0    0 -0.17642400772E-01  0.11770567273E-01 -0.11073290243E-01  0.10200047348E+01  0.10197241003E+01 0.  0.
     999903    2    3    3    0    0 -0.10041650781E+00 -0.18893321119E-01  0.78912618328E-01  0.13102256928E+00  0.22344567661E-01 0.  0.
         14    1    1    2    0    0  0.17642400772E-01 -0.11770567273E-01  0.11073290243E-01  0.23925265218E-01  0.00000000000E+00 0.  1.
     999901    1    3    3    0    0  0.82774107041E-01  0.30663888392E-01 -0.89985908571E-01  0.88898216551E+00  0.88000000000E+00 0.  1.
        -11    1    4    4    0    0 -0.68835310132E-01 -0.12600181567E-01  0.66406228870E-01  0.96473378971E-01  0.51100000000E-03 0.  1.
         11    1    4    4    0    0 -0.31581197681E-01 -0.62931395519E-02  0.12506389458E-01  0.34549190304E-01  0.51100000000E-03 0. -1.
</event>
<event>
 8    1  0.1163913E+005  0.1043930E+01  0.7957747E-01            NaN
         13   -1    0    0    0    0  0.00000000000E+00  0.00000000000E+00  0.74505805969E-08  0.10566000000E+00  0.10566000000E+00 0. -1.
     999900   -1    0    0    0    0 -0.00000000000E+00 -0.00000000000E+00 -0.74505805969E-08  0.93827000000E+00  0.93827000000E+00 0.  1.
     999902    2    1    2    0    0  0.22520667975E-01  0.79340544707E-02  0.33739802829E-02  0.10198154100E+01  0.10195302630E+01 0.  0.
     999903    2    3    3    0    0 -0.88015196807E-01  0.27925256137E-01  0.87521963650E-01  0.12869324745E+00  0.19374287543E-01 0.  0.
         14    1    1    2    0    0 -0.22520667975E-01 -0.79340544707E-02 -0.33739802829E-02  0.24114589968E-01  0.00000000000E+00 0.  1.
     999901    1    3    3    0    0  0.11053586478E+00 -0.19991201666E-01 -0.84147983367E-01  0.89112216259E+00  0.88000000000E+00 0.  1.
        -11    1    4    4    0    0 -0.51197432850E-01  0.21984525402E-01  0.41619057413E-01  0.69547850783E-01  0.51100000000E-03 0.  1.
         11    1    4    4    0    0 -0.36817763957E-01  0.59407307350E-02  0.45902906237E-01  0.59145396663E-01  0.51100000000E-03 0. -1.
</event>
<event>
 8    1  0.1163913E+005  0.1043930E+01  0.7957747E-01            NaN
         13   -1    0    0    0    0  0.00000000000E+00  0.00000000000E+00  0.74505805969E-08  0.10566000000E+00  0.10566000000E+00 0.  1.
     999900   -1    0    0    0    0 -0.00000000000E+00 -0.00000000000E+00 -0.74505805969E-08  0.93827000000E+00  0.93827000000E+00 0.  1.
     999902    2    1    2    0    0 -0.14340155198E-01  0.92387464124E-02  0.15998258101E-01  0.10205432784E+01  0.10202752787E+01 0.  0.
     999903    2    3    3    0    0  0.15140820269E-01  0.11895107526E+00 -0.48419263604E-01  0.13090540815E+00  0.20327273588E-01 0.  0.
         14    1    1    2    0    0  0.14340155198E-01 -0.92387464124E-02 -0.15998258101E-01  0.23386721631E-01  0.00000000000E+00 0. -1.
     999901    1    3    3    0    0 -0.29480975468E-01 -0.10971232885E+00  0.64417521705E-01  0.88963787021E+00  0.88000000000E+00 0. -1.
        -11    1    4    4    0    0  0.14490566546E-01  0.11647486492E+00 -0.43203342362E-01  0.12507262126E+00  0.51100000000E-03 0.  1.
         11    1    4    4    0    0  0.65025372386E-03  0.24762103472E-02 -0.52159212412E-02  0.58327868968E-02  0.51100000000E-03 0. -1.
</event>
<event>
 8    1  0.1163913E+005  0.1043930E+01  0.7957747E-01            NaN
         13   -1    0    0    0    0  0.00000000000E+00  0.00000000000E+00  0.74505805969E-08  0.10566000000E+00  0.10566000000E+00 0.  1.
     999900   -1    0    0    0    0 -0.00000000000E+00 -0.00000000000E+00 -0.74505805969E-08  0.93827000000E+00  0.93827000000E+00 0.  1.
     999902    2    1    2    0    0 -0.22537424798E-01  0.12781569802E-01 -0.77792348226E-02  0.10168778182E+01  0.10165179176E+01 0.  0.
     999903    2    3    3    0    0  0.13594866261E-01  0.11170007622E+00  0.57989855706E-01  0.12816189815E+00  0.20023020671E-01 0.  0.
         14    1    1    2    0    0  0.22537424798E-01 -0.12781569802E-01  0.77792348226E-02  0.27052181752E-01  0.00000000000E+00 0. -1.
     999901    1    3    3    0    0 -0.36132291059E-01 -0.98918506415E-01 -0.65769090528E-01  0.88871592010E+00  0.88000000000E+00 0.  1.
        -11    1    4    4    0    0  0.13043376987E-01  0.34336305409E-01  0.22162327012E-01  0.42901531581E-01  0.51100000000E-03 0. -1.
         11    1    4    4    0    0  0.55148927394E-03  0.77363770808E-01  0.35827528693E-01  0.85260366568E-01  0.51100000000E-03 0.  1.
</event>
<event>
 8    1  0.1163913E+005  0.1043930E+01  0.7957747E-01            NaN
         13   -1    0    0    0    0  0.00000000000E+00  0.00000000000E+00  0.74505805969E-08  0.10566000000E+00  0.10566000000E+00 0.  1.
     999900   -1    0    0    0    0 -0.00000000000E+00 -0.00000000000E+00 -0.74505805969E-08  0.93827000000E+00  0.93827000000E+00 0. -1.
     999902    2    1    2    0    0 -0.16189192144E-01  0.10434123600E-01  0.13342477226E-01  0.10204996228E+01  0.10202306100E+01 0.  0.
     999903    2    3    3    0    0  0.87324225283E-01 -0.87695129936E-01 -0.28268816835E-01  0.12804465038E+00  0.16743665982E-01 0.  0.
         14    1    1    2    0    0  0.16189192144E-01 -0.10434123600E-01 -0.13342477226E-01  0.23430377207E-01  0.00000000000E+00 0. -1.
     999901    1    3    3    0    0 -0.10351341743E+00  0.98129253535E-01  0.41611294061E-01  0.89245497241E+00  0.88000000000E+00 0.  1.
        -11    1    4    4    0    0  0.55693621626E-01 -0.44428644743E-01 -0.17765134414E-01  0.73427141339E-01  0.51100000000E-03 0.  1.
         11    1    4    4    0    0  0.31630603657E-01 -0.43266485193E-01 -0.10503682421E-01  0.54617509043E-01  0.51100000000E-03 0. -1.
</event>
<event>
 8    1  0.1163913E+005  0.1043930E+01  0.7957747E-01            NaN
         13   -1    0    0    0    0  0.00000000000E+00  0.00000000000E+00  0.74505805969E-08  0.10566000000E+00  0.10566000000E+00 0.  1.
     999900   -1    0    0    0    0 -0.00000000000E+00 -0.00000000000E+00 -0.74505805969E-08  0.93827000000E+00  0.93827000000E+00 0.  1.
     999902    2    1    2    0    0 -0.88266401417E-02  0.12671952940E-01  0.15826431718E-01  0.10218174717E+01  0.10215781818E+01 0.  0.
     999903    2    3    3    0    0  0.12051921692E+00  0.46875889492E-01 -0.11048842005E-01  0.13129934141E+00  0.19879876306E-01 0.  0.
         14    1    1    2    0    0  0.88266401417E-02 -0.12671952940E-01 -0.15826431718E-01  0.22112528314E-01  0.00000000000E+00 0. -1.
     999901    1    3    3    0    0 -0.12934585706E+00 -0.34203936552E-01  0.26875273723E-01  0.89051813028E+00  0.88000000000E+00 0. -1.
        -11    1    4    4    0    0  0.34575979731E-01  0.18676361158E-01 -0.11129624812E-01  0.40846474877E-01  0.51100000000E-03 0.  1.
         11    1    4    4    0    0  0.85943237190E-01  0.28199528334E-01  0.80782807278E-04  0.90452866532E-01  0.51100000000E-03 0. -1.
</event>
<event>
 8    1  0.1163913E+005  0.1043930E+01  0.7957747E-01            NaN
         13   -1    0    0    0    0  0.00000000000E+00  0.00000000000E+00  0.74505805969E-08  0.10566000000E+00  0.10566000000E+00 0.  1.
     999900   -1    0    0    0    0 -0.00000000000E+00 -0.00000000000E+00 -0.74505805969E-08  0.93827000000E+00  0.93827000000E+00 0. -1.
     999902    2    1    2    0    0 -0.12766163223E-01  0.66037655103E-02  0.18700472328E-01  0.10203441503E+01  0.10200715135E+01 0.  0.
     999903    2    3    3    0    0  0.21503985675E-01  0.10510742887E+00  0.74926448187E-01  0.13240340046E+00  0.20166675815E-01 0.  0.
         14    1    1    2    0    0  0.12766163223E-01 -0.66037655103E-02 -0.18700472328E-01  0.23585849733E-01  0.00000000000E+00 0. -1.
     999901    1    3    3    0    0 -0.34270148898E-01 -0.98503663356E-01 -0.56225975860E-01  0.88794074980E+00  0.88000000000E+00 0. -1.
        -11    1    4    4    0    0  0.11048854721E-02  0.29004608825E-01  0.29808465074E-01  0.41608818970E-01  0.51100000000E-03 0.  1.
         11    1    4    4    0    0  0.20399100203E-01  0.76102820042E-01  0.45117983113E-01  0.90794581494E-01  0.51100000000E-03 0. -1.
</event>
<event>
 8    1  0.1163913E+005  0.1043930E+01  0.7957747E-01            NaN
         13   -1    0    0    0    0  0.00000000000E+00  0.00000000000E+00  0.74505805969E-08  0.10566000000E+00  0.10566000000E+00 0. -1.
     999900   -1    0    0    0    0 -0.00000000000E+00 -0.00000000000E+00 -0.74505805969E-08  0.93827000000E+00  0.93827000000E+00 0.  1.
     999902    2    1    2    0    0 -0.43046802875E-02 -0.82410089562E-02 -0.23013637904E-01  0.10191092017E+01  0.10188068967E+01 0.  0.
     999903    2    3    3    0    0  0.11475270833E+00 -0.50587350974E-01 -0.23837798908E-01  0.13008245644E+00  0.25018806322E-01 0.  0.
         14    1    1    2    0    0  0.43046802875E-02  0.82410089562E-02  0.23013637904E-01  0.24820798347E-01  0.00000000000E+00 0.  1.
     999901    1    3    3    0    0 -0.11905738861E+00  0.42346342017E-01  0.82416100445E-03  0.88902674521E+00  0.88000000000E+00 0. -1.
        -11    1    4    4    0    0  0.43289564431E-01 -0.27387862832E-01 -0.19523173705E-01  0.54822411946E-01  0.51100000000E-03 0. -1.
         11    1    4    4    0    0  0.71463143895E-01 -0.23199488142E-01 -0.43146252038E-02  0.75260044492E-01  0.51100000000E-03 0.  1.
</event>
<event>
 8    1  0.1163913E+005  0.1043930E+01  0.7957747E-01            NaN
         13   -1    0    0    0    0  0.00000000000E+00  0.00000000000E+00  0.74505805969E-08  0.10566000000E+00  0.10566000000E+00 0. -1.
     999900   -1    0    0    0    0 -0.00000000000E+00 -0.00000000000E+00 -0.74505805969E-08  0.93827000000E+00  0.93827000000E+00 0.  1.
     999902    2    1    2    0    0 -0.52339971039E-02 -0.22642697072E-01 -0.47434698235E-02  0.10202110843E+01  0.10199353262E+01 0.  0.
     999903    2    3    3    0    0  0.21497844151E-01  0.99464903422E-01 -0.75823116444E-01  0.12854008353E+00  0.20444651406E-01 0.  0.
         14    1    1    2    0    0  0.52339971039E-02  0.22642697072E-01  0.47434698235E-02  0.23718915707E-01  0.00000000000E+00 0.  1.
     999901    1    3    3    0    0 -0.26731841255E-01 -0.12210760049E+00  0.71079646621E-01  0.89167100076E+00  0.88000000000E+00 0. -1.
        -11    1    4    4    0    0 -0.18984657781E-02  0.37560463139E-01 -0.27005250042E-01  0.46302669625E-01  0.51100000000E-03 0. -1.
         11    1    4    4    0    0  0.23396309929E-01  0.61904440283E-01 -0.48817866402E-01  0.82237413907E-01  0.51100000000E-03 0.  1.
</event>
<event>
 8    1  0.1163913E+005  0.1043930E+01  0.7957747E-01            NaN
         13   -1    0    0    0    0  0.00000000000E+00  0.00000000000E+00  0.74505805969E-08  0.10566000000E+00  0.10566000000E+00 0.  1.
     999900   -1    0    0    0    0 -0.00000000000E+00 -0.00000000000E+00 -0.74505805969E-08  0.93827000000E+00  0.93827000000E+00 0. -1.
     999902    2    1    2    0    0 -0.94659627149E-02 -0.29236281794E-01  0.19906471507E-01  0.10073153550E+01  0.10066496869E+01 0.  0.
     999903    2    3    3    0    0 -0.41486712396E-01 -0.10956904342E+00  0.31701913745E-01  0.12299764426E+00  0.19922012405E-01 0.  0.
         14    1    1    2    0    0  0.94659627149E-02  0.29236281794E-01 -0.19906471507E-01  0.36614645036E-01  0.00000000000E+00 0. -1.
     999901    1    3    3    0    0  0.32020749681E-01  0.80332761625E-01 -0.11795442238E-01  0.88431771070E+00  0.88000000000E+00 0.  1.
        -11    1    4    4    0    0 -0.42173004052E-01 -0.10006054542E+00  0.25274519307E-01  0.11148873247E+00  0.51100000000E-03 0. -1.
         11    1    4    4    0    0  0.68629165561E-03 -0.95084979980E-02  0.64273944380E-02  0.11508911794E-01  0.51100000000E-03 0.  1.
</event>
<event>
 8    1  0.1163913E+005  0.1043930E+01  0.7957747E-01            NaN
         13   -1    0    0    0    0  0.00000000000E+00  0.00000000000E+00  0.74505805969E-08  0.10566000000E+00  0.10566000000E+00 0. -1.
     999900   -1    0    0    0    0 -0.00000000000E+00 -0.00000000000E+00 -0.74505805969E-08  0.93827000000E+00  0.93827000000E+00 0.  1.
     999902    2    1    2    0    0  0.18756808146E-01  0.38382949424E-02  0.14206835073E-01  0.10200891837E+01  0.10198105501E+01 0.  0.
     999903    2    3    3    0    0  0.41165871152E-01  0.12229857877E+00 -0.14941490808E-01  0.13139090538E+00  0.19716758157E-01 0.  0.
         14    1    1    2    0    0 -0.18756808146E-01 -0.38382949424E-02 -0.14206835073E-01  0.23840816317E-01  0.00000000000E+00 0.  1.
     999901    1    3    3    0    0 -0.22409063006E-01 -0.11846028383E+00  0.29148325880E-01  0.88869827830E+00  0.88000000000E+00 0.  1.
        -11    1    4    4    0    0 -0.20035011459E-02  0.74486054918E-02  0.39226705389E-03  0.77402025203E-02  0.51100000000E-03 0.  1.
         11    1    4    4    0    0  0.43169372298E-01  0.11484997328E+00 -0.15333757862E-01  0.12365070286E+00  0.51100000000E-03 0. -1.
</event>
<event>
 8    1  0.1163913E+005  0.1043930E+01  0.7957747E-01            NaN
         13   -1    0    0    0    0  0.00000000000E+00  0.00000000000E+00  0.74505805969E-08  0.10566000000E+00  0.10566000000E+00 0.  1.
     999900   -1    0    0    0    0 -0.00000000000E+00 -0.00000000000E+00 -0.74505805969E-08  0.93827000000E+00  0.93827000000E+00 0. -1.
     999902    2    1    2    0    0  0.11309207548E-01 -0.13687617261E-01 -0.12570270243E-01  0.10221754433E+01  0.10219439203E+01 0.  0.
     999903    2    3    3    0    0 -0.53790492172E-01  0.15954146973E-01 -0.11906021008E+00  0.13287419383E+00  0.18228162521E-01 0.  0.
         14    1    1    2    0    0 -0.11309207548E-01  0.13687617261E-01  0.12570270243E-01  0.21754556663E-01  0.00000000000E+00 0.  1.
     999901    1    3    3    0    0  0.65099699720E-01 -0.29641764234E-01  0.10648993983E+00  0.88930124951E+00  0.88000000000E+00 0.  1.
        -11    1    4    4    0    0 -0.25569642448E-01  0.13286030080E-01 -0.43604147052E-01  0.52267657030E-01  0.51100000000E-03 0.  1.
         11    1    4    4    0    0 -0.28220849724E-01  0.26681168926E-02 -0.75456063023E-01  0.80606536800E-01  0.51100000000E-03 0. -1.
</event>
<event>
 8    1  0.1163913E+005  0.1043930E+01  0.7957747E-01            NaN
         13   -1    0    0    0    0  0.00000000000E+00  0.00000000000E+00  0.74505805969E-08  0.10566000000E+00  0.10566000000E+00 0.  1.
     999900   -1    0    0    0    0 -0.00000000000E+00 -0.00000000000E+00 -0.74505805969E-08  0.93827000000E+00  0.93827000000E+00 0. -1.
     999902    2    1    2    0    0  0.16472016748E-01  0.16602415173E-01 -0.12430299660E-02  0.10205096531E+01  0.10202408732E+01 0.  0.
     999903    2    3    3    0    0 -0.27929450792E-01  0.44011487181E-01 -0.11881988709E+00  0.13115760533E+00  0.19159505257E-01 0.  0.
         14    1    1    2    0    0 -0.16472016748E-01 -0.16602415173E-01  0.12430299660E-02  0.23420346898E-01  0.00000000000E+00 0.  1.
     999901    1    3    3    0    0  0.44401467540E-01 -0.27409072008E-01  0.11757685713E+00  0.88935204777E+00  0.88000000000E+00 0.  1.
        -11    1    4    4    0    0 -0.86593150473E-02  0.68524414984E-02 -0.44566269493E-01  0.45916807261E-01  0.51100000000E-03 0.  1.
         11    1    4    4    0    0 -0.19270135745E-01  0.37159045683E-01 -0.74253617599E-01  0.85240798067E-01  0.51100000000E-03 0. -1.
</event>
<event>
 8    1  0.1163913E+005  0.1043930E+01  0.7957747E-01            NaN
         13   -1    0    0    0    0  0.00000000000E+00  0.00000000000E+00  0.74505805969E-08  0.10566000000E+00  0.10566000000E+00 0.  1.
     999900   -1    0    0    0    0 -0.00000000000E+00 -0.00000000000E+00 -0.74505805969E-08  0.93827000000E+00  0.93827000000E+00 0.  1.
     999902    2    1    2    0    0 -0.58995357794E-02 -0.17310086857E-01 -0.15009325197E-01  0.10202715243E+01  0.10199971862E+01 0.  0.
     999903    2    3    3    0    0 -0.49341837934E-01 -0.12051661211E+00  0.16388381397E-01  0.13262033355E+00  0.18992184171E-01 0.  0.
         14    1    1    2    0    0  0.58995357794E-02  0.17310086857E-01  0.15009325197E-01  0.23658475697E-01  0.00000000000E+00 0.  1.
     999901    1    3    3    0    0  0.43442302154E-01  0.10320652526E+00 -0.31397706594E-01  0.88765119076E+00  0.88000000000E+00 0.  1.
        -11    1    4    4    0    0 -0.47452269616E-01 -0.10027685049E+00  0.17229281116E-01  0.11226875739E+00  0.51100000000E-03 0. -1.
         11    1    4    4    0    0 -0.18895683175E-02 -0.20239761621E-01 -0.84089971911E-03  0.20351576161E-01  0.51100000000E-03 0.  1.
</event>
<event>
 8    1  0.1163913E+005  0.1043930E+01  0.7957747E-01            NaN
         13   -1    0    0    0    0  0.00000000000E+00  0.00000000000E+00  0.74505805969E-08  0.10566000000E+00  0.10566000000E+00 0. -1.
     999900   -1    0    0    0    0 -0.00000000000E+00 -0.00000000000E+00 -0.74505805969E-08  0.93827000000E+00  0.93827000000E+00 0. -1.
     999902    2    1    2    0    0  0.66198608351E-02  0.17938092724E-01  0.14315455114E-01  0.10200442305E+01  0.10197645327E+01 0.  0.
     999903    2    3    3    0    0 -0.96345113856E-02  0.34725092663E-01 -0.12250581276E+00  0.12916485187E+00  0.19422382172E-01 0.  0.
         14    1    1    2    0    0 -0.66198608351E-02 -0.17938092724E-01 -0.14315455114E-01  0.23885769470E-01  0.00000000000E+00 0.  1.
     999901    1    3    3    0    0  0.16254372221E-01 -0.16786999938E-01  0.13682126787E+00  0.89087937866E+00  0.88000000000E+00 0.  1.
        -11    1    4    4    0    0 -0.13829254174E-01  0.24882306526E-01 -0.10353929265E+00  0.10738260424E+00  0.51100000000E-03 0. -1.
         11    1    4    4    0    0  0.41947427888E-02  0.98427861369E-02 -0.18966520104E-01  0.21782247631E-01  0.51100000000E-03 0.  1.
</event>
<event>
 8    1  0.1163913E+005  0.1043930E+01  0.7957747E-01            NaN
         13   -1    0    0    0    0  0.00000000000E+00  0.00000000000E+00  0.74505805969E-08  0.10566000000E+00  0.10566000000E+00 0.  1.
     999900   -1    0    0    0    0 -0.00000000000E+00 -0.00000000000E+00 -0.74505805969E-08  0.93827000000E+00  0.93827000000E+00 0. -1.
     999902    2    1    2    0    0 -0.56577465217E-02 -0.23781704717E-02 -0.23432579390E-01  0.10197070446E+01  0.10194192981E+01 0.  0.
     999903    2    3    3    0    0  0.82954103039E-01 -0.36813556224E-01 -0.93497317167E-01  0.13181801825E+00  0.19940423366E-01 0.  0.
         14    1    1    2    0    0  0.56577465217E-02  0.23781704717E-02  0.23432579390E-01  0.24222955381E-01  0.00000000000E+00 0.  1.
     999901    1    3    3    0    0 -0.88611849561E-01  0.34435385752E-01  0.70064737777E-01  0.88788902637E+00  0.88000000000E+00 0.  1.
        -11    1    4    4    0    0  0.35547667808E-01 -0.23560729769E-01 -0.53304922809E-01  0.68267273203E-01  0.51100000000E-03 0. -1.
         11    1    4    4    0    0  0.47406435231E-01 -0.13252826455E-01 -0.40192394358E-01  0.63550745043E-01  0.51100000000E-03 0.  1.
</event>
<event>
 8    1  0.1163913E+005  0.1043930E+01  0.7957747E-01            NaN
         13   -1    0    0    0    0  0.00000000000E+00  0.00000000000E+00  0.74505805969E-08  0.10566000000E+00  0.10566000000E+00 0. -1.
     999900   -1    0    0    0    0 -0.00000000000E+00 -0.00000000000E+00 -0.74505805969E-08  0.93827000000E+00  0.93827000000E+00 0.  1.
     999902    2    1    2    0    0  0.15066524723E-01  0.98037356652E-02 -0.15340291277E-01  0.10202987085E+01  0.10200250079E+01 0.  0.
     999903    2    3    3    0    0  0.96621794969E-01  0.69318949270E-01  0.53458716695E-01  0.13185814988E+00  0.19693890101E-01 0.  0.
         14    1    1    2    0    0 -0.15066524723E-01 -0.98037356652E-02  0.15340291277E-01  0.23631291473E-01  0.00000000000E+00 0. -1.
     999901    1    3    3    0    0 -0.81555270246E-01 -0.59515213605E-01 -0.68799007972E-01  0.88844055865E+00  0.88000000000E+00 0.  1.
        -11    1    4    4    0    0  0.52429251180E-01  0.34080628771E-01  0.17771194210E-01  0.65010707590E-01  0.51100000000E-03 0. -1.
         11    1    4    4    0    0  0.44192543789E-01  0.35238320499E-01  0.35687522486E-01  0.66847442287E-01  0.51100000000E-03 0.  1.
</event>
<event>
 8    1  0.1163913E+005  0.1043930E+01  0.7957747E-01            NaN
         13   -1    0    0    0    0  0.00000000000E+00  0.00000000000E+00  0.74505805969E-08  0.10566000000E+00  0.10566000000E+00 0.  1.
     999900   -1    0    0    0    0 -0.00000000000E+00 -0.00000000000E+00 -0.74505805969E-08  0.93827000000E+00  0.93827000000E+00 0. -1.
     999902    2    1    2    0    0  0.49936512120E-02 -0.19617548396E-01 -0.12001856428E-01  0.10203964215E+01  0.10201250060E+01 0.  0.
     999903    2    3    3    0    0 -0.38352889879E-01 -0.66976303485E-01  0.10317599753E+00  0.13057188133E+00  0.21141436538E-01 0.  0.
         14    1    1    2    0    0 -0.49936512120E-02  0.19617548396E-01  0.12001856428E-01  0.23533578461E-01  0.00000000000E+00 0.  1.
     999901    1    3    3    0    0  0.43346541091E-01  0.47358755089E-01 -0.11517785396E+00  0.88982454020E+00  0.88000000000E+00 0. -1.
        -11    1    4    4    0    0 -0.38374606179E-01 -0.68270925415E-01  0.99397046901E-01  0.12654471032E+00  0.51100000000E-03 0. -1.
         11    1    4    4    0    0  0.21716299598E-04  0.12946219304E-02  0.37789506263E-02  0.40271710141E-02  0.51100000000E-03 0.  1.
</event>
<event>
 8    1  0.1163913E+005  0.1043930E+01  0.7957747E-01            NaN
         13   -1    0    0    0    0  0.00000000000E+00  0.00000000000E+00  0.74505805969E-08  0.10566000000E+00  0.10566000000E+00 0. -1.
     999900   -1    0    0    0    0 -0.00000000000E+00 -0.00000000000E+00 -0.74505805969E-08  0.93827000000E+00  0.93827000000E+00 0. -1.
     999902    2    1    2    0    0  0.78504452843E-02 -0.47047638916E-02 -0.14307623252E-01  0.10269455254E+01  0.10268050641E+01 0.  0.
     999903    2    3    3    0    0  0.37087558998E-02 -0.75098010903E-02 -0.13675141275E+00  0.13845382402E+00  0.19958970746E-01 0.  0.
         14    1    1    2    0    0 -0.78504452843E-02  0.47047638916E-02  0.14307623252E-01  0.16984474604E-01  0.00000000000E+00 0. -1.
     999901    1    3    3    0    0  0.41416893845E-02  0.28050371987E-02  0.12244378950E+00  0.88849170137E+00  0.88000000000E+00 0.  1.
        -11    1    4    4    0    0  0.10504541557E-01 -0.98121939452E-02 -0.85836461230E-01  0.87033233542E-01  0.51100000000E-03 0.  1.
         11    1    4    4    0    0 -0.67957856570E-02  0.23023928549E-02 -0.50914951524E-01  0.51420590479E-01  0.51100000000E-03 0. -1.
</event>
<event>
 8    1  0.1163913E+005  0.1043930E+01  0.7957747E-01            NaN
         13   -1    0    0    0    0  0.00000000000E+00  0.00000000000E+00  0.74505805969E-08  0.10566000000E+00  0.10566000000E+00 0.  1.
     999900   -1    0    0    0    0 -0.00000000000E+00 -0.00000000000E+00 -0.74505805969E-08  0.93827000000E+00  0.93827000000E+00 0. -1.
     999902    2    1    2    0    0  0.84789876083E-02 -0.18108984707E-01 -0.12427519458E-01  0.10203870223E+01  0.10201153874E+01 0.  0.
     999903    2    3    3    0    0 -0.93052617901E-01  0.59960134354E-01 -0.64541951141E-01  0.12958998132E+00  0.19336297265E-01 0.  0.
         14    1    1    2    0    0 -0.84789876083E-02  0.18108984707E-01  0.12427519458E-01  0.23542977677E-01  0.00000000000E+00 0.  1.
     999901    1    3    3    0    0  0.10153160551E+00 -0.78069119061E-01  0.52114431683E-01  0.89079704100E+00  0.88000000000E+00 0.  1.
        -11    1    4    4    0    0 -0.40452526169E-01  0.24884791206E-01 -0.16856647508E-01  0.50399081271E-01  0.51100000000E-03 0. -1.
         11    1    4    4    0    0 -0.52600091732E-01  0.35075343147E-01 -0.47685303633E-01  0.79190900050E-01  0.51100000000E-03 0.  1.
</event>
<event>
 8    1  0.1163913E+005  0.1043930E+01  0.7957747E-01            NaN
         13   -1    0    0    0    0  0.00000000000E+00  0.00000000000E+00  0.74505805969E-08  0.10566000000E+00  0.10566000000E+00 0.  1.
     999900   -1    0    0    0    0 -0.00000000000E+00 -0.00000000000E+00 -0.74505805969E-08  0.93827000000E+00  0.93827000000E+00 0.  1.
     999902    2    1    2    0    0 -0.91439082369E-02  0.21685929904E-01  0.48202351343E-02  0.10199065681E+01  0.10196235984E+01 0.  0.
     999903    2    3    3    0    0  0.11623869613E+00 -0.13843326260E-01  0.50402826597E-01  0.12914234667E+00  0.20838152904E-01 0.  0.
         14    1    1    2    0    0  0.91439082369E-02 -0.21685929904E-01 -0.48202351343E-02  0.24023431903E-01  0.00000000000E+00 0. -1.
     999901    1    3    3    0    0 -0.12538260436E+00  0.35529256164E-01 -0.45582591463E-01  0.89076422142E+00  0.88000000000E+00 0.  1.
        -11    1    4    4    0    0  0.36543712004E-01 -0.92057464180E-03  0.25777529963E-01  0.44732901948E-01  0.51100000000E-03 0. -1.
         11    1    4    4    0    0  0.79694984123E-01 -0.12922751618E-01  0.24625296634E-01  0.84409444727E-01  0.51100000000E-03 0.  1.
</event>
<event>
 8    1  0.1163913E+005  0.1043930E+01  0.7957747E-01            NaN
         13   -1    0    0    0    0  0.00000000000E+00  0.00000000000E+00  0.74505805969E-08  0.10566000000E+00  0.10566000000E+00 0. -1.
     999900   -1    0    0    0    0 -0.00000000000E+00 -0.00000000000E+00 -0.74505805969E-08  0.93827000000E+00  0.93827000000E+00 0.  1.
     999902    2    1    2    0    0  0.18563420386E-01 -0.12784953014E-01  0.31122122879E-03  0.10213877628E+01  0.10211389766E+01 0.  0.
     999903    2    3    3    0    0 -0.91391841434E-02  0.92752177055E-01 -0.88775051802E-01  0.13018526943E+00  0.19511625221E-01 0.  0.
         14    1    1    2    0    0 -0.18563420386E-01  0.12784953014E-01 -0.31122122879E-03  0.22542237215E-01  0.00000000000E+00 0.  1.
     999901    1    3    3    0    0  0.27702604529E-01 -0.10553713007E+00  0.89086273030E-01  0.89120249336E+00  0.88000000000E+00 0.  1.
        -11    1    4    4    0    0  0.18427503204E-02  0.61903824894E-01 -0.51327612349E-01  0.80437952334E-01  0.51100000000E-03 0.  1.
         11    1    4    4    0    0 -0.10981934464E-01  0.30848352161E-01 -0.37447439453E-01  0.49747317095E-01  0.51100000000E-03 0. -1.
</event>
<event>
 8    1  0.1163913E+005  0.1043930E+01  0.7957747E-01            NaN
         13   -1    0    0    0    0  0.00000000000E+00  0.00000000000E+00  0.74505805969E-08  0.10566000000E+00  0.10566000000E+00 0. -1.
     999900   -1    0    0    0    0 -0.00000000000E+00 -0.00000000000E+00 -0.74505805969E-08  0.93827000000E+00  0.93827000000E+00 0.  1.
     999902    2    1    2    0    0 -0.44936139442E-02 -0.22545560088E-01 -0.10069388973E-01  0.10188324415E+01  0.10185232724E+01 0.  0.
     999903    2    3    3    0    0 -0.37314941564E-01 -0.50674275452E-01  0.11138797032E+00  0.12943919090E+00  0.19670718148E-01 0.  0.
         14    1    1    2    0    0  0.44936139442E-02  0.22545560088E-01  0.10069388973E-01  0.25097558452E-01  0.00000000000E+00 0.  1.
     999901    1    3    3    0    0  0.32821327620E-01  0.28128715364E-01 -0.12145735929E+00  0.88939325065E+00  0.88000000000E+00 0.  1.
        -11    1    4    4    0    0 -0.10832941680E-01 -0.88855377513E-02  0.41551131234E-01  0.43852742610E-01  0.51100000000E-03 0.  1.
         11    1    4    4    0    0 -0.26481999884E-01 -0.41788737701E-01  0.69836839084E-01  0.85586448289E-01  0.51100000000E-03 0. -1.
</event>
<event>
 8    1  0.1163913E+005  0.1043930E+01  0.7957747E-01            NaN
         13   -1    0    0    0    0  0.00000000000E+00  0.00000000000E+00  0.74505805969E-08  0.10566000000E+00  0.10566000000E+00 0. -1.
     999900   -1    0    0    0    0 -0.00000000000E+00 -0.00000000000E+00 -0.74505805969E-08  0.93827000000E+00  0.93827000000E+00 0. -1.
     999902    2    1    2    0    0  0.18717649319E-01  0.63387876699E-02  0.11693514659E-01  0.10209676632E+01  0.10207094104E+01 0.  0.
     999903    2    3    3    0    0 -0.45110017472E-01  0.89708366490E-01 -0.80331563185E-01  0.12996088846E+00  0.18819346196E-01 0.  0.
         14    1    1    2    0    0 -0.18717649319E-01 -0.63387876699E-02 -0.11693514659E-01  0.22962336776E-01  0.00000000000E+00 0. -1.
     999901    1    3    3    0    0  0.63827666791E-01 -0.83369578820E-01  0.92025077844E-01  0.89100677476E+00  0.88000000000E+00 0.  1.
        -11    1    4    4    0    0 -0.42359746573E-01  0.69857619607E-01 -0.59645017680E-01  0.10115445814E+00  0.51100000000E-03 0. -1.
         11    1    4    4    0    0 -0.27502708993E-02  0.19850746883E-01 -0.20686545504E-01  0.28806430319E-01  0.51100000000E-03 0.  1.
</event>
<event>
 8    1  0.1163913E+005  0.1043930E+01  0.7957747E-01            NaN
         13   -1    0    0    0    0  0.00000000000E+00  0.00000000000E+00  0.74505805969E-08  0.10566000000E+00  0.10566000000E+00 0.  1.
     999900   -1    0    0    0    0 -0.00000000000E+00 -0.00000000000E+00 -0.74505805969E-08  0.93827000000E+00  0.93827000000E+00 0.  1.
     999902    2    1    2    0    0 -0.16050155816E-01  0.21837792886E-01 -0.47173270675E-02  0.10164209129E+01  0.10160485826E+01 0.  0.
     999903    2    3    3    0    0 -0.34971175834E-01 -0.59322332414E-01 -0.10458673405E+00  0.12685985854E+00  0.20320347098E-01 0.  0.
         14    1    1    2    0    0  0.16050155816E-01 -0.21837792886E-01  0.47173270675E-02  0.27509087126E-01  0.00000000000E+00 0.  1.
     999901    1    3    3    0    0  0.18921020018E-01  0.81160125300E-01  0.99869406987E-01  0.88956105433E+00  0.88000000000E+00 0. -1.
        -11    1    4    4    0    0 -0.19139368076E-02 -0.21376034290E-01 -0.30797659447E-01  0.37541376433E-01  0.51100000000E-03 0. -1.
         11    1    4    4    0    0 -0.33057239026E-01 -0.37946298125E-01 -0.73789074607E-01  0.89318482106E-01  0.51100000000E-03 0.  1.
</event>
<event>
 8    1  0.1163913E+005  0.1043930E+01  0.7957747E-01            NaN
         13   -1    0    0    0    0  0.00000000000E+00  0.00000000000E+00  0.74505805969E-08  0.10566000000E+00  0.10566000000E+00 0. -1.
     999900   -1    0    0    0    0 -0.00000000000E+00 -0.00000000000E+00 -0.74505805969E-08  0.93827000000E+00  0.93827000000E+00 0. -1.
     999902    2    1    2    0    0  0.32117577588E-01  0.17109070626E-02  0.71900642191E-02  0.10109730126E+01  0.10104356829E+01 0.  0.
     999903    2    3    3    0    0 -0.21527496380E-01  0.11778342256E+00  0.86475257040E-02  0.12173021844E+00  0.20176685856E-01 0.  0.
         14    1    1    2    0    0 -0.32117577588E-01 -0.17109070626E-02 -0.71900642191E-02  0.32956987371E-01  0.00000000000E+00 0.  1.
     999901    1    3    3    0    0  0.53645073968E-01 -0.11607251549E+00 -0.14574614850E-02  0.88924279418E+00  0.88000000000E+00 0.  1.
        -11    1    4    4    0    0 -0.96447526774E-02  0.92636812059E-01  0.11132836115E-01  0.93801926226E-01  0.51100000000E-03 0.  1.
         11    1    4    4    0    0 -0.11882743703E-01  0.25146610498E-01 -0.24853104106E-02  0.27928292219E-01  0.51100000000E-03 0. -1.
</event>
<event>
 8    1  0.1163913E+005  0.1043930E+01  0.7957747E-01            NaN
         13   -1    0    0    0    0  0.00000000000E+00  0.00000000000E+00  0.74505805969E-08  0.10566000000E+00  0.10566000000E+00 0.  1.
     999900   -1    0    0    0    0 -0.00000000000E+00 -0.00000000000E+00 -0.74505805969E-08  0.93827000000E+00  0.93827000000E+00 0.  1.
     999902    2    1    2    0    0 -0.41851292235E-03  0.20659746562E-01 -0.12371303652E-01  0.10198457845E+01  0.10195613639E+01 0.  0.
     999903    2    3    3    0    0  0.10797029160E+00  0.71569736810E-01  0.13781055779E-01  0.13135048011E+00  0.16829142359E-01 0.  0.
         14    1    1    2    0    0  0.41851292235E-03 -0.20659746562E-01  0.12371303652E-01  0.24084215477E-01  0.00000000000E+00 0. -1.
     999901    1    3    3    0    0 -0.10838880452E+00 -0.50909990248E-01 -0.26152359432E-01  0.88849530441E+00  0.88000000000E+00 0. -1.
        -11    1    4    4    0    0  0.24071966511E-01  0.20979647747E-01 -0.25069012740E-02  0.32033589656E-01  0.51100000000E-03 0. -1.
         11    1    4    4    0    0  0.83898325089E-01  0.50590089063E-01  0.16287957053E-01  0.99316890458E-01  0.51100000000E-03 0.  1.
</event>
<event>
 8    1  0.1163913E+005  0.1043930E+01  0.7957747E-01            NaN
         13   -1    0    0    0    0  0.00000000000E+00  0.00000000000E+00  0.74505805969E-08  0.10566000000E+00  0.10566000000E+00 0.  1.
     999900   -1    0    0    0    0 -0.00000000000E+00 -0.00000000000E+00 -0.74505805969E-08  0.93827000000E+00  0.93827000000E+00 0.  1.
     999902    2    1    2    0    0  0.30897883530E-02 -0.24223982130E-01 -0.60679872231E-02  0.10187671589E+01  0.10184563592E+01 0.  0.
     999903    2    3    3    0    0 -0.97714667209E-01 -0.77361382650E-01 -0.36058349778E-01  0.13091326134E+00  0.17468190904E-01 0.  0.
         14    1    1    2    0    0 -0.30897883530E-02  0.24223982130E-01  0.60679872231E-02  0.25162841081E-01  0.00000000000E+00 0.  1.
     999901    1    3    3    0    0  0.10080445556E+00  0.53137400520E-01  0.29990362555E-01  0.88785389758E+00  0.88000000000E+00 0.  1.
        -11    1    4    4    0    0 -0.67111426417E-02 -0.57027798801E-02 -0.75840484754E-02  0.11633574094E-01  0.51100000000E-03 0. -1.
         11    1    4    4    0    0 -0.91003524567E-01 -0.71658602770E-01 -0.28474301303E-01  0.11927968725E+00  0.51100000000E-03 0.  1.
</event>
<event>
 8    1  0.1163913E+005  0.1043930E+01  0.7957747E-01            NaN
         13   -1    0    0    0    0  0.00000000000E+00  0.00000000000E+00  0.74505805969E-08  0.10566000000E+00  0.10566000000E+00 0. -1.
     999900   -1    0    0    0    0 -0.00000000000E+00 -0.00000000000E+00 -0.74505805969E-08  0.93827000000E+00  0.93827000000E+00 0. -1.
     999902    2    1    2    0    0 -0.22988953836E-02  0.22643281176E-01  0.83132400058E-02  0.10196995840E+01  0.10194116580E+01 0.  0.
     999903    2    3    3    0    0  0.19369148401E-01 -0.87955263081E-01 -0.89081756584E-01  0.12718217377E+00  0.11333744148E-01 0.  0.
         14    1    1    2    0    0  0.22988953836E-02 -0.22643281176E-01 -0.83132400058E-02  0.24230416046E-01  0.00000000000E+00 0.  1.
     999901    1    3    3    0    0 -0.21668043784E-01  0.11059854426E+00  0.97394996589E-01  0.89251741018E+00  0.88000000000E+00 0.  1.
        -11    1    4    4    0    0  0.81505383601E-02 -0.47868880498E-01 -0.55093202775E-01  0.73439656240E-01  0.51100000000E-03 0. -1.
         11    1    4    4    0    0  0.11218610041E-01 -0.40086382583E-01 -0.33988553808E-01  0.53742517534E-01  0.51100000000E-03 0.  1.
</event>
<event>
 8    1  0.1163913E+005  0.1043930E+01  0.7957747E-01            NaN
         13   -1    0    0    0    0  0.00000000000E+00  0.00000000000E+00  0.74505805969E-08  0.10566000000E+00  0.10566000000E+00 0.  1.
     999900   -1    0    0    0    0 -0.00000000000E+00 -0.00000000000E+00 -0.74505805969E-08  0.93827000000E+00  0.93827000000E+00 0. -1.
     999902    2    1    2    0    0 -0.59097046799E-02 -0.20397974148E-01  0.11249422531E-01  0.10198976995E+01  0.10196145184E+01 0.  0.
     999903    2    3    3    0    0  0.64775784912E-01  0.79709672058E-01 -0.73001233888E-01  0.12742016346E+00  0.18899306273E-01 0.  0.
         14    1    1    2    0    0  0.59097046799E-02  0.20397974148E-01 -0.11249422531E-01  0.24032300473E-01  0.00000000000E+00 0. -1.
     999901    1    3    3    0    0 -0.70685489592E-01 -0.10010764621E+00  0.84250656419E-01  0.89247753606E+00  0.88000000000E+00 0. -1.
        -11    1    4    4    0    0  0.19867546901E-01  0.34254037518E-01 -0.19819894837E-01  0.44284849086E-01  0.51100000000E-03 0. -1.
         11    1    4    4    0    0  0.44908238011E-01  0.45455634540E-01 -0.53181339051E-01  0.83135314379E-01  0.51100000000E-03 0.  1.
</event>
<event>
 8    1  0.1163913E+005  0.1043930E+01  0.7957747E-01            NaN
         13   -1    0    0    0    0  0.00000000000E+00  0.00000000000E+00  0.74505805969E-08  0.10566000000E+00  0.10566000000E+00 0. -1.
     999900   -1    0    0    0    0 -0.00000000000E+00 -0.00000000000E+00 -0.74505805969E-08  0.93827000000E+00  0.93827000000E+00 0. -1.
     999902    2    1    2    0    0  0.16310383980E-01  0.50284599021E-02 -0.16379231697E-01  0.10202742763E+01  0.10200000027E+01 0.  0.
     999903    2    3    3    0    0  0.10442061917E+00  0.75418711135E-01  0.22321150705E-01  0.13223378135E+00  0.19897021472E-01 0.  0.
         14    1    1    2    0    0 -0.16310383980E-01 -0.50284599021E-02  0.16379231697E-01  0.23655723738E-01  0.00000000000E+00 0. -1.
     999901    1    3    3    0    0 -0.88110235188E-01 -0.70390251233E-01 -0.38700382402E-01  0.88804049492E+00  0.88000000000E+00 0.  1.
        -11    1    4    4    0    0  0.52334515024E-01  0.31966053584E-01  0.17577039609E-02  0.61352104191E-01  0.51100000000E-03 0. -1.
         11    1    4    4    0    0  0.52086104145E-01  0.43452657552E-01  0.20563446744E-01  0.70881677155E-01  0.51100000000E-03 0.  1.
</event>
<event>
 8    1  0.1163913E+005  0.1043930E+01  0.7957747E-01            NaN
         13   -1    0    0    0    0  0.00000000000E+00  0.00000000000E+00  0.74505805969E-08  0.10566000000E+00  0.10566000000E+00 0. -1.
     999900   -1    0    0    0    0 -0.00000000000E+00 -0.00000000000E+00 -0.74505805969E-08  0.93827000000E+00  0.93827000000E+00 0.  1.
     999902    2    1    2    0    0  0.19848731960E-01  0.66184599895E-02 -0.11840548891E-01  0.10198888941E+01  0.10196055029E+01 0.  0.
     999903    2    3    3    0    0 -0.46225815842E-01 -0.65459200056E-01 -0.10094091065E+00  0.13000131168E+00  0.17015894770E-01 0.  0.
         14    1    1    2    0    0 -0.19848731960E-01 -0.66184599895E-02  0.11840548891E-01  0.24041105862E-01  0.00000000000E+00 0.  1.
     999901    1    3    3    0    0  0.66074547802E-01  0.72077660045E-01  0.89100361755E-01  0.88988758246E+00  0.88000000000E+00 0. -1.
        -11    1    4    4    0    0 -0.27408539556E-01 -0.37844943924E-01 -0.45225857147E-01  0.65031585379E-01  0.51100000000E-03 0.  1.
         11    1    4    4    0    0 -0.18817276286E-01 -0.27614256132E-01 -0.55715053498E-01  0.64969726303E-01  0.51100000000E-03 0. -1.
</event>
<event>
 8    1  0.1163913E+005  0.1043930E+01  0.7957747E-01            NaN
         13   -1    0    0    0    0  0.00000000000E+00  0.00000000000E+00  0.74505805969E-08  0.10566000000E+00  0.10566000000E+00 0. -1.
     999900   -1    0    0    0    0 -0.00000000000E+00 -0.00000000000E+00 -0.74505805969E-08  0.93827000000E+00  0.93827000000E+00 0.  1.
     999902    2    1    2    0    0  0.39546133289E-02 -0.80230931491E-02 -0.18465256703E-01  0.10234123321E+01  0.10232066394E+01 0.  0.
     999903    2    3    3    0    0 -0.10508454604E+00 -0.20529809636E-01  0.73859594710E-01  0.13180152329E+00  0.21264216628E-01 0.  0.
         14    1    1    2    0    0 -0.39546133289E-02  0.80230931491E-02  0.18465256703E-01  0.20517667883E-01  0.00000000000E+00 0. -1.
     999901    1    3    3    0    0  0.10903915937E+00  0.12506716487E-01 -0.92324851413E-01  0.89161080883E+00  0.88000000000E+00 0.  1.
        -11    1    4    4    0    0 -0.42457386948E-01 -0.10532136738E-02  0.20064877635E-01  0.46974454771E-01  0.51100000000E-03 0. -1.
         11    1    4    4    0    0 -0.62627159097E-01 -0.19476595962E-01  0.53794717075E-01  0.84827068516E-01  0.51100000000E-03 0.  1.
</event>
<event>
 8    1  0.1163913E+005  0.1043930E+01  0.7957747E-01            NaN
         13   -1    0    0    0    0  0.00000000000E+00  0.00000000000E+00  0.74505805969E-08  0.10566000000E+00  0.10566000000E+00 0.  1.
     999900   -1    0    0    0    0 -0.00000000000E+00 -0.00000000000E+00 -0.74505805969E-08  0.93827000000E+00  0.93827000000E+00 0. -1.
     999902    2    1    2    0    0 -0.93819170113E-02 -0.20927636458E-01 -0.55529426163E-02  0.10203329344E+01  0.10200600352E+01 0.  0.
     999903    2    3    3    0    0  0.59788298052E-01 -0.58004531593E-01 -0.10011696724E+00  0.13179392591E+00  0.20175864508E-01 0.  0.
         14    1    1    2    0    0  0.93819170113E-02  0.20927636458E-01  0.55529426163E-02  0.23597065627E-01  0.00000000000E+00 0.  1.
     999901    1    3    3    0    0 -0.69170215063E-01  0.37076895135E-01  0.94564024623E-01  0.88853900846E+00  0.88000000000E+00 0.  1.
        -11    1    4    4    0    0  0.48432753467E-01 -0.36884648801E-01 -0.79725561826E-01  0.10031268741E+00  0.51100000000E-03 0. -1.
         11    1    4    4    0    0  0.11355544585E-01 -0.21119882792E-01 -0.20391405414E-01  0.31481238503E-01  0.51100000000E-03 0.  1.
</event>
<event>
 8    1  0.1163913E+005  0.1043930E+01  0.7957747E-01            NaN
         13   -1    0    0    0    0  0.00000000000E+00  0.00000000000E+00  0.74505805969E-08  0.10566000000E+00  0.10566000000E+00 0.  1.
     999900   -1    0    0    0    0 -0.00000000000E+00 -0.00000000000E+00 -0.74505805969E-08  0.93827000000E+00  0.93827000000E+00 0. -1.
     999902    2    1    2    0    0 -0.54855569365E-02 -0.35000472741E-02 -0.22114213475E-01  0.10208783167E+01  0.10206180272E+01 0.  0.
     999903    2    3    3    0    0  0.87861228607E-01 -0.15836650475E-01 -0.94915404269E-01  0.13286602650E+00  0.25962512187E-01 0.  0.
         14    1    1    2    0    0  0.54855569365E-02  0.35000472741E-02  0.22114213475E-01  0.23051683311E-01  0.00000000000E+00 0.  1.
     999901    1    3    3    0    0 -0.93346785544E-01  0.12336603201E-01  0.72801190794E-01  0.88801229019E+00  0.88000000000E+00 0. -1.
        -11    1    4    4    0    0  0.13309842074E-01 -0.18439801040E-02 -0.31553169560E-02  0.13811926179E-01  0.51100000000E-03 0. -1.
         11    1    4    4    0    0  0.74551386533E-01 -0.13992670371E-01 -0.91760087313E-01  0.11905410032E+00  0.51100000000E-03 0.  1.
</event>
<event>
 8    1  0.1163913E+005  0.1043930E+01  0.7957747E-01            NaN
         13   -1    0    0    0    0  0.00000000000E+00  0.00000000000E+00  0.74505805969E-08  0.10566000000E+00  0.10566000000E+00 0.  1.
     999900   -1    0    0    0    0 -0.00000000000E+00 -0.00000000000E+00 -0.74505805969E-08  0.93827000000E+00  0.93827000000E+00 0. -1.
     999902    2    1    2    0    0 -0.58988983126E-02  0.55216051884E-02  0.21885553072E-01  0.10206005646E+01  0.10203338913E+01 0.  0.
     999903    2    3    3    0    0  0.14614605209E-01 -0.12753394977E+00  0.10714241474E-01  0.13029197606E+00  0.19562950376E-01 0.  0.
         14    1    1    2    0    0  0.58988983126E-02 -0.55216051884E-02 -0.21885553072E-01  0.23329435450E-01  0.00000000000E+00 0. -1.
     999901    1    3    3    0    0 -0.20513503522E-01  0.13305555496E+00  0.11171311597E-01  0.89030858849E+00  0.88000000000E+00 0.  1.
        -11    1    4    4    0    0  0.31532900545E-02 -0.83602635862E-01  0.13749705311E-01  0.84785962744E-01  0.51100000000E-03 0.  1.
         11    1    4    4    0    0  0.11461315155E-01 -0.43931313905E-01 -0.30354638366E-02  0.45506013319E-01  0.51100000000E-03 0. -1.
</event>
<event>
 8    1  0.1163913E+005  0.1043930E+01  0.7957747E-01            NaN
         13   -1    0    0    0    0  0.00000000000E+00  0.00000000000E+00  0.74505805969E-08  0.10566000000E+00  0.10566000000E+00 0. -1.
     999900   -1    0    0    0    0 -0.00000000000E+00 -0.00000000000E+00 -0.74505805969E-08  0.93827000000E+00  0.93827000000E+00 0.  1.
     999902    2    1    2    0    0 -0.19441824948E-01 -0.67482738268E-03  0.13117906375E-01  0.10204668498E+01  0.10201970751E+01 0.  0.
     999903    2    3    3    0    0  0.11084451399E+00 -0.54059665703E-01 -0.29106707937E-01  0.12827438787E+00  0.19954057214E-01 0.  0.
         14    1    1    2    0    0  0.19441824948E-01  0.67482738268E-03 -0.13117906375E-01  0.23463150193E-01  0.00000000000E+00 0. -1.
     999901    1    3    3    0    0 -0.13028633894E+00  0.53384838320E-01  0.42224614312E-01  0.89219246193E+00  0.88000000000E+00 0. -1.
        -11    1    4    4    0    0  0.51953937794E-01 -0.36263325202E-01 -0.13037983180E-01  0.64687638181E-01  0.51100000000E-03 0.  1.
         11    1    4    4    0    0  0.58890576198E-01 -0.17796340501E-01 -0.16068724757E-01  0.63586749693E-01  0.51100000000E-03 0. -1.
</event>
<event>
 8    1  0.1163913E+005  0.1043930E+01  0.7957747E-01            NaN
         13   -1    0    0    0    0  0.00000000000E+00  0.00000000000E+00  0.74505805969E-08  0.10566000000E+00  0.10566000000E+00 0. -1.
     999900   -1    0    0    0    0 -0.00000000000E+00 -0.00000000000E+00 -0.74505805969E-08  0.93827000000E+00  0.93827000000E+00 0.  1.
     999902    2    1    2    0    0  0.15644350755E-01 -0.19802540201E-01  0.14413636535E-01  0.10148673224E+01  0.10144511043E+01 0.  0.
     999903    2    3    3    0    0  0.19041137124E-01 -0.85181444361E-01  0.92865682702E-01  0.12895498884E+00  0.19670047215E-01 0.  0.
         14    1    1    2    0    0 -0.15644350755E-01  0.19802540201E-01 -0.14413636535E-01  0.29062677563E-01  0.00000000000E+00 0.  1.
     999901    1    3    3    0    0 -0.33967863686E-02  0.65378904160E-01 -0.78452046166E-01  0.88591233359E+00  0.88000000000E+00 0.  1.
        -11    1    4    4    0    0 -0.23953765894E-02 -0.21331533177E-01  0.16150363552E-01  0.26867592013E-01  0.51100000000E-03 0. -1.
         11    1    4    4    0    0  0.21436513713E-01 -0.63849911184E-01  0.76715319149E-01  0.10208739683E+00  0.51100000000E-03 0.  1.
</event>
<event>
 8    1  0.1163913E+005  0.1043930E+01  0.7957747E-01            NaN
         13   -1    0    0    0    0  0.00000000000E+00  0.00000000000E+00  0.74505805969E-08  0.10566000000E+00  0.10566000000E+00 0.  1.
     999900   -1    0    0    0    0 -0.00000000000E+00 -0.00000000000E+00 -0.74505805969E-08  0.93827000000E+00  0.93827000000E+00 0.  1.
     999902    2    1    2    0    0 -0.16702397179E-01 -0.15600770946E-01 -0.67896322718E-02  0.10200877427E+01  0.10198090751E+01 0.  0.
     999903    2    3    3    0    0  0.12534389330E+00  0.19392494678E-01 -0.55747884984E-02  0.12800974550E+00  0.16378529808E-01 0.  0.
         14    1    1    2    0    0  0.16702397179E-01  0.15600770946E-01  0.67896322718E-02  0.23842257276E-01  0.00000000000E+00 0. -1.
     999901    1    3    3    0    0 -0.14204629048E+00 -0.34993265624E-01 -0.12148437734E-02  0.89207799722E+00  0.88000000000E+00 0. -1.
        -11    1    4    4    0    0  0.10218017709E+00  0.12666801471E-01 -0.10119380032E-01  0.10345965118E+00  0.51100000000E-03 0. -1.
         11    1    4    4    0    0  0.23163716216E-01  0.67256932064E-02  0.45445915339E-02  0.24550094323E-01  0.51100000000E-03 0.  1.
</event>
<event>
 8    1  0.1163913E+005  0.1043930E+01  0.7957747E-01            NaN
         13   -1    0    0    0    0  0.00000000000E+00  0.00000000000E+00  0.74505805969E-08  0.10566000000E+00  0.10566000000E+00 0.  1.
     999900   -1    0    0    0    0 -0.00000000000E+00 -0.00000000000E+00 -0.74505805969E-08  0.93827000000E+00  0.93827000000E+00 0. -1.
     999902    2    1    2    0    0 -0.23500154600E-01 -0.24162621607E-03 -0.12337220611E-02  0.10203962430E+01  0.10201248232E+01 0.  0.
     999903    2    3    3    0    0  0.20888955685E-01  0.11638868828E+00 -0.50916834630E-01  0.13020444620E+00  0.19442184357E-01 0.  0.
         14    1    1    2    0    0  0.23500154600E-01  0.24162621607E-03  0.12337220611E-02  0.23533757023E-01  0.00000000000E+00 0.  1.
     999901    1    3    3    0    0 -0.44389110285E-01 -0.11663031450E+00  0.49683112569E-01  0.89019179678E+00  0.88000000000E+00 0.  1.
        -11    1    4    4    0    0  0.42549734587E-02  0.48159351858E-01 -0.30104758133E-01  0.56955996644E-01  0.51100000000E-03 0. -1.
         11    1    4    4    0    0  0.16633982226E-01  0.68229336424E-01 -0.20812076497E-01  0.73248449558E-01  0.51100000000E-03 0.  1.
</event>
<event>
 8    1  0.1163913E+005  0.1043930E+01  0.7957747E-01            NaN
         13   -1    0    0    0    0  0.00000000000E+00  0.00000000000E+00  0.74505805969E-08  0.10566000000E+00  0.10566000000E+00 0.  1.
     999900   -1    0    0    0    0 -0.00000000000E+00 -0.00000000000E+00 -0.74505805969E-08  0.93827000000E+00  0.93827000000E+00 0. -1.
     999902    2    1    2    0    0  0.99492309604E-02  0.18532101207E-01 -0.10531663408E-01  0.10204067794E+01  0.10201356055E+01 0.  0.
     999903    2    3    3    0    0 -0.51086926933E-02 -0.11855326696E+00 -0.46310481629E-01  0.12894771527E+00  0.20046863055E-01 0.  0.
         14    1    1    2    0    0 -0.99492309604E-02 -0.18532101207E-01  0.10531663408E-01  0.23523220571E-01  0.00000000000E+00 0.  1.
     999901    1    3    3    0    0  0.15057923654E-01  0.13708536817E+00  0.35778818220E-01  0.89145906415E+00  0.88000000000E+00 0.  1.
        -11    1    4    4    0    0 -0.11109642241E-01 -0.99701500651E-01 -0.35630494610E-01  0.10645941316E+00  0.51100000000E-03 0.  1.
         11    1    4    4    0    0  0.60009495473E-02 -0.18851766308E-01 -0.10679987019E-01  0.22488302117E-01  0.51100000000E-03 0. -1.
</event>
<event>
 8    1  0.1163913E+005  0.1043930E+01  0.7957747E-01            NaN
         13   -1    0    0    0    0  0.00000000000E+00  0.00000000000E+00  0.74505805969E-08  0.10566000000E+00  0.10566000000E+00 0. -1.
     999900   -1    0    0    0    0 -0.00000000000E+00 -0.00000000000E+00 -0.74505805969E-08  0.93827000000E+00  0.93827000000E+00 0.  1.
     999902    2    1    2    0    0  0.18075046048E-01 -0.87440965582E-02 -0.10054298676E-01  0.10214743674E+01  0.10212275103E+01 0.  0.
     999903    2    3    3    0    0  0.34055275007E-01  0.37993272289E-01  0.11884104512E+00  0.13071415329E+00  0.18966954683E-01 0.  0.
         14    1    1    2    0    0 -0.18075046048E-01  0.87440965582E-02  0.10054298676E-01  0.22455632615E-01  0.00000000000E+00 0. -1.
     999901    1    3    3    0    0 -0.15980228959E-01 -0.46737368848E-01 -0.12889534380E+00  0.89076021410E+00  0.88000000000E+00 0.  1.
        -11    1    4    4    0    0  0.14408215938E-01  0.19803518314E-01  0.78991732787E-01  0.82702666183E-01  0.51100000000E-03 0.  1.
         11    1    4    4    0    0  0.19647059069E-01  0.18189753976E-01  0.39849312333E-01  0.48011487106E-01  0.51100000000E-03 0. -1.
</event>
<event>
 8    1  0.1163913E+005  0.1043930E+01  0.7957747E-01            NaN
         13   -1    0    0    0    0  0.00000000000E+00  0.00000000000E+00  0.74505805969E-08  0.10566000000E+00  0.10566000000E+00 0. -1.
     999900   -1    0    0    0    0 -0.00000000000E+00 -0.00000000000E+00 -0.74505805969E-08  0.93827000000E+00  0.93827000000E+00 0. -1.
     999902    2    1    2    0    0  0.66601510464E-02 -0.95556970569E-02  0.26044690034E-01  0.10153994052E+01  0.10149985011E+01 0.  0.
     999903    2    3    3    0    0 -0.78087732619E-02  0.46980812878E-01  0.11772333254E+00  0.12871417349E+00  0.20985273696E-01 0.  0.
         14    1    1    2    0    0 -0.66601510464E-02  0.95556970569E-02 -0.26044690034E-01  0.28530594756E-01  0.00000000000E+00 0.  1.
     999901    1    3    3    0    0  0.14468924308E-01 -0.56536509935E-01 -0.91678642511E-01  0.88668523176E+00  0.88000000000E+00 0. -1.
        -11    1    4    4    0    0 -0.57315694353E-02  0.46713948191E-01  0.96342224581E-01  0.10722466695E+00  0.51100000000E-03 0. -1.
         11    1    4    4    0    0 -0.20772038266E-02  0.26686468733E-03  0.21381107963E-01  0.21489506538E-01  0.51100000000E-03 0.  1.
</event>
<event>
 8    1  0.1163913E+005  0.1043930E+01  0.7957747E-01            NaN
         13   -1    0    0    0    0  0.00000000000E+00  0.00000000000E+00  0.74505805969E-08  0.10566000000E+00  0.10566000000E+00 0.  1.
     999900   -1    0    0    0    0 -0.00000000000E+00 -0.00000000000E+00 -0.74505805969E-08  0.93827000000E+00  0.93827000000E+00 0. -1.
     999902    2    1    2    0    0  0.21083368591E-01 -0.76857294989E-03 -0.10691593023E-01  0.10202781650E+01  0.10200039827E+01 0.  0.
     999903    2    3    3    0    0 -0.10089173416E+00 -0.29481777332E-01  0.69865925477E-01  0.12775820023E+00  0.19813958881E-01 0.  0.
         14    1    1    2    0    0 -0.21083368591E-01  0.76857294989E-03  0.10691593023E-01  0.23651834958E-01  0.00000000000E+00 0. -1.
     999901    1    3    3    0    0  0.12197510275E+00  0.28713204382E-01 -0.80557518500E-01  0.89251996481E+00  0.88000000000E+00 0. -1.
        -11    1    4    4    0    0 -0.54904495475E-01 -0.60646851848E-02  0.33186745835E-01  0.64443038801E-01  0.51100000000E-03 0. -1.
         11    1    4    4    0    0 -0.45987238688E-01 -0.23417092147E-01  0.36679179642E-01  0.63315161431E-01  0.51100000000E-03 0.  1.
</event>
<event>
 8    1  0.1163913E+005  0.1043930E+01  0.7957747E-01            NaN
         13   -1    0    0    0    0  0.00000000000E+00  0.00000000000E+00  0.74505805969E-08  0.10566000000E+00  0.10566000000E+00 0. -1.
     999900   -1    0    0    0    0 -0.00000000000E+00 -0.00000000000E+00 -0.74505805969E-08  0.93827000000E+00  0.93827000000E+00 0.  1.
     999902    2    1    2    0    0 -0.14599545848E-01 -0.19650346650E-02  0.19008955295E-01  0.10198811231E+01  0.10195975464E+01 0.  0.
     999903    2    3    3    0    0 -0.12837889250E+00 -0.21500534268E-01 -0.11104893672E-01  0.13183032533E+00  0.17677754325E-01 0.  0.
         14    1    1    2    0    0  0.14599545848E-01  0.19650346650E-02 -0.19008955295E-01  0.24048876930E-01  0.00000000000E+00 0.  1.
     999901    1    3    3    0    0  0.11377934666E+00  0.19535499603E-01  0.30113848967E-01  0.88805079774E+00  0.88000000000E+00 0. -1.
        -11    1    4    4    0    0 -0.30728588087E-01 -0.12867535402E-01 -0.35729262788E-02  0.33508902047E-01  0.51100000000E-03 0. -1.
         11    1    4    4    0    0 -0.97650304417E-01 -0.86329988658E-02 -0.75319673931E-02  0.98321423281E-01  0.51100000000E-03 0.  1.
</event>
<event>
 8    1  0.1163913E+005  0.1043930E+01  0.7957747E-01            NaN
         13   -1    0    0    0    0  0.00000000000E+00  0.00000000000E+00  0.74505805969E-08  0.10566000000E+00  0.10566000000E+00 0. -1.
     999900   -1    0    0    0    0 -0.00000000000E+00 -0.00000000000E+00 -0.74505805969E-08  0.93827000000E+00  0.93827000000E+00 0.  1.
     999902    2    1    2    0    0  0.82060373187E-02 -0.18913564278E-01 -0.16828571706E-01  0.10173167930E+01  0.10169686300E+01 0.  0.
     999903    2    3    3    0    0  0.44506915609E-01 -0.11947670987E+00 -0.20991318138E-01  0.13083609467E+00  0.20540167820E-01 0.  0.
         14    1    1    2    0    0 -0.82060373187E-02  0.18913564278E-01  0.16828571706E-01  0.26613207019E-01  0.00000000000E+00 0. -1.
     999901    1    3    3    0    0 -0.36300878290E-01  0.10056314559E+00  0.41627464319E-02  0.88648069831E+00  0.88000000000E+00 0.  1.
        -11    1    4    4    0    0  0.13931090696E-01 -0.50922272069E-01  0.34486007904E-03  0.52797093955E-01  0.51100000000E-03 0. -1.
         11    1    4    4    0    0  0.30575824912E-01 -0.68554437799E-01 -0.21336178217E-01  0.78039000717E-01  0.51100000000E-03 0.  1.
</event>
<event>
 8    1  0.1163913E+005  0.1043930E+01  0.7957747E-01            NaN
         13   -1    0    0    0    0  0.00000000000E+00  0.00000000000E+00  0.74505805969E-08  0.10566000000E+00  0.10566000000E+00 0. -1.
     999900   -1    0    0    0    0 -0.00000000000E+00 -0.00000000000E+00 -0.74505805969E-08  0.93827000000E+00  0.93827000000E+00 0.  1.
     999902    2    1    2    0    0  0.19958478182E-01 -0.35218586571E-02 -0.12048345602E-01  0.10203523205E+01  0.10200798748E+01 0.  0.
     999903    2    3    3    0    0  0.65846155725E-01 -0.98547536104E-01  0.53399093520E-01  0.13163474689E+00  0.20710149783E-01 0.  0.
         14    1    1    2    0    0 -0.19958478182E-01  0.35218586571E-02  0.12048345602E-01  0.23577679518E-01  0.00000000000E+00 0.  1.
     999901    1    3    3    0    0 -0.45887677543E-01  0.95025677446E-01 -0.65447439122E-01  0.88871757359E+00  0.88000000000E+00 0.  1.
        -11    1    4    4    0    0  0.11781767630E-01 -0.34699559728E-01  0.15784603961E-01  0.39903437659E-01  0.51100000000E-03 0. -1.
         11    1    4    4    0    0  0.54064388094E-01 -0.63847976375E-01  0.37614489559E-01  0.91731309230E-01  0.51100000000E-03 0.  1.
</event>
<event>
 8    1  0.1163913E+005  0.1043930E+01  0.7957747E-01            NaN
         13   -1    0    0    0    0  0.00000000000E+00  0.00000000000E+00  0.74505805969E-08  0.10566000000E+00  0.10566000000E+00 0.  1.
     999900   -1    0    0    0    0 -0.00000000000E+00 -0.00000000000E+00 -0.74505805969E-08  0.93827000000E+00  0.93827000000E+00 0. -1.
     999902    2    1    2    0    0 -0.14290104874E-01  0.24484204598E-01  0.94281345652E-02  0.10140540382E+01  0.10136138413E+01 0.  0.
     999903    2    3    3    0    0 -0.61162723187E-01 -0.34721185635E-01  0.10253299678E+00  0.12592632444E+00  0.19949544314E-01 0.  0.
         14    1    1    2    0    0  0.14290104874E-01 -0.24484204598E-01 -0.94281345652E-02  0.29875961800E-01  0.00000000000E+00 0. -1.
     999901    1    3    3    0    0  0.46872618313E-01  0.59205390233E-01 -0.93104862216E-01  0.88812771376E+00  0.88000000000E+00 0. -1.
        -11    1    4    4    0    0 -0.60576357772E-01 -0.28721599216E-01  0.93367434805E-01  0.11494417943E+00  0.51100000000E-03 0.  1.
         11    1    4    4    0    0 -0.58636541478E-03 -0.59995864195E-02  0.91655619770E-02  0.10982145007E-01  0.51100000000E-03 0. -1.
</event>
<event>
 8    1  0.1163913E+005  0.1043930E+01  0.7957747E-01            NaN
         13   -1    0    0    0    0  0.00000000000E+00  0.00000000000E+00  0.74505805969E-08  0.10566000000E+00  0.10566000000E+00 0. -1.
     999900   -1    0    0    0    0 -0.00000000000E+00 -0.00000000000E+00 -0.74505805969E-08  0.93827000000E+00  0.93827000000E+00 0.  1.
     999902    2    1    2    0    0  0.27014393675E-02  0.19447393173E-01 -0.11951484875E-01  0.10209444205E+01  0.10206856386E+01 0.  0.
     999903    2    3    3    0    0  0.10566876939E+00 -0.72999107993E-01 -0.56864848538E-02  0.13010892675E+00  0.20030929034E-01 0.  0.
         14    1    1    2    0    0 -0.27014393675E-02 -0.19447393173E-01  0.11951484875E-01  0.22985579536E-01  0.00000000000E+00 0. -1.
     999901    1    3    3    0    0 -0.10296733003E+00  0.92446501165E-01 -0.62650000214E-02  0.89083549371E+00  0.88000000000E+00 0. -1.
        -11    1    4    4    0    0  0.79827898911E-01 -0.47321879221E-01 -0.10359428110E-01  0.93377901933E-01  0.51100000000E-03 0. -1.
         11    1    4    4    0    0  0.25840870482E-01 -0.25677228772E-01  0.46729432559E-02  0.36731024820E-01  0.51100000000E-03 0.  1.
</event>
<event>
 8    1  0.1163913E+005  0.1043930E+01  0.7957747E-01            NaN
         13   -1    0    0    0    0  0.00000000000E+00  0.00000000000E+00  0.74505805969E-08  0.10566000000E+00  0.10566000000E+00 0.  1.
     999900   -1    0    0    0    0 -0.00000000000E+00 -0.00000000000E+00 -0.74505805969E-08  0.93827000000E+00  0.93827000000E+00 0.  1.
     999902    2    1    2    0    0  0.14071175232E-02  0.19160630287E-01 -0.12562781289E-01  0.10209749743E+01  0.10207168877E+01 0.  0.
     999903    2    3    3    0    0  0.12794442965E+00  0.23027654209E-01 -0.10055056191E-01  0.13191202153E+00  0.19990681183E-01 0.  0.
         14    1    1    2    0    0 -0.14071175232E-02 -0.19160630287E-01  0.12562781289E-01  0.22955025734E-01  0.00000000000E+00 0. -1.
     999901    1    3    3    0    0 -0.12653731212E+00 -0.38670239216E-02 -0.25077250975E-02  0.88906295273E+00  0.88000000000E+00 0. -1.
        -11    1    4    4    0    0  0.63613507420E-01  0.17720420130E-01  0.27836744171E-02  0.66096154049E-01  0.51100000000E-03 0.  1.
         11    1    4    4    0    0  0.64330922228E-01  0.53072340789E-02 -0.12838730609E-01  0.65815867486E-01  0.51100000000E-03 0. -1.
</event>
<event>
 8    1  0.1163913E+005  0.1043930E+01  0.7957747E-01            NaN
         13   -1    0    0    0    0  0.00000000000E+00  0.00000000000E+00  0.74505805969E-08  0.10566000000E+00  0.10566000000E+00 0.  1.
     999900   -1    0    0    0    0 -0.00000000000E+00 -0.00000000000E+00 -0.74505805969E-08  0.93827000000E+00  0.93827000000E+00 0.  1.
     999902    2    1    2    0    0  0.12001648518E-01  0.11271351262E-01  0.16661779760E-01  0.10205057000E+01  0.10202368283E+01 0.  0.
     999903    2    3    3    0    0 -0.73406850601E-01  0.10113360330E+00 -0.31675721805E-01  0.13050213251E+00  0.20270269019E-01 0.  0.
         14    1    1    2    0    0 -0.12001648518E-01 -0.11271351262E-01 -0.16661779760E-01  0.23424300015E-01  0.00000000000E+00 0. -1.
     999901    1    3    3    0    0  0.85408499119E-01 -0.89862252037E-01  0.48337501565E-01  0.89000356748E+00  0.88000000000E+00 0. -1.
        -11    1    4    4    0    0 -0.40566296828E-01  0.43855357396E-01 -0.76063837795E-02  0.60224870327E-01  0.51100000000E-03 0.  1.
         11    1    4    4    0    0 -0.32840553773E-01  0.57278245903E-01 -0.24069338026E-01  0.70277262182E-01  0.51100000000E-03 0. -1.
</event>
<event>
 8    1  0.1163913E+005  0.1043930E+01  0.7957747E-01            NaN
         13   -1    0    0    0    0  0.00000000000E+00  0.00000000000E+00  0.74505805969E-08  0.10566000000E+00  0.10566000000E+00 0. -1.
     999900   -1    0    0    0    0 -0.00000000000E+00 -0.00000000000E+00 -0.74505805969E-08  0.93827000000E+00  0.93827000000E+00 0. -1.
     999902    2    1    2    0    0 -0.25069456499E-01 -0.18749020762E-01  0.98449205791E-02  0.10111134510E+01  0.10105807661E+01 0.  0.
     999903    2    3    3    0    0 -0.65920031423E-01 -0.24180191029E-01  0.10191051399E+00  0.12535143973E+00  0.19927327916E-01 0.  0.
         14    1    1    2    0    0  0.25069456499E-01  0.18749020762E-01 -0.98449205791E-02  0.32816549025E-01  0.00000000000E+00 0.  1.
     999901    1    3    3    0    0  0.40850574924E-01  0.54311702671E-02 -0.92065593415E-01  0.88576201125E+00  0.88000000000E+00 0. -1.
        -11    1    4    4    0    0 -0.19512992473E-01 -0.64321751027E-02  0.15760569453E-01  0.25899544828E-01  0.51100000000E-03 0. -1.
         11    1    4    4    0    0 -0.46407038950E-01 -0.17748015926E-01  0.86149944541E-01  0.99451894898E-01  0.51100000000E-03 0.  1.
</event>
<event>
 8    1  0.1163913E+005  0.1043930E+01  0.7957747E-01            NaN
         13   -1    0    0    0    0  0.00000000000E+00  0.00000000000E+00  0.74505805969E-08  0.10566000000E+00  0.10566000000E+00 0. -1.
     999900   -1    0    0    0    0 -0.00000000000E+00 -0.00000000000E+00 -0.74505805969E-08  0.93827000000E+00  0.93827000000E+00 0. -1.
     999902    2    1    2    0    0  0.17761250846E-01 -0.12182352774E-01  0.76726049735E-02  0.10210664784E+01  0.10208104686E+01 0.  0.
     999903    2    3    3    0    0 -0.10707531333E+00 -0.48648631397E-01  0.52563691874E-01  0.13037620292E+00  0.20079853677E-01 0.  0.
         14    1    1    2    0    0 -0.17761250846E-01  0.12182352774E-01 -0.76726049735E-02  0.22863521553E-01  0.00000000000E+00 0.  1.
     999901    1    3    3    0    0  0.12483656417E+00  0.36466278623E-01 -0.44891086901E-01  0.89069027552E+00  0.88000000000E+00 0.  1.
        -11    1    4    4    0    0 -0.12201940832E-01 -0.13028454241E-01  0.58915921855E-02  0.18804253760E-01  0.51100000000E-03 0. -1.
         11    1    4    4    0    0 -0.94873372496E-01 -0.35620177156E-01  0.46672099689E-01  0.11157194916E+00  0.51100000000E-03 0.  1.
</event>
<event>
 8    1  0.1163913E+005  0.1043930E+01  0.7957747E-01            NaN
         13   -1    0    0    0    0  0.00000000000E+00  0.00000000000E+00  0.74505805969E-08  0.10566000000E+00  0.10566000000E+00 0.  1.
     999900   -1    0    0    0    0 -0.00000000000E+00 -0.00000000000E+00 -0.74505805969E-08  0.93827000000E+00  0.93827000000E+00 0.  1.
     999902    2    1    2    0    0 -0.10396425112E-01  0.15425110955E-01  0.14634077318E-01  0.10202619641E+01  0.10199874016E+01 0.  0.
     999903    2    3    3    0    0 -0.32457921823E-01  0.77777126801E-01  0.10134056200E+00  0.13353060796E+00  0.21394289280E-01 0.  0.
         14    1    1    2    0    0  0.10396425112E-01 -0.15425110955E-01 -0.14634077318E-01  0.23668035872E-01  0.00000000000E+00 0. -1.
     999901    1    3    3    0    0  0.22061496710E-01 -0.62352015847E-01 -0.86706484685E-01  0.88673135616E+00  0.88000000000E+00 0.  1.
        -11    1    4    4    0    0 -0.13449075098E-01  0.18615713432E-01  0.40515385102E-01  0.46574456073E-01  0.51100000000E-03 0. -1.
         11    1    4    4    0    0 -0.19008846725E-01  0.59161413370E-01  0.60825176901E-01  0.86956151891E-01  0.51100000000E-03 0.  1.
</event>
<event>
 8    1  0.1163913E+005  0.1043930E+01  0.7957747E-01            NaN
         13   -1    0    0    0    0  0.00000000000E+00  0.00000000000E+00  0.74505805969E-08  0.10566000000E+00  0.10566000000E+00 0.  1.
     999900   -1    0    0    0    0 -0.00000000000E+00 -0.00000000000E+00 -0.74505805969E-08  0.93827000000E+00  0.93827000000E+00 0.  1.
     999902    2    1    2    0    0 -0.22071766549E-01  0.14862338106E-02 -0.89042195557E-02  0.10200834720E+01  0.10198047034E+01 0.  0.
     999903    2    3    3    0    0 -0.12975423203E+00  0.15409559206E-01 -0.69751079359E-02  0.13340816855E+00  0.25989845345E-01 0.  0.
         14    1    1    2    0    0  0.22071766549E-01 -0.14862338106E-02  0.89042195557E-02  0.23846527953E-01  0.00000000000E+00 0.  1.
     999901    1    3    3    0    0  0.10768246548E+00 -0.13923325395E-01 -0.19291116197E-02  0.88667530350E+00  0.88000000000E+00 0. -1.
        -11    1    4    4    0    0 -0.73957155898E-01  0.17373081137E-01 -0.13609712736E-01  0.77181411353E-01  0.51100000000E-03 0.  1.
         11    1    4    4    0    0 -0.55797076129E-01 -0.19635219312E-02  0.66346047999E-02  0.56226757196E-01  0.51100000000E-03 0. -1.
</event>
<event>
 8    1  0.1163913E+005  0.1043930E+01  0.7957747E-01            NaN
         13   -1    0    0    0    0  0.00000000000E+00  0.00000000000E+00  0.74505805969E-08  0.10566000000E+00  0.10566000000E+00 0. -1.
     999900   -1    0    0    0    0 -0.00000000000E+00 -0.00000000000E+00 -0.74505805969E-08  0.93827000000E+00  0.93827000000E+00 0. -1.
     999902    2    1    2    0    0  0.11264337033E-01  0.17654370397E-01  0.11460782050E-01  0.10200571785E+01  0.10197777874E+01 0.  0.
     999903    2    3    3    0    0 -0.12005711780E+00 -0.97600730926E-02 -0.39695032869E-01  0.12842171842E+00  0.20185924924E-01 0.  0.
         14    1    1    2    0    0 -0.11264337033E-01 -0.17654370397E-01 -0.11460782050E-01  0.23872821536E-01  0.00000000000E+00 0.  1.
     999901    1    3    3    0    0  0.13132145484E+00  0.27414443489E-01  0.51155814919E-01  0.89163546005E+00  0.88000000000E+00 0.  1.
        -11    1    4    4    0    0 -0.94548006720E-01 -0.30732427062E-02 -0.38144774428E-01  0.10200027124E+00  0.51100000000E-03 0. -1.
         11    1    4    4    0    0 -0.25509111083E-01 -0.66868303864E-02 -0.15502584412E-02  0.26421447180E-01  0.51100000000E-03 0.  1.
</event>
<event>
 8    1  0.1163913E+005  0.1043930E+01  0.7957747E-01            NaN
         13   -1    0    0    0    0  0.00000000000E+00  0.00000000000E+00  0.74505805969E-08  0.10566000000E+00  0.10566000000E+00 0. -1.
     999900   -1    0    0    0    0 -0.00000000000E+00 -0.00000000000E+00 -0.74505805969E-08  0.93827000000E+00  0.93827000000E+00 0. -1.
     999902    2    1    2    0    0 -0.37806066940E-02  0.99051150727E-02  0.17071574778E-01  0.10238341557E+01  0.10236369158E+01 0.  0.
     999903    2    3    3    0    0 -0.27302467571E-02  0.12496704500E+00  0.48558397102E-01  0.13578473652E+00  0.21339169591E-01 0.  0.
         14    1    1    2    0    0  0.37806066940E-02 -0.99051150727E-02 -0.17071574778E-01  0.20095844271E-01  0.00000000000E+00 0.  1.
     999901    1    3    3    0    0 -0.10503599369E-02 -0.11506192993E+00 -0.31486822325E-01  0.88804941921E+00  0.88000000000E+00 0.  1.
        -11    1    4    4    0    0  0.28734672130E-02  0.10912170124E+00  0.47158751361E-01  0.11891178010E+00  0.51100000000E-03 0. -1.
         11    1    4    4    0    0 -0.56037139701E-02  0.15845343764E-01  0.13996457410E-02  0.16872956423E-01  0.51100000000E-03 0.  1.
</event>
<event>
 8    1  0.1163913E+005  0.1043930E+01  0.7957747E-01            NaN
         13   -1    0    0    0    0  0.00000000000E+00  0.00000000000E+00  0.74505805969E-08  0.10566000000E+00  0.10566000000E+00 0. -1.
     999900   -1    0    0    0    0 -0.00000000000E+00 -0.00000000000E+00 -0.74505805969E-08  0.93827000000E+00  0.93827000000E+00 0. -1.
     999902    2    1    2    0    0 -0.23962738581E-01 -0.21121714584E-02 -0.43744210784E-02  0.10194798534E+01  0.10191866178E+01 0.  0.
     999903    2    3    3    0    0  0.16692371174E-01  0.12435667981E+00  0.22599483298E-01  0.12910083310E+00  0.20324108656E-01 0.  0.
         14    1    1    2    0    0  0.23962738581E-01  0.21121714584E-02  0.43744210784E-02  0.24450146592E-01  0.00000000000E+00 0. -1.
     999901    1    3    3    0    0 -0.40655109755E-01 -0.12646885127E+00 -0.26973904376E-01  0.89037902031E+00  0.88000000000E+00 0. -1.
        -11    1    4    4    0    0 -0.28915766470E-02  0.25846733686E-01  0.10024275840E-01  0.27877626959E-01  0.51100000000E-03 0. -1.
         11    1    4    4    0    0  0.19583947821E-01  0.98509946124E-01  0.12575207457E-01  0.10122320614E+00  0.51100000000E-03 0.  1.
</event>
<event>
 8    1  0.1163913E+005  0.1043930E+01  0.7957747E-01            NaN
         13   -1    0    0    0    0  0.00000000000E+00  0.00000000000E+00  0.74505805969E-08  0.10566000000E+00  0.10566000000E+00 0. -1.
     999900   -1    0    0    0    0 -0.00000000000E+00 -0.00000000000E+00 -0.74505805969E-08  0.93827000000E+00  0.93827000000E+00 0.  1.
     999902    2    1    2    0    0 -0.12380261434E-01  0.13631132854E-01 -0.14735708389E-01  0.10203456883E+01  0.10200730875E+01 0.  0.
     999903    2    3    3    0    0 -0.35210996066E-01 -0.86411776943E-01  0.86280153912E-01  0.12864280580E+00  0.19947357883E-01 0.  0.
         14    1    1    2    0    0  0.12380261434E-01 -0.13631132854E-01  0.14735708389E-01  0.23584311688E-01  0.00000000000E+00 0. -1.
     999901    1    3    3    0    0  0.22830734632E-01  0.10004290980E+00 -0.10101586230E+00  0.89170288251E+00  0.88000000000E+00 0.  1.
        -11    1    4    4    0    0 -0.13150851234E-01 -0.14412099175E-01  0.12249912506E-01  0.23042894094E-01  0.51100000000E-03 0. -1.
         11    1    4    4    0    0 -0.22060144832E-01 -0.71999677768E-01  0.74030241406E-01  0.10559991171E+00  0.51100000000E-03 0.  1.
</event>
<event>
 8    1  0.1163913E+005  0.1043930E+01  0.7957747E-01            NaN
         13   -1    0    0    0    0  0.00000000000E+00  0.00000000000E+00  0.74505805969E-08  0.10566000000E+00  0.10566000000E+00 0.  1.
     999900   -1    0    0    0    0 -0.00000000000E+00 -0.00000000000E+00 -0.74505805969E-08  0.93827000000E+00  0.93827000000E+00 0. -1.
     999902    2    1    2    0    0 -0.10477888985E-01  0.14144620253E-01  0.16439093438E-01  0.10198447300E+01  0.10195602841E+01 0.  0.
     999903    2    3    3    0    0  0.48164729810E-01 -0.54750013624E-01  0.10630574400E+00  0.13065327578E+00  0.21259399642E-01 0.  0.
         14    1    1    2    0    0  0.10477888985E-01 -0.14144620253E-01 -0.16439093438E-01  0.24085270036E-01  0.00000000000E+00 0. -1.
     999901    1    3    3    0    0 -0.58642618794E-01  0.68894633877E-01 -0.89866650567E-01  0.88919145419E+00  0.88000000000E+00 0. -1.
        -11    1    4    4    0    0  0.57020181223E-02 -0.14461104880E-01  0.35680093008E-01  0.38922573438E-01  0.51100000000E-03 0. -1.
         11    1    4    4    0    0  0.42462711687E-01 -0.40288908745E-01  0.70625650997E-01  0.91730702338E-01  0.51100000000E-03 0.  1.
</event>
<event>
 8    1  0.1163913E+005  0.1043930E+01  0.7957747E-01            NaN
         13   -1    0    0    0    0  0.00000000000E+00  0.00000000000E+00  0.74505805969E-08  0.10566000000E+00  0.10566000000E+00 0.  1.
     999900   -1    0    0    0    0 -0.00000000000E+00 -0.00000000000E+00 -0.74505805969E-08  0.93827000000E+00  0.93827000000E+00 0. -1.
     999902    2    1    2    0    0 -0.11026263204E-01 -0.20142171057E-01  0.32001667426E-02  0.10207453800E+01  0.10204820451E+01 0.  0.
     999903    2    3    3    0    0 -0.22783641534E-01 -0.77963958991E-01  0.10351465973E+00  0.13308294837E+00  0.19957784073E-01 0.  0.
         14    1    1    2    0    0  0.11026263204E-01  0.20142171057E-01 -0.32001667426E-02  0.23184619952E-01  0.00000000000E+00 0.  1.
     999901    1    3    3    0    0  0.11757378330E-01  0.57821787934E-01 -0.10031449299E+00  0.88766243168E+00  0.88000000000E+00 0. -1.
        -11    1    4    4    0    0 -0.25587954701E-01 -0.75903767056E-01  0.99741753038E-01  0.12792499247E+00  0.51100000000E-03 0. -1.
         11    1    4    4    0    0  0.28043131667E-02 -0.20601919347E-02  0.37729066934E-02  0.51579558996E-02  0.51100000000E-03 0.  1.
</event>
<event>
 8    1  0.1163913E+005  0.1043930E+01  0.7957747E-01            NaN
         13   -1    0    0    0    0  0.00000000000E+00  0.00000000000E+00  0.74505805969E-08  0.10566000000E+00  0.10566000000E+00 0. -1.
     999900   -1    0    0    0    0 -0.00000000000E+00 -0.00000000000E+00 -0.74505805969E-08  0.93827000000E+00  0.93827000000E+00 0. -1.
     999902    2    1    2    0    0  0.18413452237E-01  0.93071076094E-02  0.10464915771E-01  0.10207957843E+01  0.10205336061E+01 0.  0.
     999903    2    3    3    0    0 -0.67874306006E-01  0.87638363265E-01  0.67427950673E-01  0.13128684661E+00  0.20057503058E-01 0.  0.
         14    1    1    2    0    0 -0.18413452237E-01 -0.93071076094E-02 -0.10464915771E-01  0.23134215730E-01  0.00000000000E+00 0.  1.
     999901    1    3    3    0    0  0.86287758243E-01 -0.78331255655E-01 -0.56963034902E-01  0.88950893766E+00  0.88000000000E+00 0. -1.
        -11    1    4    4    0    0 -0.28217778212E-01  0.24840532568E-01  0.30097133355E-01  0.48160083292E-01  0.51100000000E-03 0.  1.
         11    1    4    4    0    0 -0.39656527794E-01  0.62797830697E-01  0.37330817318E-01  0.83126763317E-01  0.51100000000E-03 0. -1.
</event>
<event>
 8    1  0.1163913E+005  0.1043930E+01  0.7957747E-01            NaN
         13   -1    0    0    0    0  0.00000000000E+00  0.00000000000E+00  0.74505805969E-08  0.10566000000E+00  0.10566000000E+00 0. -1.
     999900   -1    0    0    0    0 -0.00000000000E+00 -0.00000000000E+00 -0.74505805969E-08  0.93827000000E+00  0.93827000000E+00 0. -1.
     999902    2    1    2    0    0  0.18387211638E-01 -0.38162964659E-02  0.14220934983E-01  0.10203739251E+01  0.10201019843E+01 0.  0.
     999903    2    3    3    0    0  0.12042580380E+00 -0.43382543189E-01 -0.28118992002E-01  0.13258451792E+00  0.20088738341E-01 0.  0.
         14    1    1    2    0    0 -0.18387211638E-01  0.38162964659E-02 -0.14220934983E-01  0.23556074850E-01  0.00000000000E+00 0. -1.
     999901    1    3    3    0    0 -0.10203859216E+00  0.39566246723E-01  0.42339926986E-01  0.88778940723E+00  0.88000000000E+00 0.  1.
        -11    1    4    4    0    0  0.80135182302E-01 -0.37638699108E-01 -0.14832642578E-01  0.89769635846E-01  0.51100000000E-03 0. -1.
         11    1    4    4    0    0  0.40290621494E-01 -0.57438440805E-02 -0.13286349424E-01  0.42814882076E-01  0.51100000000E-03 0.  1.
</event>
<event>
 8    1  0.1172856E+005  0.1043930E+01  0.7957747E-01            NaN
         13   -1    0    0    0    0  0.00000000000E+00  0.00000000000E+00  0.74505805969E-08  0.10566000000E+00  0.10566000000E+00 0.  1.
     999900   -1    0    0    0    0 -0.00000000000E+00 -0.00000000000E+00 -0.74505805969E-08  0.93827000000E+00  0.93827000000E+00 0. -1.
     999902    2    1    2    0    0  0.32105856099E-02  0.13712323875E-01  0.19532681572E-01  0.10198496899E+01  0.10195653626E+01 0.  0.
     999903    2    3    3    0    0 -0.10520442825E+00 -0.65636346418E-01  0.31669312764E-01  0.12957033792E+00  0.20234263091E-01 0.  0.
         14    1    1    2    0    0 -0.32105856099E-02 -0.13712323875E-01 -0.19532681572E-01  0.24080310118E-01  0.00000000000E+00 0. -1.
     999901    1    3    3    0    0  0.10841501386E+00  0.79348670293E-01 -0.12136631193E-01  0.89027935196E+00  0.88000000000E+00 0. -1.
        -11    1    4    4    0    0 -0.54460657536E-01 -0.41520548410E-01  0.25371034913E-01  0.73033346446E-01  0.51100000000E-03 0. -1.
         11    1    4    4    0    0 -0.50743770719E-01 -0.24115798008E-01  0.62982778512E-02  0.56536991477E-01  0.51100000000E-03 0.  1.
</event>
<event>
 8    1  0.1163913E+005  0.1043930E+01  0.7957747E-01            NaN
         13   -1    0    0    0    0  0.00000000000E+00  0.00000000000E+00  0.74505805969E-08  0.10566000000E+00  0.10566000000E+00 0. -1.
     999900   -1    0    0    0    0 -0.00000000000E+00 -0.00000000000E+00 -0.74505805969E-08  0.93827000000E+00  0.93827000000E+00 0.  1.
     999902    2    1    2    0    0  0.43334448968E-02 -0.14332741568E-01  0.18244727171E-01  0.10203275363E+01  0.10200545108E+01 0.  0.
     999903    2    3    3    0    0 -0.42056849240E-01  0.11830042680E+00  0.21528441600E-01  0.12917412661E+00  0.21417554432E-01 0.  0.
         14    1    1    2    0    0 -0.43334448968E-02  0.14332741568E-01 -0.18244727171E-01  0.23602463750E-01  0.00000000000E+00 0.  1.
     999901    1    3    3    0    0  0.46390294137E-01 -0.13263316837E+00 -0.32837144293E-02  0.89115340964E+00  0.88000000000E+00 0. -1.
        -11    1    4    4    0    0 -0.12282285403E-01  0.64564744386E-01  0.14809300069E-01  0.67372377440E-01  0.51100000000E-03 0.  1.
         11    1    4    4    0    0 -0.29774563837E-01  0.53735682412E-01  0.67191415309E-02  0.61801749166E-01  0.51100000000E-03 0. -1.
</event>
<event>
 8    1  0.1163913E+005  0.1043930E+01  0.7957747E-01            NaN
         13   -1    0    0    0    0  0.00000000000E+00  0.00000000000E+00  0.74505805969E-08  0.10566000000E+00  0.10566000000E+00 0. -1.
     999900   -1    0    0    0    0 -0.00000000000E+00 -0.00000000000E+00 -0.74505805969E-08  0.93827000000E+00  0.93827000000E+00 0. -1.
     999902    2    1    2    0    0 -0.27257998738E-02  0.22316954903E-01 -0.78754399075E-02  0.10201077622E+01  0.10198295678E+01 0.  0.
     999903    2    3    3    0    0  0.86750507463E-01 -0.84951548518E-01 -0.38309339738E-01  0.12857045861E+00  0.17898077400E-01 0.  0.
         14    1    1    2    0    0  0.27257998738E-02 -0.22316954903E-01  0.78754399075E-02  0.23822237821E-01  0.00000000000E+00 0. -1.
     999901    1    3    3    0    0 -0.89476307336E-01  0.10726850342E+00  0.30433899831E-01  0.89153730357E+00  0.88000000000E+00 0. -1.
        -11    1    4    4    0    0  0.78774305002E-01 -0.77963221740E-01 -0.29285107774E-01  0.11463652878E+00  0.51100000000E-03 0.  1.
         11    1    4    4    0    0  0.79762024605E-02 -0.69883267785E-02 -0.90242319645E-02  0.13933929826E-01  0.51100000000E-03 0. -1.
</event>
<event>
 8    1  0.1163913E+005  0.1043930E+01  0.7957747E-01            NaN
         13   -1    0    0    0    0  0.00000000000E+00  0.00000000000E+00  0.74505805969E-08  0.10566000000E+00  0.10566000000E+00 0.  1.
     999900   -1    0    0    0    0 -0.00000000000E+00 -0.00000000000E+00 -0.74505805969E-08  0.93827000000E+00  0.93827000000E+00 0.  1.
     999902    2    1    2    0    0 -0.48234334248E-02 -0.47828756797E-02  0.23569119866E-01  0.10194015508E+01  0.10191064110E+01 0.  0.
     999903    2    3    3    0    0 -0.14716480728E-01  0.68334699424E-01  0.11024105614E+00  0.13207067861E+00  0.20084017019E-01 0.  0.
         14    1    1    2    0    0  0.48234334248E-02  0.47828756797E-02 -0.23569119866E-01  0.24528449218E-01  0.00000000000E+00 0. -1.
     999901    1    3    3    0    0  0.98930473030E-02 -0.73117575104E-01 -0.86671936272E-01  0.88733087217E+00  0.88000000000E+00 0. -1.
        -11    1    4    4    0    0 -0.16118300867E-01  0.38976130210E-01  0.76182513955E-01  0.87080278494E-01  0.51100000000E-03 0.  1.
         11    1    4    4    0    0  0.14018201388E-02  0.29358569214E-01  0.34058542182E-01  0.44990400116E-01  0.51100000000E-03 0. -1.
</event>
<event>
 8    1  0.1163913E+005  0.1043930E+01  0.7957747E-01            NaN
         13   -1    0    0    0    0  0.00000000000E+00  0.00000000000E+00  0.74505805969E-08  0.10566000000E+00  0.10566000000E+00 0.  1.
     999900   -1    0    0    0    0 -0.00000000000E+00 -0.00000000000E+00 -0.74505805969E-08  0.93827000000E+00  0.93827000000E+00 0.  1.
     999902    2    1    2    0    0  0.11488255720E-01 -0.37409116201E-02  0.20125644306E-01  0.10204562700E+01  0.10201862492E+01 0.  0.
     999903    2    3    3    0    0  0.88407253501E-01  0.93024415890E-01 -0.16506604080E-01  0.13106210408E+00  0.20866785206E-01 0.  0.
         14    1    1    2    0    0 -0.11488255720E-01  0.37409116201E-02 -0.20125644306E-01  0.23473729955E-01  0.00000000000E+00 0. -1.
     999901    1    3    3    0    0 -0.76918997781E-01 -0.96765327510E-01  0.36632248387E-01  0.88939416596E+00  0.88000000000E+00 0. -1.
        -11    1    4    4    0    0  0.10986482393E-01  0.33465882337E-02 -0.24678305242E-02  0.11758135766E-01  0.51100000000E-03 0. -1.
         11    1    4    4    0    0  0.77420771108E-01  0.89677827656E-01 -0.14038773556E-01  0.11930396832E+00  0.51100000000E-03 0.  1.
</event>
<event>
 8    1  0.1163913E+005  0.1043930E+01  0.7957747E-01            NaN
         13   -1    0    0    0    0  0.00000000000E+00  0.00000000000E+00  0.74505805969E-08  0.10566000000E+00  0.10566000000E+00 0. -1.
     999900   -1    0    0    0    0 -0.00000000000E+00 -0.00000000000E+00 -0.74505805969E-08  0.93827000000E+00  0.93827000000E+00 0. -1.
     999902    2    1    2    0    0  0.19354557091E-01 -0.14484245945E-01 -0.12534333786E-02  0.10197233200E+01  0.10194359647E+01 0.  0.
     999903    2    3    3    0    0  0.11017790287E+00  0.64248556527E-01  0.25048283080E-01  0.13116295931E+00  0.17585736083E-01 0.  0.
         14    1    1    2    0    0 -0.19354557091E-01  0.14484245945E-01  0.12534333786E-02  0.24206679987E-01  0.00000000000E+00 0. -1.
     999901    1    3    3    0    0 -0.90823345777E-01 -0.78732802471E-01 -0.26301716459E-01  0.88856036070E+00  0.88000000000E+00 0.  1.
        -11    1    4    4    0    0  0.85887967930E-01  0.47537394308E-01  0.11932064372E-01  0.98889747568E-01  0.51100000000E-03 0. -1.
         11    1    4    4    0    0  0.24289934938E-01  0.16711162219E-01  0.13116218708E-01  0.32273211743E-01  0.51100000000E-03 0.  1.
</event>
<event>
 8    1  0.1163913E+005  0.1043930E+01  0.7957747E-01            NaN
         13   -1    0    0    0    0  0.00000000000E+00  0.00000000000E+00  0.74505805969E-08  0.10566000000E+00  0.10566000000E+00 0.  1.
     999900   -1    0    0    0    0 -0.00000000000E+00 -0.00000000000E+00 -0.74505805969E-08  0.93827000000E+00  0.93827000000E+00 0.  1.
     999902    2    1    2    0    0 -0.19451472383E-01 -0.89690335241E-02  0.92555026081E-04  0.10225101049E+01  0.10222857246E+01 0.  0.
     999903    2    3    3    0    0  0.35309106141E-01 -0.93820898454E-01  0.84782319292E-01  0.13269500268E+00  0.19256897695E-01 0.  0.
         14    1    1    2    0    0  0.19451472383E-01  0.89690335241E-02 -0.92555026081E-04  0.21419895113E-01  0.00000000000E+00 0.  1.
     999901    1    3    3    0    0 -0.54760578524E-01  0.84851864930E-01 -0.84689764266E-01  0.88981510221E+00  0.88000000000E+00 0.  1.
        -11    1    4    4    0    0  0.33656190396E-01 -0.66759764318E-01  0.65777349869E-01  0.99581756163E-01  0.51100000000E-03 0.  1.
         11    1    4    4    0    0  0.16529157452E-02 -0.27061134136E-01  0.19004969422E-01  0.33113246518E-01  0.51100000000E-03 0. -1.
</event>
<event>
 8    1  0.1163913E+005  0.1043930E+01  0.7957747E-01            NaN
         13   -1    0    0    0    0  0.00000000000E+00  0.00000000000E+00  0.74505805969E-08  0.10566000000E+00  0.10566000000E+00 0. -1.
     999900   -1    0    0    0    0 -0.00000000000E+00 -0.00000000000E+00 -0.74505805969E-08  0.93827000000E+00  0.93827000000E+00 0.  1.
     999902    2    1    2    0    0  0.26910650212E-02  0.16101933115E-01 -0.18256130083E-01  0.10194391779E+01  0.10191449539E+01 0.  0.
     999903    2    3    3    0    0 -0.78199789260E-01  0.55092946656E-01 -0.88598729563E-01  0.13207695720E+00  0.21074817475E-01 0.  0.
         14    1    1    2    0    0 -0.26910650212E-02 -0.16101933115E-01  0.18256130083E-01  0.24490822089E-01  0.00000000000E+00 0. -1.
     999901    1    3    3    0    0  0.80890854281E-01 -0.38991013541E-01  0.70342599480E-01  0.88736222071E+00  0.88000000000E+00 0. -1.
        -11    1    4    4    0    0 -0.69249434433E-01  0.38870955276E-01 -0.71435214724E-01  0.10681613341E+00  0.51100000000E-03 0. -1.
         11    1    4    4    0    0 -0.89503548270E-02  0.16221991380E-01 -0.17163514838E-01  0.25260823789E-01  0.51100000000E-03 0.  1.
</event>
<event>
 8    1  0.1163913E+005  0.1043930E+01  0.7957747E-01            NaN
         13   -1    0    0    0    0  0.00000000000E+00  0.00000000000E+00  0.74505805969E-08  0.10566000000E+00  0.10566000000E+00 0. -1.
     999900   -1    0    0    0    0 -0.00000000000E+00 -0.00000000000E+00 -0.74505805969E-08  0.93827000000E+00  0.93827000000E+00 0. -1.
     999902    2    1    2    0    0 -0.35245894644E-02  0.18679542550E-01  0.13404230548E-01  0.10206701325E+01  0.10204050656E+01 0.  0.
     999903    2    3    3    0    0 -0.99811319561E-02  0.12451928655E+00 -0.39939419220E-01  0.13270094195E+00  0.20241222020E-01 0.  0.
         14    1    1    2    0    0  0.35245894644E-02 -0.18679542550E-01 -0.13404230548E-01  0.23259867527E-01  0.00000000000E+00 0.  1.
     999901    1    3    3    0    0  0.64565424917E-02 -0.10583974400E+00  0.53343649767E-01  0.88796919052E+00  0.88000000000E+00 0.  1.
        -11    1    4    4    0    0 -0.13780465413E-01  0.62463554168E-01 -0.25563791090E-01  0.68886612359E-01  0.51100000000E-03 0. -1.
         11    1    4    4    0    0  0.37993334566E-02  0.62055732380E-01 -0.14375628129E-01  0.63814329590E-01  0.51100000000E-03 0.  1.
</event>
<event>
 8    1  0.1163913E+005  0.1043930E+01  0.7957747E-01            NaN
         13   -1    0    0    0    0  0.00000000000E+00  0.00000000000E+00  0.74505805969E-08  0.10566000000E+00  0.10566000000E+00 0.  1.
     999900   -1    0    0    0    0 -0.00000000000E+00 -0.00000000000E+00 -0.74505805969E-08  0.93827000000E+00  0.93827000000E+00 0.  1.
     999902    2    1    2    0    0 -0.15260047176E-01 -0.15925321571E-01  0.85979079128E-02  0.10202570423E+01  0.10199823643E+01 0.  0.
     999903    2    3    3    0    0 -0.11428755682E+00  0.10575839147E-02 -0.63767588749E-01  0.13158858225E+00  0.13655968511E-01 0.  0.
         14    1    1    2    0    0  0.15260047176E-01  0.15925321571E-01 -0.85979079128E-02  0.23672957724E-01  0.00000000000E+00 0. -1.
     999901    1    3    3    0    0  0.99027509640E-01 -0.16982905485E-01  0.72365496662E-01  0.88866846003E+00  0.88000000000E+00 0. -1.
        -11    1    4    4    0    0 -0.88814552311E-01  0.39848986273E-02 -0.43934367416E-01  0.99168512546E-01  0.51100000000E-03 0.  1.
         11    1    4    4    0    0 -0.25473004505E-01 -0.29273147126E-02 -0.19833221333E-01  0.32420069700E-01  0.51100000000E-03 0. -1.
</event>
<event>
 8    1  0.1163913E+005  0.1043930E+01  0.7957747E-01            NaN
         13   -1    0    0    0    0  0.00000000000E+00  0.00000000000E+00  0.74505805969E-08  0.10566000000E+00  0.10566000000E+00 0. -1.
     999900   -1    0    0    0    0 -0.00000000000E+00 -0.00000000000E+00 -0.74505805969E-08  0.93827000000E+00  0.93827000000E+00 0.  1.
     999902    2    1    2    0    0  0.17503673570E-01 -0.82091131870E-02 -0.10116626958E-01  0.10221099572E+01  0.10218770231E+01 0.  0.
     999903    2    3    3    0    0 -0.11207655519E+00 -0.64358467422E-01 -0.80824424508E-02  0.13084797349E+00  0.18780301833E-01 0.  0.
         14    1    1    2    0    0 -0.17503673570E-01  0.82091131870E-02  0.10116626958E-01  0.21820042822E-01  0.00000000000E+00 0. -1.
     999901    1    3    3    0    0  0.12958022876E+00  0.56149354235E-01 -0.20341845072E-02  0.89126198369E+00  0.88000000000E+00 0. -1.
        -11    1    4    4    0    0 -0.67896725144E-01 -0.28366938623E-01 -0.58275940830E-02  0.73816464735E-01  0.51100000000E-03 0.  1.
         11    1    4    4    0    0 -0.44179830048E-01 -0.35991528799E-01 -0.22548483678E-02  0.57031508752E-01  0.51100000000E-03 0. -1.
</event>
<event>
 8    1  0.1163913E+005  0.1043930E+01  0.7957747E-01            NaN
         13   -1    0    0    0    0  0.00000000000E+00  0.00000000000E+00  0.74505805969E-08  0.10566000000E+00  0.10566000000E+00 0.  1.
     999900   -1    0    0    0    0 -0.00000000000E+00 -0.00000000000E+00 -0.74505805969E-08  0.93827000000E+00  0.93827000000E+00 0.  1.
     999902    2    1    2    0    0  0.21840547818E-01  0.28069285830E-02  0.78036431373E-02  0.10205679534E+01  0.10203005254E+01 0.  0.
     999903    2    3    3    0    0  0.78568397909E-01 -0.73017764841E-01  0.75857122424E-01  0.13287503959E+00  0.19921997680E-01 0.  0.
         14    1    1    2    0    0 -0.21840547818E-01 -0.28069285830E-02 -0.78036431373E-02  0.23362046642E-01  0.00000000000E+00 0. -1.
     999901    1    3    3    0    0 -0.56727850091E-01  0.75824693424E-01 -0.68053479287E-01  0.88769291377E+00  0.88000000000E+00 0. -1.
        -11    1    4    4    0    0  0.53292406309E-01 -0.37380476128E-01  0.40498380744E-01  0.76666554179E-01  0.51100000000E-03 0. -1.
         11    1    4    4    0    0  0.25275991600E-01 -0.35637288713E-01  0.35358741680E-01  0.56208485413E-01  0.51100000000E-03 0.  1.
</event>
<event>
 8    1  0.1163913E+005  0.1043930E+01  0.7957747E-01            NaN
         13   -1    0    0    0    0  0.00000000000E+00  0.00000000000E+00  0.74505805969E-08  0.10566000000E+00  0.10566000000E+00 0. -1.
     999900   -1    0    0    0    0 -0.00000000000E+00 -0.00000000000E+00 -0.74505805969E-08  0.93827000000E+00  0.93827000000E+00 0.  1.
     999902    2    1    2    0    0 -0.12472689819E-01 -0.15275153894E-01  0.15334616446E-01  0.10189490317E+01  0.10186427638E+01 0.  0.
     999903    2    3    3    0    0 -0.38835392110E-01 -0.10554001031E+00 -0.63263151903E-01  0.13045573086E+00  0.19224720231E-01 0.  0.
         14    1    1    2    0    0  0.12472689819E-01  0.15275153894E-01 -0.15334616446E-01  0.24980968342E-01  0.00000000000E+00 0.  1.
     999901    1    3    3    0    0  0.26362702291E-01  0.90264856419E-01  0.78597768349E-01  0.88849330080E+00  0.88000000000E+00 0. -1.
        -11    1    4    4    0    0 -0.63679909766E-02 -0.43733054603E-01 -0.22228891407E-01  0.49472377224E-01  0.51100000000E-03 0.  1.
         11    1    4    4    0    0 -0.32467401133E-01 -0.61806955709E-01 -0.41034260496E-01  0.80983353634E-01  0.51100000000E-03 0. -1.
</event>
<event>
 8    1  0.1163913E+005  0.1043930E+01  0.7957747E-01            NaN
         13   -1    0    0    0    0  0.00000000000E+00  0.00000000000E+00  0.74505805969E-08  0.10566000000E+00  0.10566000000E+00 0.  1.
     999900   -1    0    0    0    0 -0.00000000000E+00 -0.00000000000E+00 -0.74505805969E-08  0.93827000000E+00  0.93827000000E+00 0.  1.
     999902    2    1    2    0    0 -0.22705414607E-01 -0.53258241583E-02 -0.33698227309E-02  0.10203661302E+01  0.10200940073E+01 0.  0.
     999903    2    3    3    0    0  0.88687793852E-01 -0.78983306202E-01  0.46003797978E-01  0.12892256721E+00  0.20019776970E-01 0.  0.
         14    1    1    2    0    0  0.22705414607E-01  0.53258241583E-02  0.33698227309E-02  0.23563869815E-01  0.00000000000E+00 0.  1.
     999901    1    3    3    0    0 -0.11139320846E+00  0.73657482044E-01 -0.49373620709E-01  0.89144356298E+00  0.88000000000E+00 0.  1.
        -11    1    4    4    0    0  0.38952974442E-01 -0.33781000073E-01  0.30640373193E-01  0.59979861406E-01  0.51100000000E-03 0. -1.
         11    1    4    4    0    0  0.49734819410E-01 -0.45202306129E-01  0.15363424785E-01  0.68942705802E-01  0.51100000000E-03 0.  1.
</event>
<event>
 8    1  0.1163913E+005  0.1043930E+01  0.7957747E-01            NaN
         13   -1    0    0    0    0  0.00000000000E+00  0.00000000000E+00  0.74505805969E-08  0.10566000000E+00  0.10566000000E+00 0. -1.
     999900   -1    0    0    0    0 -0.00000000000E+00 -0.00000000000E+00 -0.74505805969E-08  0.93827000000E+00  0.93827000000E+00 0. -1.
     999902    2    1    2    0    0  0.13902319512E-01 -0.12812132724E-01 -0.13392080177E-01  0.10207616370E+01  0.10204986754E+01 0.  0.
     999903    2    3    3    0    0  0.11782533967E+00 -0.73687637833E-02 -0.58981313718E-01  0.13345785441E+00  0.19876976328E-01 0.  0.
         14    1    1    2    0    0 -0.13902319512E-01  0.12812132724E-01  0.13392080177E-01  0.23168363002E-01  0.00000000000E+00 0.  1.
     999901    1    3    3    0    0 -0.10392302015E+00 -0.54433689404E-02  0.45589233541E-01  0.88730378259E+00  0.88000000000E+00 0.  1.
        -11    1    4    4    0    0  0.23569152480E-01 -0.32481210195E-02 -0.36315208757E-02  0.24072895622E-01  0.51100000000E-03 0. -1.
         11    1    4    4    0    0  0.94256187187E-01 -0.41206427638E-02 -0.55349792842E-01  0.10938495879E+00  0.51100000000E-03 0.  1.
</event>
<event>
 8    1  0.1163913E+005  0.1043930E+01  0.7957747E-01            NaN
         13   -1    0    0    0    0  0.00000000000E+00  0.00000000000E+00  0.74505805969E-08  0.10566000000E+00  0.10566000000E+00 0. -1.
     999900   -1    0    0    0    0 -0.00000000000E+00 -0.00000000000E+00 -0.74505805969E-08  0.93827000000E+00  0.93827000000E+00 0. -1.
     999902    2    1    2    0    0  0.20121407987E-01 -0.50287336685E-02  0.11435308014E-01  0.10202461344E+01  0.10199712002E+01 0.  0.
     999903    2    3    3    0    0  0.10538583304E+00 -0.68797672089E-01 -0.36439191094E-01  0.13253645922E+00  0.19970099804E-01 0.  0.
         14    1    1    2    0    0 -0.20121407987E-01  0.50287336685E-02 -0.11435308014E-01  0.23683865628E-01  0.00000000000E+00 0. -1.
     999901    1    3    3    0    0 -0.85264425050E-01  0.63768938421E-01  0.47874499108E-01  0.88770967515E+00  0.88000000000E+00 0.  1.
        -11    1    4    4    0    0  0.41641072738E-01 -0.38193307890E-01 -0.19968788211E-01  0.59930971375E-01  0.51100000000E-03 0.  1.
         11    1    4    4    0    0  0.63744760299E-01 -0.30604364199E-01 -0.16470402883E-01  0.72605487849E-01  0.51100000000E-03 0. -1.
</event>
<event>
 8    1  0.1163913E+005  0.1043930E+01  0.7957747E-01            NaN
         13   -1    0    0    0    0  0.00000000000E+00  0.00000000000E+00  0.74505805969E-08  0.10566000000E+00  0.10566000000E+00 0. -1.
     999900   -1    0    0    0    0 -0.00000000000E+00 -0.00000000000E+00 -0.74505805969E-08  0.93827000000E+00  0.93827000000E+00 0. -1.
     999902    2    1    2    0    0  0.12271142229E-01  0.18931447893E-01  0.93278345630E-02  0.10195171110E+01  0.10192247792E+01 0.  0.
     999903    2    3    3    0    0 -0.12593323981E+00  0.14939083907E-01  0.68254837679E-02  0.12871822690E+00  0.20962766741E-01 0.  0.
         14    1    1    2    0    0 -0.12271142229E-01 -0.18931447893E-01 -0.93278345630E-02  0.24412888984E-01  0.00000000000E+00 0.  1.
     999901    1    3    3    0    0  0.13820438204E+00  0.39923639858E-02  0.25023507951E-02  0.89079888412E+00  0.88000000000E+00 0.  1.
        -11    1    4    4    0    0 -0.56626448873E-01  0.15941002748E-01  0.81380024340E-02  0.59389885378E-01  0.51100000000E-03 0. -1.
         11    1    4    4    0    0 -0.69306790939E-01 -0.10019188405E-02 -0.13125186660E-02  0.69328341520E-01  0.51100000000E-03 0.  1.
</event>
<event>
 8    1  0.1163913E+005  0.1043930E+01  0.7957747E-01            NaN
         13   -1    0    0    0    0  0.00000000000E+00  0.00000000000E+00  0.74505805969E-08  0.10566000000E+00  0.10566000000E+00 0. -1.
     999900   -1    0    0    0    0 -0.00000000000E+00 -0.00000000000E+00 -0.74505805969E-08  0.93827000000E+00  0.93827000000E+00 0. -1.
     999902    2    1    2    0    0 -0.17017947819E-01 -0.13048882271E-01 -0.96378243617E-02  0.10204189061E+01  0.10201480150E+01 0.  0.
     999903    2    3    3    0    0 -0.18668459029E-01 -0.18486884199E-01  0.12579780714E+00  0.13003971369E+00  0.19873666144E-01 0.  0.
         14    1    1    2    0    0  0.17017947819E-01  0.13048882271E-01  0.96378243617E-02  0.23511093869E-01  0.00000000000E+00 0. -1.
     999901    1    3    3    0    0  0.16505112098E-02  0.54380019278E-02 -0.13543563150E+00  0.89037919244E+00  0.88000000000E+00 0. -1.
        -11    1    4    4    0    0 -0.96368585773E-02 -0.17406172459E-01  0.11014519611E+00  0.11192885790E+00  0.51100000000E-03 0.  1.
         11    1    4    4    0    0 -0.90316004516E-02 -0.10807117401E-02  0.15652611027E-01  0.18110855793E-01  0.51100000000E-03 0. -1.
</event>
<event>
 8    1  0.1163913E+005  0.1043930E+01  0.7957747E-01            NaN
         13   -1    0    0    0    0  0.00000000000E+00  0.00000000000E+00  0.74505805969E-08  0.10566000000E+00  0.10566000000E+00 0.  1.
     999900   -1    0    0    0    0 -0.00000000000E+00 -0.00000000000E+00 -0.74505805969E-08  0.93827000000E+00  0.93827000000E+00 0.  1.
     999902    2    1    2    0    0 -0.42505554731E-03 -0.17710364003E-01  0.11374335674E-01  0.10228773712E+01  0.10226606981E+01 0.  0.
     999903    2    3    3    0    0  0.16024798583E-01 -0.36375812260E-01 -0.12438114767E+00  0.13212008224E+00  0.20125912381E-01 0.  0.
         14    1    1    2    0    0  0.42505554731E-03  0.17710364003E-01 -0.11374335674E-01  0.21052628752E-01  0.00000000000E+00 0.  1.
     999901    1    3    3    0    0 -0.16449854130E-01  0.18665448257E-01  0.13575548334E+00  0.89075728901E+00  0.88000000000E+00 0. -1.
        -11    1    4    4    0    0 -0.12265981581E-02 -0.17045701760E-01 -0.67202186663E-01  0.69343027803E-01  0.51100000000E-03 0. -1.
         11    1    4    4    0    0  0.17251396741E-01 -0.19330110500E-01 -0.57178961005E-01  0.62777054439E-01  0.51100000000E-03 0.  1.
</event>
<event>
 8    1  0.1163913E+005  0.1043930E+01  0.7957747E-01            NaN
         13   -1    0    0    0    0  0.00000000000E+00  0.00000000000E+00  0.74505805969E-08  0.10566000000E+00  0.10566000000E+00 0.  1.
     999900   -1    0    0    0    0 -0.00000000000E+00 -0.00000000000E+00 -0.74505805969E-08  0.93827000000E+00  0.93827000000E+00 0.  1.
     999902    2    1    2    0    0  0.19975567032E-01 -0.10891624636E-01 -0.17755399650E-02  0.10211088846E+01  0.10208538343E+01 0.  0.
     999903    2    3    3    0    0  0.26670610342E-01  0.99428421731E-01  0.78233096728E-01  0.13059402332E+00  0.18358894272E-01 0.  0.
         14    1    1    2    0    0 -0.19975567032E-01  0.10891624636E-01  0.17755399650E-02  0.22821115390E-01  0.00000000000E+00 0.  1.
     999901    1    3    3    0    0 -0.66950433099E-02 -0.11032004637E+00 -0.80008636693E-01  0.89051486129E+00  0.88000000000E+00 0.  1.
        -11    1    4    4    0    0  0.55685150613E-02  0.40389951226E-01  0.40212109155E-01  0.57268065828E-01  0.51100000000E-03 0. -1.
         11    1    4    4    0    0  0.21102095281E-01  0.59038470505E-01  0.38020987573E-01  0.73325957490E-01  0.51100000000E-03 0.  1.
</event>
<event>
 8    1  0.1163913E+005  0.1043930E+01  0.7957747E-01            NaN
         13   -1    0    0    0    0  0.00000000000E+00  0.00000000000E+00  0.74505805969E-08  0.10566000000E+00  0.10566000000E+00 0.  1.
     999900   -1    0    0    0    0 -0.00000000000E+00 -0.00000000000E+00 -0.74505805969E-08  0.93827000000E+00  0.93827000000E+00 0. -1.
     999902    2    1    2    0    0 -0.11821564788E-02  0.20819164046E-01  0.10185144127E-01  0.10207228406E+01  0.10204589875E+01 0.  0.
     999903    2    3    3    0    0 -0.10288070094E+00 -0.75803503882E-01  0.10073026740E-01  0.12961199091E+00  0.19162267465E-01 0.  0.
         14    1    1    2    0    0  0.11821564788E-02 -0.20819164046E-01 -0.10185144127E-01  0.23207159378E-01  0.00000000000E+00 0. -1.
     999901    1    3    3    0    0  0.10169854446E+00  0.96622667928E-01  0.11211738690E-03  0.89111084971E+00  0.88000000000E+00 0. -1.
        -11    1    4    4    0    0 -0.21221597469E-01 -0.10746731747E-01  0.82697970818E-02  0.25189265713E-01  0.51100000000E-03 0. -1.
         11    1    4    4    0    0 -0.81659103467E-01 -0.65056772135E-01  0.18032296582E-02  0.10442272520E+00  0.51100000000E-03 0.  1.
</event>
<event>
 8    1  0.1163913E+005  0.1043930E+01  0.7957747E-01            NaN
         13   -1    0    0    0    0  0.00000000000E+00  0.00000000000E+00  0.74505805969E-08  0.10566000000E+00  0.10566000000E+00 0. -1.
     999900   -1    0    0    0    0 -0.00000000000E+00 -0.00000000000E+00 -0.74505805969E-08  0.93827000000E+00  0.93827000000E+00 0.  1.
     999902    2    1    2    0    0 -0.10650052753E-01 -0.15279619840E-01 -0.15462206762E-01  0.10197231777E+01  0.10194358190E+01 0.  0.
     999903    2    3    3    0    0  0.57006992793E-01 -0.93728702889E-01  0.66571672907E-01  0.12985729354E+00  0.19906332645E-01 0.  0.
         14    1    1    2    0    0  0.10650052753E-01  0.15279619840E-01  0.15462206762E-01  0.24206822263E-01  0.00000000000E+00 0.  1.
     999901    1    3    3    0    0 -0.67657045547E-01  0.78449083049E-01 -0.82033879669E-01  0.88986588420E+00  0.88000000000E+00 0.  1.
        -11    1    4    4    0    0  0.16518997039E-01 -0.23875886396E-01  0.80313609195E-02  0.30128044968E-01  0.51100000000E-03 0. -1.
         11    1    4    4    0    0  0.40487995754E-01 -0.69852816493E-01  0.58540311987E-01  0.99729248573E-01  0.51100000000E-03 0.  1.
</event>
<event>
 8    1  0.1163913E+005  0.1043930E+01  0.7957747E-01            NaN
         13   -1    0    0    0    0  0.00000000000E+00  0.00000000000E+00  0.74505805969E-08  0.10566000000E+00  0.10566000000E+00 0. -1.
     999900   -1    0    0    0    0 -0.00000000000E+00 -0.00000000000E+00 -0.74505805969E-08  0.93827000000E+00  0.93827000000E+00 0.  1.
     999902    2    1    2    0    0  0.70614105959E-02  0.14480345625E-01 -0.19646192870E-01  0.10185229769E+01  0.10182060389E+01 0.  0.
     999903    2    3    3    0    0  0.46679635543E-01 -0.65341057595E-01  0.95623339938E-01  0.12654308622E+00  0.20515539186E-01 0.  0.
         14    1    1    2    0    0 -0.70614105959E-02 -0.14480345625E-01  0.19646192870E-01  0.25407023110E-01  0.00000000000E+00 0. -1.
     999901    1    3    3    0    0 -0.39618224947E-01  0.79821403220E-01 -0.11526953281E+00  0.89197989067E+00  0.88000000000E+00 0.  1.
        -11    1    4    4    0    0  0.40716066558E-01 -0.61409137794E-01  0.76925647311E-01  0.10652087408E+00  0.51100000000E-03 0. -1.
         11    1    4    4    0    0  0.59635689846E-02 -0.39319198008E-02  0.18697692628E-01  0.20022212139E-01  0.51100000000E-03 0.  1.
</event>
<event>
 8    1  0.1163913E+005  0.1043930E+01  0.7957747E-01            NaN
         13   -1    0    0    0    0  0.00000000000E+00  0.00000000000E+00  0.74505805969E-08  0.10566000000E+00  0.10566000000E+00 0. -1.
     999900   -1    0    0    0    0 -0.00000000000E+00 -0.00000000000E+00 -0.74505805969E-08  0.93827000000E+00  0.93827000000E+00 0. -1.
     999902    2    1    2    0    0 -0.19533320456E-02 -0.21054935516E-01 -0.97876943883E-02  0.10206292537E+01  0.10203632435E+01 0.  0.
     999903    2    3    3    0    0  0.53230423451E-01  0.90604759219E-01 -0.73220629434E-01  0.12959790099E+00  0.19790275213E-01 0.  0.
         14    1    1    2    0    0  0.19533320456E-02  0.21054935516E-01  0.97876943883E-02  0.23300746278E-01  0.00000000000E+00 0. -1.
     999901    1    3    3    0    0 -0.55183755496E-01 -0.11165969474E+00  0.63432935045E-01  0.89103135273E+00  0.88000000000E+00 0. -1.
        -11    1    4    4    0    0  0.33736409161E-01  0.71064617315E-01 -0.60290662846E-01  0.99113824892E-01  0.51100000000E-03 0. -1.
         11    1    4    4    0    0  0.19494014289E-01  0.19540141904E-01 -0.12929966588E-01  0.30484076100E-01  0.51100000000E-03 0.  1.
</event>
<event>
 8    1  0.1163913E+005  0.1043930E+01  0.7957747E-01            NaN
         13   -1    0    0    0    0  0.00000000000E+00  0.00000000000E+00  0.74505805969E-08  0.10566000000E+00  0.10566000000E+00 0.  1.
     999900   -1    0    0    0    0 -0.00000000000E+00 -0.00000000000E+00 -0.74505805969E-08  0.93827000000E+00  0.93827000000E+00 0. -1.
     999902    2    1    2    0    0 -0.94183262668E-02 -0.10949344837E-02  0.21424544688E-01  0.10205010678E+01  0.10202320885E+01 0.  0.
     999903    2    3    3    0    0  0.12241307824E+00 -0.35590423919E-01 -0.27482187376E-03  0.12974839697E+00  0.24143963841E-01 0.  0.
         14    1    1    2    0    0  0.94183262668E-02  0.10949344837E-02 -0.21424544688E-01  0.23428932248E-01  0.00000000000E+00 0. -1.
     999901    1    3    3    0    0 -0.13183140450E+00  0.34495489435E-01  0.21699366562E-01  0.89075267079E+00  0.88000000000E+00 0.  1.
        -11    1    4    4    0    0  0.83904648414E-01 -0.33753571362E-01  0.61989187494E-02  0.90653082241E-01  0.51100000000E-03 0.  1.
         11    1    4    4    0    0  0.38508429823E-01 -0.18368525565E-02 -0.64737406231E-02  0.39095314724E-01  0.51100000000E-03 0. -1.
</event>
<event>
 8    1  0.1366469E+005  0.1043930E+01  0.7957747E-01            NaN
         13   -1    0    0    0    0  0.00000000000E+00  0.00000000000E+00  0.74505805969E-08  0.10566000000E+00  0.10566000000E+00 0.  1.
     999900   -1    0    0    0    0 -0.00000000000E+00 -0.00000000000E+00 -0.74505805969E-08  0.93827000000E+00  0.93827000000E+00 0. -1.
     999902    2    1    2    0    0 -0.78233633566E-02 -0.77976946286E-02 -0.20561571053E-01  0.10205893218E+01  0.10203223885E+01 0.  0.
     999903    2    3    3    0    0 -0.74851785999E-02 -0.89198461430E-01 -0.97001752000E-01  0.13353278442E+00  0.20230452383E-01 0.  0.
         14    1    1    2    0    0  0.78233633566E-02  0.77976946286E-02  0.20561571053E-01  0.23340678223E-01  0.00000000000E+00 0.  1.
     999901    1    3    3    0    0 -0.33818475672E-03  0.81400766802E-01  0.76440180947E-01  0.88705653736E+00  0.88000000000E+00 0.  1.
        -11    1    4    4    0    0 -0.10352255784E-01 -0.51506811372E-01 -0.44594120336E-01  0.68913115639E-01  0.51100000000E-03 0.  1.
         11    1    4    4    0    0  0.28670771845E-02 -0.37691650058E-01 -0.52407631665E-01  0.64619668781E-01  0.51100000000E-03 0. -1.
</event>
<event>
 8    1  0.1163913E+005  0.1043930E+01  0.7957747E-01            NaN
         13   -1    0    0    0    0  0.00000000000E+00  0.00000000000E+00  0.74505805969E-08  0.10566000000E+00  0.10566000000E+00 0.  1.
     999900   -1    0    0    0    0 -0.00000000000E+00 -0.00000000000E+00 -0.74505805969E-08  0.93827000000E+00  0.93827000000E+00 0.  1.
     999902    2    1    2    0    0  0.10673975022E-01  0.54197492706E-02 -0.21151802564E-01  0.10196255523E+01  0.10193358430E+01 0.  0.
     999903    2    3    3    0    0  0.88153773359E-01 -0.93612127216E-01  0.48302590313E-02  0.13030811787E+00  0.20556168431E-01 0.  0.
         14    1    1    2    0    0 -0.10673975022E-01 -0.54197492706E-02  0.21151802564E-01  0.24304447672E-01  0.00000000000E+00 0.  1.
     999901    1    3    3    0    0 -0.77479798337E-01  0.99031876487E-01 -0.25982061595E-01  0.88931743446E+00  0.88000000000E+00 0.  1.
        -11    1    4    4    0    0  0.53458696827E-01 -0.49084830270E-01  0.11435076465E-01  0.73472273164E-01  0.51100000000E-03 0. -1.
         11    1    4    4    0    0  0.34695076532E-01 -0.44527296946E-01 -0.66048174339E-02  0.56835844704E-01  0.51100000000E-03 0.  1.
</event>
<event>
 8    1  0.1163913E+005  0.1043930E+01  0.7957747E-01            NaN
         13   -1    0    0    0    0  0.00000000000E+00  0.00000000000E+00  0.74505805969E-08  0.10566000000E+00  0.10566000000E+00 0. -1.
     999900   -1    0    0    0    0 -0.00000000000E+00 -0.00000000000E+00 -0.74505805969E-08  0.93827000000E+00  0.93827000000E+00 0. -1.
     999902    2    1    2    0    0 -0.49733542511E-02 -0.20060758438E-01  0.11933884742E-01  0.10200640015E+01  0.10197847720E+01 0.  0.
     999903    2    3    3    0    0 -0.67366224451E-01  0.79333242152E-01 -0.72134305625E-01  0.12830198262E+00  0.20641443466E-01 0.  0.
         14    1    1    2    0    0  0.49733542511E-02  0.20060758438E-01 -0.11933884742E-01  0.23865998548E-01  0.00000000000E+00 0.  1.
     999901    1    3    3    0    0  0.62392870200E-01 -0.99394000590E-01  0.84068190368E-01  0.89176201884E+00  0.88000000000E+00 0.  1.
        -11    1    4    4    0    0 -0.32104472338E-01  0.46535241195E-01 -0.49256026961E-01  0.74984285888E-01  0.51100000000E-03 0.  1.
         11    1    4    4    0    0 -0.35261752114E-01  0.32798000957E-01 -0.22878278665E-01  0.53317696730E-01  0.51100000000E-03 0. -1.
</event>
<event>
 8    1  0.1163913E+005  0.1043930E+01  0.7957747E-01            NaN
         13   -1    0    0    0    0  0.00000000000E+00  0.00000000000E+00  0.74505805969E-08  0.10566000000E+00  0.10566000000E+00 0.  1.
     999900   -1    0    0    0    0 -0.00000000000E+00 -0.00000000000E+00 -0.74505805969E-08  0.93827000000E+00  0.93827000000E+00 0.  1.
     999902    2    1    2    0    0 -0.15708000651E-02 -0.15410827024E-02 -0.23468301723E-01  0.10203587562E+01  0.10200864609E+01 0.  0.
     999903    2    3    3    0    0  0.11295335999E+00  0.14247468540E-01  0.57577718172E-01  0.12910485358E+00  0.19784278988E-01 0.  0.
         14    1    1    2    0    0  0.15708000651E-02  0.15410827024E-02  0.23468301723E-01  0.23571243805E-01  0.00000000000E+00 0.  1.
     999901    1    3    3    0    0 -0.11452416005E+00 -0.15788551243E-01 -0.81046019895E-01  0.89125390262E+00  0.88000000000E+00 0.  1.
        -11    1    4    4    0    0  0.17636007021E-01  0.39396535209E-02  0.17546415852E-02  0.18162860501E-01  0.51100000000E-03 0.  1.
         11    1    4    4    0    0  0.95317352969E-01  0.10307815020E-01  0.55823076587E-01  0.11094199308E+00  0.51100000000E-03 0. -1.
</event>
<event>
 8    1  0.1163913E+005  0.1043930E+01  0.7957747E-01            NaN
         13   -1    0    0    0    0  0.00000000000E+00  0.00000000000E+00  0.74505805969E-08  0.10566000000E+00  0.10566000000E+00 0.  1.
     999900   -1    0    0    0    0 -0.00000000000E+00 -0.00000000000E+00 -0.74505805969E-08  0.93827000000E+00  0.93827000000E+00 0. -1.
     999902    2    1    2    0    0 -0.13780578531E-01 -0.81594942148E-02  0.15792784685E-01  0.10214379183E+01  0.10211902503E+01 0.  0.
     999903    2    3    3    0    0  0.42363920558E-01  0.10454267138E+00 -0.59952773416E-01  0.12925443243E+00  0.19710437790E-01 0.  0.
         14    1    1    2    0    0  0.13780578531E-01  0.81594942148E-02 -0.15792784685E-01  0.22492081686E-01  0.00000000000E+00 0.  1.
     999901    1    3    3    0    0 -0.56144499089E-01 -0.11270216560E+00  0.75745558100E-01  0.89218348588E+00  0.88000000000E+00 0.  1.
        -11    1    4    4    0    0  0.32377248913E-01  0.81267815505E-01 -0.55311859071E-01  0.10350075825E+00  0.51100000000E-03 0. -1.
         11    1    4    4    0    0  0.99866716446E-02  0.23274855879E-01 -0.46409143446E-02  0.25753674179E-01  0.51100000000E-03 0.  1.
</event>
<event>
 8    1  0.1163913E+005  0.1043930E+01  0.7957747E-01            NaN
         13   -1    0    0    0    0  0.00000000000E+00  0.00000000000E+00  0.74505805969E-08  0.10566000000E+00  0.10566000000E+00 0.  1.
     999900   -1    0    0    0    0 -0.00000000000E+00 -0.00000000000E+00 -0.74505805969E-08  0.93827000000E+00  0.93827000000E+00 0.  1.
     999902    2    1    2    0    0 -0.11895838263E-01  0.11400851827E-01 -0.18925755329E-01  0.10188366821E+01  0.10185276187E+01 0.  0.
     999903    2    3    3    0    0 -0.53462758561E-01  0.10097272178E+00  0.56256758955E-01  0.13012787756E+00  0.26733583595E-01 0.  0.
         14    1    1    2    0    0  0.11895838263E-01 -0.11400851827E-01  0.18925755329E-01  0.25093317938E-01  0.00000000000E+00 0.  1.
     999901    1    3    3    0    0  0.41566920298E-01 -0.89571869957E-01 -0.75182514284E-01  0.88870880451E+00  0.88000000000E+00 0.  1.
        -11    1    4    4    0    0 -0.77949670431E-02  0.41881392533E-01  0.18578076037E-01  0.46478151662E-01  0.51100000000E-03 0. -1.
         11    1    4    4    0    0 -0.45667791518E-01  0.59091329252E-01  0.37678682918E-01  0.83649725895E-01  0.51100000000E-03 0.  1.
</event>
<event>
 8    1  0.1163913E+005  0.1043930E+01  0.7957747E-01            NaN
         13   -1    0    0    0    0  0.00000000000E+00  0.00000000000E+00  0.74505805969E-08  0.10566000000E+00  0.10566000000E+00 0. -1.
     999900   -1    0    0    0    0 -0.00000000000E+00 -0.00000000000E+00 -0.74505805969E-08  0.93827000000E+00  0.93827000000E+00 0.  1.
     999902    2    1    2    0    0 -0.10083063335E-01 -0.16060709044E-01 -0.14608267787E-01  0.10199922468E+01  0.10197113158E+01 0.  0.
     999903    2    3    3    0    0  0.25590262581E-03  0.95920330664E-01  0.81819125389E-01  0.12761066381E+00  0.19731622307E-01 0.  0.
         14    1    1    2    0    0  0.10083063335E-01  0.16060709044E-01  0.14608267787E-01  0.23937753214E-01  0.00000000000E+00 0.  1.
     999901    1    3    3    0    0 -0.10338965961E-01 -0.11198103971E+00 -0.96427393176E-01  0.89238158297E+00  0.88000000000E+00 0.  1.
        -11    1    4    4    0    0  0.74586970714E-02  0.61056684295E-01  0.59554632178E-01  0.85618725720E-01  0.51100000000E-03 0. -1.
         11    1    4    4    0    0 -0.72027944456E-02  0.34863646369E-01  0.22264493212E-01  0.41991938095E-01  0.51100000000E-03 0.  1.
</event>
<event>
 8    1  0.1163913E+005  0.1043930E+01  0.7957747E-01            NaN
         13   -1    0    0    0    0  0.00000000000E+00  0.00000000000E+00  0.74505805969E-08  0.10566000000E+00  0.10566000000E+00 0.  1.
     999900   -1    0    0    0    0 -0.00000000000E+00 -0.00000000000E+00 -0.74505805969E-08  0.93827000000E+00  0.93827000000E+00 0.  1.
     999902    2    1    2    0    0 -0.18298330771E-01  0.15543605512E-01  0.71224936480E-05  0.10199209885E+01  0.10196383625E+01 0.  0.
     999903    2    3    3    0    0 -0.62579813581E-01  0.88619693249E-01 -0.73758120337E-01  0.13271059895E+00  0.20053918783E-01 0.  0.
         14    1    1    2    0    0  0.18298330771E-01 -0.15543605512E-01 -0.71224936480E-05  0.24009011476E-01  0.00000000000E+00 0.  1.
     999901    1    3    3    0    0  0.44281482810E-01 -0.73076087737E-01  0.73765242831E-01  0.88721038957E+00  0.88000000000E+00 0. -1.
        -11    1    4    4    0    0 -0.25668851261E-01  0.52012474081E-01 -0.44035920361E-01  0.72825893666E-01  0.51100000000E-03 0.  1.
         11    1    4    4    0    0 -0.36910962320E-01  0.36607219168E-01 -0.29722199976E-01  0.59884705284E-01  0.51100000000E-03 0. -1.
</event>
<event>
 8    1  0.1163913E+005  0.1043930E+01  0.7957747E-01            NaN
         13   -1    0    0    0    0  0.00000000000E+00  0.00000000000E+00  0.74505805969E-08  0.10566000000E+00  0.10566000000E+00 0. -1.
     999900   -1    0    0    0    0 -0.00000000000E+00 -0.00000000000E+00 -0.74505805969E-08  0.93827000000E+00  0.93827000000E+00 0. -1.
     999902    2    1    2    0    0 -0.51945392084E-02  0.20123226684E-01  0.15327665419E-01  0.10181062741E+01  0.10177787189E+01 0.  0.
     999903    2    3    3    0    0  0.29906085834E-01  0.12241846144E+00  0.31115323156E-01  0.13134496519E+00  0.20066959724E-01 0.  0.
         14    1    1    2    0    0  0.51945392084E-02 -0.20123226684E-01 -0.15327665419E-01  0.25823725854E-01  0.00000000000E+00 0.  1.
     999901    1    3    3    0    0 -0.35100625043E-01 -0.10229523476E+00 -0.15787657737E-01  0.88676130896E+00  0.88000000000E+00 0.  1.
        -11    1    4    4    0    0  0.71947205990E-02  0.20748874649E-01 -0.19336372681E-02  0.22051754528E-01  0.51100000000E-03 0. -1.
         11    1    4    4    0    0  0.22711365235E-01  0.10166958679E+00  0.33048960424E-01  0.10929321066E+00  0.51100000000E-03 0.  1.
</event>
<event>
 8    1  0.1163913E+005  0.1043930E+01  0.7957747E-01            NaN
         13   -1    0    0    0    0  0.00000000000E+00  0.00000000000E+00  0.74505805969E-08  0.10566000000E+00  0.10566000000E+00 0.  1.
     999900   -1    0    0    0    0 -0.00000000000E+00 -0.00000000000E+00 -0.74505805969E-08  0.93827000000E+00  0.93827000000E+00 0. -1.
     999902    2    1    2    0    0 -0.51538392853E-02 -0.25126011366E-01 -0.46516105191E-02  0.10178624726E+01  0.10175286222E+01 0.  0.
     999903    2    3    3    0    0  0.79876718307E-01 -0.84395528072E-01 -0.55522538516E-01  0.13032040446E+00  0.19943927603E-01 0.  0.
         14    1    1    2    0    0  0.51538392853E-02  0.25126011366E-01  0.46516105191E-02  0.26067527442E-01  0.00000000000E+00 0.  1.
     999901    1    3    3    0    0 -0.85030557593E-01  0.59269516706E-01  0.50870927997E-01  0.88754206810E+00  0.88000000000E+00 0.  1.
        -11    1    4    4    0    0  0.18035455740E-02 -0.66065136690E-02 -0.72919672281E-02  0.10016621514E-01  0.51100000000E-03 0. -1.
         11    1    4    4    0    0  0.78073172733E-01 -0.77789014403E-01 -0.48230571288E-01  0.12030378294E+00  0.51100000000E-03 0.  1.
</event>
<event>
 8    1  0.1163913E+005  0.1043930E+01  0.7957747E-01            NaN
         13   -1    0    0    0    0  0.00000000000E+00  0.00000000000E+00  0.74505805969E-08  0.10566000000E+00  0.10566000000E+00 0.  1.
     999900   -1    0    0    0    0 -0.00000000000E+00 -0.00000000000E+00 -0.74505805969E-08  0.93827000000E+00  0.93827000000E+00 0. -1.
     999902    2    1    2    0    0 -0.46025565555E-02  0.28281236488E-02  0.22829357270E-01  0.10204702182E+01  0.10202005219E+01 0.  0.
     999903    2    3    3    0    0  0.31403925277E-01  0.23739466030E-01 -0.12000426550E+00  0.12798201390E+00  0.20702738278E-01 0.  0.
         14    1    1    2    0    0  0.46025565555E-02 -0.28281236488E-02 -0.22829357270E-01  0.23459781831E-01  0.00000000000E+00 0. -1.
     999901    1    3    3    0    0 -0.36006481832E-01 -0.20911342381E-01  0.14283362277E+00  0.89248820427E+00  0.88000000000E+00 0.  1.
        -11    1    4    4    0    0  0.48473099165E-02  0.14902563357E-01 -0.55348973748E-01  0.57526974751E-01  0.51100000000E-03 0.  1.
         11    1    4    4    0    0  0.26556615360E-01  0.88369026730E-02 -0.64655291753E-01  0.70455039145E-01  0.51100000000E-03 0. -1.
</event>
<event>
 8    1  0.1163913E+005  0.1043930E+01  0.7957747E-01            NaN
         13   -1    0    0    0    0  0.00000000000E+00  0.00000000000E+00  0.74505805969E-08  0.10566000000E+00  0.10566000000E+00 0. -1.
     999900   -1    0    0    0    0 -0.00000000000E+00 -0.00000000000E+00 -0.74505805969E-08  0.93827000000E+00  0.93827000000E+00 0. -1.
     999902    2    1    2    0    0 -0.21717821828E-02  0.20330672004E-01  0.14255319909E-01  0.10190047717E+01  0.10186998860E+01 0.  0.
     999903    2    3    3    0    0 -0.11927810769E+00 -0.42255549751E-01 -0.11848566440E-01  0.12866082716E+00  0.20010533751E-01 0.  0.
         14    1    1    2    0    0  0.21717821828E-02 -0.20330672004E-01 -0.14255319909E-01  0.24925228337E-01  0.00000000000E+00 0.  1.
     999901    1    3    3    0    0  0.11710632550E+00  0.62586221755E-01  0.26103886349E-01  0.89034394450E+00  0.88000000000E+00 0.  1.
        -11    1    4    4    0    0 -0.38532827677E-01 -0.22273674516E-01  0.82809359557E-03  0.44517886801E-01  0.51100000000E-03 0.  1.
         11    1    4    4    0    0 -0.80745280010E-01 -0.19981875235E-01 -0.12676660036E-01  0.84142940361E-01  0.51100000000E-03 0. -1.
</event>
<event>
 8    1  0.1163913E+005  0.1043930E+01  0.7957747E-01            NaN
         13   -1    0    0    0    0  0.00000000000E+00  0.00000000000E+00  0.74505805969E-08  0.10566000000E+00  0.10566000000E+00 0.  1.
     999900   -1    0    0    0    0 -0.00000000000E+00 -0.00000000000E+00 -0.74505805969E-08  0.93827000000E+00  0.93827000000E+00 0.  1.
     999902    2    1    2    0    0 -0.54509474666E-02 -0.74033776981E-02  0.20898268060E-01  0.10210988713E+01  0.10208435946E+01 0.  0.
     999903    2    3    3    0    0 -0.29421427273E-01  0.61898433127E-01 -0.10740418040E+00  0.12877670798E+00  0.18728217831E-01 0.  0.
         14    1    1    2    0    0  0.54509474666E-02  0.74033776981E-02 -0.20898268060E-01  0.22831128696E-01  0.00000000000E+00 0. -1.
     999901    1    3    3    0    0  0.23970479806E-01 -0.69301810825E-01  0.12830244846E+00  0.89232216333E+00  0.88000000000E+00 0. -1.
        -11    1    4    4    0    0 -0.84910596639E-02  0.75843676678E-02 -0.93285676932E-02  0.14727661842E-01  0.51100000000E-03 0.  1.
         11    1    4    4    0    0 -0.20930367609E-01  0.54314065459E-01 -0.98075612707E-01  0.11404904613E+00  0.51100000000E-03 0. -1.
</event>
<event>
 8    1  0.1163913E+005  0.1043930E+01  0.7957747E-01            NaN
         13   -1    0    0    0    0  0.00000000000E+00  0.00000000000E+00  0.74505805969E-08  0.10566000000E+00  0.10566000000E+00 0.  1.
     999900   -1    0    0    0    0 -0.00000000000E+00 -0.00000000000E+00 -0.74505805969E-08  0.93827000000E+00  0.93827000000E+00 0. -1.
     999902    2    1    2    0    0 -0.19159220493E-01  0.64881768310E-02  0.13989935550E-01  0.10193354790E+01  0.10190387275E+01 0.  0.
     999903    2    3    3    0    0 -0.26694111400E-01 -0.76280918763E-01 -0.97783386027E-01  0.12838050076E+00  0.19713148939E-01 0.  0.
         14    1    1    2    0    0  0.19159220493E-01 -0.64881768310E-02 -0.13989935550E-01  0.24594521040E-01  0.00000000000E+00 0. -1.
     999901    1    3    3    0    0  0.75348909072E-02  0.82769095594E-01  0.11177332158E+00  0.89095497820E+00  0.88000000000E+00 0.  1.
        -11    1    4    4    0    0 -0.10658834434E-01 -0.56534275926E-01 -0.63486568187E-01  0.85676954703E-01  0.51100000000E-03 0.  1.
         11    1    4    4    0    0 -0.16035276966E-01 -0.19746642837E-01 -0.34296817840E-01  0.42703546055E-01  0.51100000000E-03 0. -1.
</event>
<event>
 8    1  0.1163913E+005  0.1043930E+01  0.7957747E-01            NaN
         13   -1    0    0    0    0  0.00000000000E+00  0.00000000000E+00  0.74505805969E-08  0.10566000000E+00  0.10566000000E+00 0. -1.
     999900   -1    0    0    0    0 -0.00000000000E+00 -0.00000000000E+00 -0.74505805969E-08  0.93827000000E+00  0.93827000000E+00 0. -1.
     999902    2    1    2    0    0  0.93526836006E-02  0.84936676672E-02 -0.20095519056E-01  0.10201930043E+01  0.10199168206E+01 0.  0.
     999903    2    3    3    0    0 -0.14726935564E-01  0.12907131359E+00 -0.18651392382E-02  0.13145730479E+00  0.20031415670E-01 0.  0.
         14    1    1    2    0    0 -0.93526836006E-02 -0.84936676672E-02  0.20095519056E-01  0.23736995747E-01  0.00000000000E+00 0. -1.
     999901    1    3    3    0    0  0.24079619164E-01 -0.12057764593E+00 -0.18230379818E-01  0.88873569947E+00  0.88000000000E+00 0. -1.
        -11    1    4    4    0    0  0.34814004932E-03  0.80669296106E-01 -0.32999664046E-02  0.80739131993E-01  0.51100000000E-03 0. -1.
         11    1    4    4    0    0 -0.15075075613E-01  0.48402017488E-01  0.14348271663E-02  0.50718172794E-01  0.51100000000E-03 0.  1.
</event>
<event>
 8    1  0.1163913E+005  0.1043930E+01  0.7957747E-01            NaN
         13   -1    0    0    0    0  0.00000000000E+00  0.00000000000E+00  0.74505805969E-08  0.10566000000E+00  0.10566000000E+00 0. -1.
     999900   -1    0    0    0    0 -0.00000000000E+00 -0.00000000000E+00 -0.74505805969E-08  0.93827000000E+00  0.93827000000E+00 0. -1.
     999902    2    1    2    0    0  0.12261549884E-01 -0.54096284098E-02  0.19035580052E-01  0.10206499014E+01  0.10203843678E+01 0.  0.
     999903    2    3    3    0    0 -0.49693921857E-01 -0.99066241159E-01 -0.64354686472E-01  0.12960333796E+00  0.19284541258E-01 0.  0.
         14    1    1    2    0    0 -0.12261549884E-01  0.54096284098E-02 -0.19035580052E-01  0.23280098647E-01  0.00000000000E+00 0.  1.
     999901    1    3    3    0    0  0.61955471741E-01  0.93656612750E-01  0.83390266524E-01  0.89104656340E+00  0.88000000000E+00 0.  1.
        -11    1    4    4    0    0 -0.36505729118E-01 -0.53393673134E-01 -0.41527266974E-01  0.76865646504E-01  0.51100000000E-03 0. -1.
         11    1    4    4    0    0 -0.13188192739E-01 -0.45672568025E-01 -0.22827419498E-01  0.52737691452E-01  0.51100000000E-03 0.  1.
</event>
<event>
 8    1  0.1163913E+005  0.1043930E+01  0.7957747E-01            NaN
         13   -1    0    0    0    0  0.00000000000E+00  0.00000000000E+00  0.74505805969E-08  0.10566000000E+00  0.10566000000E+00 0. -1.
     999900   -1    0    0    0    0 -0.00000000000E+00 -0.00000000000E+00 -0.74505805969E-08  0.93827000000E+00  0.93827000000E+00 0.  1.
     999902    2    1    2    0    0  0.20422013808E-02 -0.13049866536E-01 -0.21135858421E-01  0.10190062339E+01  0.10187013845E+01 0.  0.
     999903    2    3    3    0    0  0.39192580075E-01 -0.11556017577E+00 -0.47043505891E-01  0.13189873182E+00  0.17145595724E-01 0.  0.
         14    1    1    2    0    0 -0.20422013808E-02  0.13049866536E-01  0.21135858421E-01  0.24923766053E-01  0.00000000000E+00 0. -1.
     999901    1    3    3    0    0 -0.37150378694E-01  0.10251030923E+00  0.25907647470E-01  0.88710750213E+00  0.88000000000E+00 0.  1.
        -11    1    4    4    0    0  0.22495315376E-01 -0.74077596932E-01 -0.38126924152E-01  0.86298627146E-01  0.51100000000E-03 0.  1.
         11    1    4    4    0    0  0.16697264698E-01 -0.41482578835E-01 -0.89165817383E-02  0.45600104672E-01  0.51100000000E-03 0. -1.
</event>
<event>
 8    1  0.1163913E+005  0.1043930E+01  0.7957747E-01            NaN
         13   -1    0    0    0    0  0.00000000000E+00  0.00000000000E+00  0.74505805969E-08  0.10566000000E+00  0.10566000000E+00 0. -1.
     999900   -1    0    0    0    0 -0.00000000000E+00 -0.00000000000E+00 -0.74505805969E-08  0.93827000000E+00  0.93827000000E+00 0. -1.
     999902    2    1    2    0    0  0.40299560683E-02 -0.25373212733E-01 -0.81498701709E-02  0.10169770622E+01  0.10166198327E+01 0.  0.
     999903    2    3    3    0    0  0.11198632368E+00  0.34655757745E-01 -0.45774965689E-01  0.12755382079E+00  0.20800756668E-01 0.  0.
         14    1    1    2    0    0 -0.40299560683E-02  0.25373212733E-01  0.81498701709E-02  0.26952937764E-01  0.00000000000E+00 0.  1.
     999901    1    3    3    0    0 -0.10795636762E+00 -0.60028970477E-01  0.37625095518E-01  0.88942324144E+00  0.88000000000E+00 0.  1.
        -11    1    4    4    0    0  0.72819876224E-01  0.32732430699E-01 -0.30851189353E-01  0.85593243882E-01  0.51100000000E-03 0. -1.
         11    1    4    4    0    0  0.39166447461E-01  0.19233270452E-02 -0.14923776336E-01  0.41960576912E-01  0.51100000000E-03 0.  1.
</event>
<event>
 8    1  0.1163913E+005  0.1043930E+01  0.7957747E-01            NaN
         13   -1    0    0    0    0  0.00000000000E+00  0.00000000000E+00  0.74505805969E-08  0.10566000000E+00  0.10566000000E+00 0.  1.
     999900   -1    0    0    0    0 -0.00000000000E+00 -0.00000000000E+00 -0.74505805969E-08  0.93827000000E+00  0.93827000000E+00 0. -1.
     999902    2    1    2    0    0  0.12510002402E-01  0.90609863374E-02 -0.18811599498E-01  0.10195891309E+01  0.10192985421E+01 0.  0.
     999903    2    3    3    0    0 -0.17479167557E-01  0.54164666207E-01  0.11309503952E+00  0.12811111452E+00  0.19561117932E-01 0.  0.
         14    1    1    2    0    0 -0.12510002402E-01 -0.90609863374E-02  0.18811599498E-01  0.24340869113E-01  0.00000000000E+00 0.  1.
     999901    1    3    3    0    0  0.29989169959E-01 -0.45103679869E-01 -0.13190663902E+00  0.89147801637E+00  0.88000000000E+00 0. -1.
        -11    1    4    4    0    0  0.36994603355E-02  0.95017006154E-02  0.26524188809E-01  0.28421154697E-01  0.51100000000E-03 0. -1.
         11    1    4    4    0    0 -0.21178627893E-01  0.44662965591E-01  0.86570850713E-01  0.99689959820E-01  0.51100000000E-03 0.  1.
</event>
<event>
 8    1  0.1163913E+005  0.1043930E+01  0.7957747E-01            NaN
         13   -1    0    0    0    0  0.00000000000E+00  0.00000000000E+00  0.74505805969E-08  0.10566000000E+00  0.10566000000E+00 0. -1.
     999900   -1    0    0    0    0 -0.00000000000E+00 -0.00000000000E+00 -0.74505805969E-08  0.93827000000E+00  0.93827000000E+00 0.  1.
     999902    2    1    2    0    0  0.22275758575E-01  0.84406744496E-02  0.60736353861E-02  0.10193466021E+01  0.10190501223E+01 0.  0.
     999903    2    3    3    0    0  0.77388514880E-01  0.72198386351E-01 -0.75576508605E-01  0.13155765886E+00  0.19849930095E-01 0.  0.
         14    1    1    2    0    0 -0.22275758575E-01 -0.84406744496E-02 -0.60736353861E-02  0.24583397895E-01  0.00000000000E+00 0.  1.
     999901    1    3    3    0    0 -0.55112756305E-01 -0.63757711901E-01  0.81650143991E-01  0.88778894325E+00  0.88000000000E+00 0. -1.
        -11    1    4    4    0    0  0.46514143779E-01  0.48991304642E-01 -0.58332870061E-01  0.89256363092E-01  0.51100000000E-03 0. -1.
         11    1    4    4    0    0  0.30874371102E-01  0.23207081709E-01 -0.17243638544E-01  0.42301295768E-01  0.51100000000E-03 0.  1.
</event>
<event>
 8    1  0.1163913E+005  0.1043930E+01  0.7957747E-01            NaN
         13   -1    0    0    0    0  0.00000000000E+00  0.00000000000E+00  0.74505805969E-08  0.10566000000E+00  0.10566000000E+00 0. -1.
     999900   -1    0    0    0    0 -0.00000000000E+00 -0.00000000000E+00 -0.74505805969E-08  0.93827000000E+00  0.93827000000E+00 0.  1.
     999902    2    1    2    0    0 -0.10432720238E-02 -0.21942789902E-01  0.75440137349E-02  0.10207031494E+01  0.10204388432E+01 0.  0.
     999903    2    3    3    0    0 -0.51707753314E-01  0.13521254374E-01 -0.11679993974E+00  0.12981257988E+00  0.18776685036E-01 0.  0.
         14    1    1    2    0    0  0.10432720238E-02  0.21942789902E-01 -0.75440137349E-02  0.23226850592E-01  0.00000000000E+00 0. -1.
     999901    1    3    3    0    0  0.50664481291E-01 -0.35464044275E-01  0.12434395347E+00  0.89089056952E+00  0.88000000000E+00 0. -1.
        -11    1    4    4    0    0 -0.11073622002E-01 -0.45384100331E-02 -0.29494581892E-01  0.31834160141E-01  0.51100000000E-03 0. -1.
         11    1    4    4    0    0 -0.40634131312E-01  0.18059664407E-01 -0.87305357846E-01  0.97978419744E-01  0.51100000000E-03 0.  1.
</event>
<event>
 8    1  0.1163913E+005  0.1043930E+01  0.7957747E-01            NaN
         13   -1    0    0    0    0  0.00000000000E+00  0.00000000000E+00  0.74505805969E-08  0.10566000000E+00  0.10566000000E+00 0. -1.
     999900   -1    0    0    0    0 -0.00000000000E+00 -0.00000000000E+00 -0.74505805969E-08  0.93827000000E+00  0.93827000000E+00 0.  1.
     999902    2    1    2    0    0  0.46190853497E-02 -0.93794549958E-02 -0.21481141060E-01  0.10200396349E+01  0.10197598282E+01 0.  0.
     999903    2    3    3    0    0  0.30470214223E-02  0.10369236957E+00  0.72221965556E-01  0.12786925814E+00  0.19316910266E-01 0.  0.
         14    1    1    2    0    0 -0.46190853497E-02  0.93794549958E-02  0.21481141060E-01  0.23890365144E-01  0.00000000000E+00 0. -1.
     999901    1    3    3    0    0  0.15720639275E-02 -0.11307182457E+00 -0.93703106616E-01  0.89217037671E+00  0.88000000000E+00 0.  1.
        -11    1    4    4    0    0  0.35584322945E-02  0.68361602619E-01  0.36324303294E-01  0.77496369488E-01  0.51100000000E-03 0. -1.
         11    1    4    4    0    0 -0.51141087223E-03  0.35330766953E-01  0.35897662262E-01  0.50372888654E-01  0.51100000000E-03 0.  1.
</event>
<event>
 8    1  0.1163913E+005  0.1043930E+01  0.7957747E-01            NaN
         13   -1    0    0    0    0  0.00000000000E+00  0.00000000000E+00  0.74505805969E-08  0.10566000000E+00  0.10566000000E+00 0.  1.
     999900   -1    0    0    0    0 -0.00000000000E+00 -0.00000000000E+00 -0.74505805969E-08  0.93827000000E+00  0.93827000000E+00 0.  1.
     999902    2    1    2    0    0  0.12379201829E-01 -0.87920074005E-02 -0.18594620229E-01  0.10199236689E+01  0.10196411067E+01 0.  0.
     999903    2    3    3    0    0 -0.28741398236E-01 -0.69301093483E-01  0.10248032708E+00  0.12862607767E+00  0.20340621611E-01 0.  0.
         14    1    1    2    0    0 -0.12379201829E-01  0.87920074005E-02  0.18594620229E-01  0.24006331113E-01  0.00000000000E+00 0.  1.
     999901    1    3    3    0    0  0.41120600065E-01  0.60509086082E-01 -0.12107494731E+00  0.89129759122E+00  0.88000000000E+00 0.  1.
        -11    1    4    4    0    0 -0.51156630034E-02 -0.33699201560E-02  0.17236791295E-01  0.18300121993E-01  0.51100000000E-03 0.  1.
         11    1    4    4    0    0 -0.23625735233E-01 -0.65931173327E-01  0.85243535783E-01  0.11032595567E+00  0.51100000000E-03 0. -1.
</event>
<event>
 8    1  0.1163913E+005  0.1043930E+01  0.7957747E-01            NaN
         13   -1    0    0    0    0  0.00000000000E+00  0.00000000000E+00  0.74505805969E-08  0.10566000000E+00  0.10566000000E+00 0.  1.
     999900   -1    0    0    0    0 -0.00000000000E+00 -0.00000000000E+00 -0.74505805969E-08  0.93827000000E+00  0.93827000000E+00 0.  1.
     999902    2    1    2    0    0  0.49941845933E-02  0.14344318050E-01 -0.18814426091E-01  0.10197497608E+01  0.10194630403E+01 0.  0.
     999903    2    3    3    0    0 -0.60663113640E-01  0.74901448656E-01 -0.88305900294E-01  0.13250283242E+00  0.21652441100E-01 0.  0.
         14    1    1    2    0    0 -0.49941845933E-02 -0.14344318050E-01  0.18814426091E-01  0.24180239230E-01  0.00000000000E+00 0.  1.
     999901    1    3    3    0    0  0.65657298233E-01 -0.60557130606E-01  0.69491474203E-01  0.88724692835E+00  0.88000000000E+00 0.  1.
        -11    1    4    4    0    0 -0.53160815366E-01  0.63795202308E-01 -0.84691218931E-01  0.11861181987E+00  0.51100000000E-03 0. -1.
         11    1    4    4    0    0 -0.75022982741E-02  0.11106246348E-01 -0.36146813633E-02  0.13891012551E-01  0.51100000000E-03 0.  1.
</event>
<event>
 8    1  0.1163913E+005  0.1043930E+01  0.7957747E-01            NaN
         13   -1    0    0    0    0  0.00000000000E+00  0.00000000000E+00  0.74505805969E-08  0.10566000000E+00  0.10566000000E+00 0. -1.
     999900   -1    0    0    0    0 -0.00000000000E+00 -0.00000000000E+00 -0.74505805969E-08  0.93827000000E+00  0.93827000000E+00 0.  1.
     999902    2    1    2    0    0  0.20170991228E-01  0.16478880984E-02 -0.71713644188E-02  0.10224587893E+01  0.10222333212E+01 0.  0.
     999903    2    3    3    0    0  0.26938410576E-01 -0.12209579691E+00 -0.41056620015E-01  0.13312954311E+00  0.20118837281E-01 0.  0.
         14    1    1    2    0    0 -0.20170991228E-01 -0.16478880984E-02  0.71713644188E-02  0.21471210724E-01  0.00000000000E+00 0. -1.
     999901    1    3    3    0    0 -0.67674193475E-02  0.12374368501E+00  0.33885255597E-01  0.88932924617E+00  0.88000000000E+00 0.  1.
        -11    1    4    4    0    0  0.52390308594E-02 -0.57591108754E-01 -0.11666688902E-01  0.58996237192E-01  0.51100000000E-03 0. -1.
         11    1    4    4    0    0  0.21699379716E-01 -0.64504688156E-01 -0.29389931113E-01  0.74133305916E-01  0.51100000000E-03 0.  1.
</event>
<event>
 8    1  0.1163913E+005  0.1043930E+01  0.7957747E-01            NaN
         13   -1    0    0    0    0  0.00000000000E+00  0.00000000000E+00  0.74505805969E-08  0.10566000000E+00  0.10566000000E+00 0. -1.
     999900   -1    0    0    0    0 -0.00000000000E+00 -0.00000000000E+00 -0.74505805969E-08  0.93827000000E+00  0.93827000000E+00 0. -1.
     999902    2    1    2    0    0  0.15303018369E-01  0.17144835598E-01 -0.36142622583E-03  0.10209461277E+01  0.10206873847E+01 0.  0.
     999903    2    3    3    0    0 -0.11142407556E-01  0.57114661032E-01 -0.11653136933E+00  0.13201845727E+00  0.21519183827E-01 0.  0.
         14    1    1    2    0    0 -0.15303018369E-01 -0.17144835598E-01  0.36142622583E-03  0.22983872341E-01  0.00000000000E+00 0.  1.
     999901    1    3    3    0    0  0.26445425925E-01 -0.39969825433E-01  0.11616994310E+00  0.88892767039E+00  0.88000000000E+00 0.  1.
        -11    1    4    4    0    0  0.38010284889E-02  0.34564530598E-01 -0.60115973562E-01  0.69450313112E-01  0.51100000000E-03 0. -1.
         11    1    4    4    0    0 -0.14943436045E-01  0.22550130433E-01 -0.56415395766E-01  0.62568144161E-01  0.51100000000E-03 0.  1.
</event>
<event>
 8    1  0.1163913E+005  0.1043930E+01  0.7957747E-01            NaN
         13   -1    0    0    0    0  0.00000000000E+00  0.00000000000E+00  0.74505805969E-08  0.10566000000E+00  0.10566000000E+00 0.  1.
     999900   -1    0    0    0    0 -0.00000000000E+00 -0.00000000000E+00 -0.74505805969E-08  0.93827000000E+00  0.93827000000E+00 0.  1.
     999902    2    1    2    0    0 -0.21764356973E-02 -0.19950903256E-01  0.12704378134E-01  0.10201775972E+01  0.10199010507E+01 0.  0.
     999903    2    3    3    0    0 -0.97220535200E-01 -0.51290853972E-01 -0.68501672349E-01  0.13079016985E+00  0.18193549672E-01 0.  0.
         14    1    1    2    0    0  0.21764356973E-02  0.19950903256E-01 -0.12704378134E-01  0.23752402759E-01  0.00000000000E+00 0. -1.
     999901    1    3    3    0    0  0.95044099503E-01  0.31339950716E-01  0.81206050483E-01  0.88938742739E+00  0.88000000000E+00 0. -1.
        -11    1    4    4    0    0 -0.51382250696E-01 -0.29933179893E-01 -0.26736922855E-01  0.65201649594E-01  0.51100000000E-03 0.  1.
         11    1    4    4    0    0 -0.45838284504E-01 -0.21357674079E-01 -0.41764749494E-01  0.65588520258E-01  0.51100000000E-03 0. -1.
</event>
<event>
 8    1  0.1163913E+005  0.1043930E+01  0.7957747E-01            NaN
         13   -1    0    0    0    0  0.00000000000E+00  0.00000000000E+00  0.74505805969E-08  0.10566000000E+00  0.10566000000E+00 0. -1.
     999900   -1    0    0    0    0 -0.00000000000E+00 -0.00000000000E+00 -0.74505805969E-08  0.93827000000E+00  0.93827000000E+00 0.  1.
     999902    2    1    2    0    0 -0.21673866349E-01 -0.98147810464E-02  0.15139134255E-02  0.10200893133E+01  0.10198106828E+01 0.  0.
     999903    2    3    3    0    0  0.11283706286E+00 -0.46381824123E-01  0.35067423889E-01  0.12848616345E+00  0.19887021297E-01 0.  0.
         14    1    1    2    0    0  0.21673866349E-01  0.98147810464E-02 -0.15139134255E-02  0.23840686721E-01  0.00000000000E+00 0. -1.
     999901    1    3    3    0    0 -0.13451092921E+00  0.36567043077E-01 -0.33553510464E-01  0.89160314983E+00  0.88000000000E+00 0. -1.
        -11    1    4    4    0    0  0.25000240848E-01 -0.12761483304E-01 -0.99971246879E-04  0.28073806544E-01  0.51100000000E-03 0. -1.
         11    1    4    4    0    0  0.87836822014E-01 -0.33620340819E-01  0.35167395136E-01  0.10041235691E+00  0.51100000000E-03 0.  1.
</event>
<event>
 8    1  0.1163913E+005  0.1043930E+01  0.7957747E-01            NaN
         13   -1    0    0    0    0  0.00000000000E+00  0.00000000000E+00  0.74505805969E-08  0.10566000000E+00  0.10566000000E+00 0.  1.
     999900   -1    0    0    0    0 -0.00000000000E+00 -0.00000000000E+00 -0.74505805969E-08  0.93827000000E+00  0.93827000000E+00 0. -1.
     999902    2    1    2    0    0  0.22194429942E-01  0.11882106376E-02  0.98447861270E-02  0.10196210638E+01  0.10193312462E+01 0.  0.
     999903    2    3    3    0    0  0.44817342541E-01 -0.79651312889E-01 -0.90619559120E-01  0.12993577709E+00  0.17845891264E-01 0.  0.
         14    1    1    2    0    0 -0.22194429942E-01 -0.11882106376E-02 -0.98447861270E-02  0.24308936193E-01  0.00000000000E+00 0.  1.
     999901    1    3    3    0    0 -0.22622912599E-01  0.80839523527E-01  0.10046434525E+00  0.88968528672E+00  0.88000000000E+00 0.  1.
        -11    1    4    4    0    0  0.29817933797E-01 -0.39313006405E-01 -0.40219542964E-01  0.63659205193E-01  0.51100000000E-03 0. -1.
         11    1    4    4    0    0  0.14999408743E-01 -0.40338306484E-01 -0.50400016156E-01  0.66276571895E-01  0.51100000000E-03 0.  1.
</event>
<event>
 8    1  0.1163913E+005  0.1043930E+01  0.7957747E-01            NaN
         13   -1    0    0    0    0  0.00000000000E+00  0.00000000000E+00  0.74505805969E-08  0.10566000000E+00  0.10566000000E+00 0. -1.
     999900   -1    0    0    0    0 -0.00000000000E+00 -0.00000000000E+00 -0.74505805969E-08  0.93827000000E+00  0.93827000000E+00 0.  1.
     999902    2    1    2    0    0  0.93304426745E-02 -0.11433960630E-01  0.69891561497E-02  0.10276008567E+01  0.10274711090E+01 0.  0.
     999903    2    3    3    0    0 -0.23255995022E-01  0.48454275348E-01  0.12455354684E+00  0.13716845464E+00  0.20320945214E-01 0.  0.
         14    1    1    2    0    0 -0.93304426745E-02  0.11433960630E-01 -0.69891561497E-02  0.16329143268E-01  0.00000000000E+00 0.  1.
     999901    1    3    3    0    0  0.32586437697E-01 -0.59888235978E-01 -0.11756439069E+00  0.89043240209E+00  0.88000000000E+00 0. -1.
        -11    1    4    4    0    0 -0.10178466201E-01  0.36393312414E-01  0.66979605284E-01  0.76906456216E-01  0.51100000000E-03 0.  1.
         11    1    4    4    0    0 -0.13077528821E-01  0.12060962933E-01  0.57573941558E-01  0.60261998427E-01  0.51100000000E-03 0. -1.
</event>
<event>
 8    1  0.1163913E+005  0.1043930E+01  0.7957747E-01            NaN
         13   -1    0    0    0    0  0.00000000000E+00  0.00000000000E+00  0.74505805969E-08  0.10566000000E+00  0.10566000000E+00 0. -1.
     999900   -1    0    0    0    0 -0.00000000000E+00 -0.00000000000E+00 -0.74505805969E-08  0.93827000000E+00  0.93827000000E+00 0. -1.
     999902    2    1    2    0    0  0.34161711554E-04 -0.16446288186E-01 -0.18309852349E-01  0.10193183715E+01  0.10190212021E+01 0.  0.
     999903    2    3    3    0    0 -0.54567330073E-02  0.10522437560E+00 -0.71995439779E-01  0.12930935887E+00  0.20871554448E-01 0.  0.
         14    1    1    2    0    0 -0.34161711554E-04  0.16446288186E-01  0.18309852349E-01  0.24611628454E-01  0.00000000000E+00 0. -1.
     999901    1    3    3    0    0  0.54908947188E-02 -0.12167066379E+00  0.53685587430E-01  0.89000901268E+00  0.88000000000E+00 0.  1.
        -11    1    4    4    0    0 -0.41447684949E-03  0.46719699137E-01 -0.44283067378E-01  0.64375098104E-01  0.51100000000E-03 0.  1.
         11    1    4    4    0    0 -0.50422561578E-02  0.58504676467E-01 -0.27712372402E-01  0.64934260763E-01  0.51100000000E-03 0. -1.
</event>
<event>
 8    1  0.1163913E+005  0.1043930E+01  0.7957747E-01            NaN
         13   -1    0    0    0    0  0.00000000000E+00  0.00000000000E+00  0.74505805969E-08  0.10566000000E+00  0.10566000000E+00 0. -1.
     999900   -1    0    0    0    0 -0.00000000000E+00 -0.00000000000E+00 -0.74505805969E-08  0.93827000000E+00  0.93827000000E+00 0. -1.
     999902    2    1    2    0    0  0.20631145071E-01 -0.26398971222E-03  0.75317554793E-02  0.10219654563E+01  0.10217293931E+01 0.  0.
     999903    2    3    3    0    0 -0.67954705724E-01  0.54190231115E-01  0.95456054916E-01  0.13149176355E+00  0.24976034162E-01 0.  0.
         14    1    1    2    0    0 -0.20631145071E-01  0.26398971222E-03 -0.75317554793E-02  0.21964543658E-01  0.00000000000E+00 0.  1.
     999901    1    3    3    0    0  0.88585850795E-01 -0.54454220828E-01 -0.87924299436E-01  0.89047369279E+00  0.88000000000E+00 0.  1.
        -11    1    4    4    0    0 -0.48632340841E-01  0.48594933714E-01  0.83198513101E-01  0.10792972650E+00  0.51100000000E-03 0. -1.
         11    1    4    4    0    0 -0.19322364882E-01  0.55952974013E-02  0.12257541814E-01  0.23562037051E-01  0.51100000000E-03 0.  1.
</event>
<event>
 8    1  0.1163913E+005  0.1043930E+01  0.7957747E-01            NaN
         13   -1    0    0    0    0  0.00000000000E+00  0.00000000000E+00  0.74505805969E-08  0.10566000000E+00  0.10566000000E+00 0. -1.
     999900   -1    0    0    0    0 -0.00000000000E+00 -0.00000000000E+00 -0.74505805969E-08  0.93827000000E+00  0.93827000000E+00 0. -1.
     999902    2    1    2    0    0 -0.23063148034E-02 -0.21950961196E-01 -0.56926137909E-02  0.10211359298E+01  0.10208814904E+01 0.  0.
     999903    2    3    3    0    0 -0.75134215142E-01 -0.10844390085E+00 -0.12566793655E-01  0.13387487123E+00  0.18955920638E-01 0.  0.
         14    1    1    2    0    0  0.23063148034E-02  0.21950961196E-01  0.56926137909E-02  0.22794070219E-01  0.00000000000E+00 0. -1.
     999901    1    3    3    0    0  0.72827900338E-01  0.86492939652E-01  0.68741798645E-02  0.88726105855E+00  0.88000000000E+00 0.  1.
        -11    1    4    4    0    0 -0.11037041017E-01 -0.28501162193E-01  0.54054420569E-03  0.30572632039E-01  0.51100000000E-03 0. -1.
         11    1    4    4    0    0 -0.64097174125E-01 -0.79942738654E-01 -0.13107337861E-01  0.10330223919E+00  0.51100000000E-03 0.  1.
</event>
<event>
 8    1  0.1163913E+005  0.1043930E+01  0.7957747E-01            NaN
         13   -1    0    0    0    0  0.00000000000E+00  0.00000000000E+00  0.74505805969E-08  0.10566000000E+00  0.10566000000E+00 0. -1.
     999900   -1    0    0    0    0 -0.00000000000E+00 -0.00000000000E+00 -0.74505805969E-08  0.93827000000E+00  0.93827000000E+00 0. -1.
     999902    2    1    2    0    0 -0.14344669621E-01 -0.53780749141E-02 -0.18333806209E-01  0.10200381251E+01  0.10197582826E+01 0.  0.
     999903    2    3    3    0    0  0.64209714482E-01  0.97438637117E-01 -0.52892782808E-01  0.12990533141E+00  0.21460969643E-01 0.  0.
         14    1    1    2    0    0  0.14344669621E-01  0.53780749141E-02  0.18333806209E-01  0.23891874904E-01  0.00000000000E+00 0. -1.
     999901    1    3    3    0    0 -0.78554384103E-01 -0.10281671203E+00  0.34558976599E-01  0.89013279369E+00  0.88000000000E+00 0.  1.
        -11    1    4    4    0    0  0.28914594091E-01  0.31009836175E-01 -0.11015366766E-01  0.43809395306E-01  0.51100000000E-03 0.  1.
         11    1    4    4    0    0  0.35295120391E-01  0.66428800942E-01 -0.41877416043E-01  0.86095936103E-01  0.51100000000E-03 0. -1.
</event>
<event>
 8    1  0.1163913E+005  0.1043930E+01  0.7957747E-01            NaN
         13   -1    0    0    0    0  0.00000000000E+00  0.00000000000E+00  0.74505805969E-08  0.10566000000E+00  0.10566000000E+00 0.  1.
     999900   -1    0    0    0    0 -0.00000000000E+00 -0.00000000000E+00 -0.74505805969E-08  0.93827000000E+00  0.93827000000E+00 0.  1.
     999902    2    1    2    0    0 -0.40158855724E-02 -0.16949398075E-01  0.15807548557E-01  0.10204079248E+01  0.10201367775E+01 0.  0.
     999903    2    3    3    0    0  0.11682260037E+00 -0.58674444211E-01 -0.47148060032E-02  0.13093387444E+00  0.55892503082E-02 0.  0.
         14    1    1    2    0    0  0.40158855724E-02  0.16949398075E-01 -0.15807548557E-01  0.23522075236E-01  0.00000000000E+00 0. -1.
     999901    1    3    3    0    0 -0.12083848595E+00  0.41725046136E-01  0.20522354560E-01  0.88947405032E+00  0.88000000000E+00 0.  1.
        -11    1    4    4    0    0  0.54776946942E-01 -0.26445722310E-01  0.37761490843E-03  0.60830040760E-01  0.51100000000E-03 0.  1.
         11    1    4    4    0    0  0.62045653431E-01 -0.32228721900E-01 -0.50924209116E-02  0.70103833681E-01  0.51100000000E-03 0. -1.
</event>
<event>
 8    1  0.1185509E+005  0.1043930E+01  0.7957747E-01            NaN
         13   -1    0    0    0    0  0.00000000000E+00  0.00000000000E+00  0.74505805969E-08  0.10566000000E+00  0.10566000000E+00 0.  1.
     999900   -1    0    0    0    0 -0.00000000000E+00 -0.00000000000E+00 -0.74505805969E-08  0.93827000000E+00  0.93827000000E+00 0.  1.
     999902    2    1    2    0    0 -0.16792037033E-01 -0.15883097341E-01 -0.75510366671E-02  0.10196140907E+01  0.10193241048E+01 0.  0.
     999903    2    3    3    0    0 -0.61963211053E-01 -0.43437023024E-01 -0.10681233189E+00  0.13245432016E+00  0.20225187072E-01 0.  0.
         14    1    1    2    0    0  0.16792037033E-01  0.15883097341E-01  0.75510366671E-02  0.24315909269E-01  0.00000000000E+00 0.  1.
     999901    1    3    3    0    0  0.45171174021E-01  0.27553925684E-01  0.99261295227E-01  0.88715977057E+00  0.88000000000E+00 0. -1.
        -11    1    4    4    0    0 -0.31190296688E-01 -0.33980120758E-01 -0.63492699373E-01  0.78479724826E-01  0.51100000000E-03 0. -1.
         11    1    4    4    0    0 -0.30772914366E-01 -0.94569022666E-02 -0.43319632521E-01  0.53974595337E-01  0.51100000000E-03 0.  1.
</event>
<event>
 8    1  0.1163913E+005  0.1043930E+01  0.7957747E-01            NaN
         13   -1    0    0    0    0  0.00000000000E+00  0.00000000000E+00  0.74505805969E-08  0.10566000000E+00  0.10566000000E+00 0. -1.
     999900   -1    0    0    0    0 -0.00000000000E+00 -0.00000000000E+00 -0.74505805969E-08  0.93827000000E+00  0.93827000000E+00 0. -1.
     999902    2    1    2    0    0 -0.21346255380E-01  0.42810033171E-02  0.87040617394E-02  0.10204832455E+01  0.10202138521E+01 0.  0.
     999903    2    3    3    0    0  0.87313307056E-01  0.60398304878E-01 -0.69234559454E-01  0.12861415152E+00  0.21831329001E-01 0.  0.
         14    1    1    2    0    0  0.21346255380E-01 -0.42810033171E-02 -0.87040617394E-02  0.23446754549E-01  0.00000000000E+00 0. -1.
     999901    1    3    3    0    0 -0.10865956244E+00 -0.56117301561E-01  0.77938621194E-01  0.89186909394E+00  0.88000000000E+00 0.  1.
        -11    1    4    4    0    0  0.52283791369E-01  0.25302708860E-01 -0.44657669444E-01  0.73269301052E-01  0.51100000000E-03 0. -1.
         11    1    4    4    0    0  0.35029515687E-01  0.35095596019E-01 -0.24576890010E-01  0.55344850463E-01  0.51100000000E-03 0.  1.
</event>
<event>
 8    1  0.1163913E+005  0.1043930E+01  0.7957747E-01            NaN
         13   -1    0    0    0    0  0.00000000000E+00  0.00000000000E+00  0.74505805969E-08  0.10566000000E+00  0.10566000000E+00 0. -1.
     999900   -1    0    0    0    0 -0.00000000000E+00 -0.00000000000E+00 -0.74505805969E-08  0.93827000000E+00  0.93827000000E+00 0.  1.
     999902    2    1    2    0    0  0.12569018323E-02 -0.22409705008E-01  0.33492123197E-02  0.10212365669E+01  0.10209843945E+01 0.  0.
     999903    2    3    3    0    0  0.21375096205E-01 -0.10910537128E+00  0.72269504363E-01  0.13406641024E+00  0.19749539551E-01 0.  0.
         14    1    1    2    0    0 -0.12569018323E-02  0.22409705008E-01 -0.33492123197E-02  0.22693433057E-01  0.00000000000E+00 0. -1.
     999901    1    3    3    0    0 -0.20118194373E-01  0.86695666273E-01 -0.68920292043E-01  0.88717015671E+00  0.88000000000E+00 0.  1.
        -11    1    4    4    0    0  0.18279039923E-01 -0.68586338158E-01  0.35972927423E-01  0.79577143143E-01  0.51100000000E-03 0. -1.
         11    1    4    4    0    0  0.30960562821E-02 -0.40519033123E-01  0.36296576940E-01  0.54489267093E-01  0.51100000000E-03 0.  1.
</event>
<event>
 8    1  0.1163913E+005  0.1043930E+01  0.7957747E-01            NaN
         13   -1    0    0    0    0  0.00000000000E+00  0.00000000000E+00  0.74505805969E-08  0.10566000000E+00  0.10566000000E+00 0. -1.
     999900   -1    0    0    0    0 -0.00000000000E+00 -0.00000000000E+00 -0.74505805969E-08  0.93827000000E+00  0.93827000000E+00 0. -1.
     999902    2    1    2    0    0 -0.22984907143E-01 -0.52655587235E-02 -0.62151996320E-03  0.10203414784E+01  0.10200687791E+01 0.  0.
     999903    2    3    3    0    0  0.11248072339E+00  0.50488088930E-02 -0.56750281752E-01  0.12814880797E+00  0.22893643237E-01 0.  0.
         14    1    1    2    0    0  0.22984907143E-01  0.52655587235E-02  0.62151996320E-03  0.23588521618E-01  0.00000000000E+00 0. -1.
     999901    1    3    3    0    0 -0.13546563053E+00 -0.10314367616E-01  0.56128761789E-01  0.89219267041E+00  0.88000000000E+00 0. -1.
        -11    1    4    4    0    0  0.71888619047E-02 -0.40046319994E-02 -0.89217661746E-02  0.12148079915E-01  0.51100000000E-03 0.  1.
         11    1    4    4    0    0  0.10529186148E+00  0.90534408924E-02 -0.47828515577E-01  0.11600072806E+00  0.51100000000E-03 0. -1.
</event>
<event>
 8    1  0.1163913E+005  0.1043930E+01  0.7957747E-01            NaN
         13   -1    0    0    0    0  0.00000000000E+00  0.00000000000E+00  0.74505805969E-08  0.10566000000E+00  0.10566000000E+00 0. -1.
     999900   -1    0    0    0    0 -0.00000000000E+00 -0.00000000000E+00 -0.74505805969E-08  0.93827000000E+00  0.93827000000E+00 0.  1.
     999902    2    1    2    0    0 -0.41140739600E-02  0.38429373818E-02  0.20091432297E-01  0.10230647316E+01  0.10228519373E+01 0.  0.
     999903    2    3    3    0    0 -0.70120469008E-01 -0.43726111392E-01 -0.99616046917E-01  0.13124101634E+00  0.21725436102E-01 0.  0.
         14    1    1    2    0    0  0.41140739600E-02 -0.38429373818E-02 -0.20091432297E-01  0.20865268367E-01  0.00000000000E+00 0.  1.
     999901    1    3    3    0    0  0.66006395048E-01  0.47569048774E-01  0.11970747921E+00  0.89182371530E+00  0.88000000000E+00 0. -1.
        -11    1    4    4    0    0 -0.29287263091E-01 -0.61331614291E-02 -0.33818518114E-01  0.45158750391E-01  0.51100000000E-03 0.  1.
         11    1    4    4    0    0 -0.40833205917E-01 -0.37592949963E-01 -0.65797528803E-01  0.86082265944E-01  0.51100000000E-03 0. -1.
</event>
<event>
 8    1  0.1163913E+005  0.1043930E+01  0.7957747E-01            NaN
         13   -1    0    0    0    0  0.00000000000E+00  0.00000000000E+00  0.74505805969E-08  0.10566000000E+00  0.10566000000E+00 0. -1.
     999900   -1    0    0    0    0 -0.00000000000E+00 -0.00000000000E+00 -0.74505805969E-08  0.93827000000E+00  0.93827000000E+00 0.  1.
     999902    2    1    2    0    0  0.21169401010E-01 -0.23757403425E-02  0.91992853365E-02  0.10207262388E+01  0.10204624638E+01 0.  0.
     999903    2    3    3    0    0  0.43493875899E-02 -0.12943022196E+00  0.10657843168E-01  0.13144119930E+00  0.19801508140E-01 0.  0.
         14    1    1    2    0    0 -0.21169401010E-01  0.23757403425E-02 -0.91992853365E-02  0.23203761160E-01  0.00000000000E+00 0.  1.
     999901    1    3    3    0    0  0.16820013420E-01  0.12705448162E+00 -0.14585578312E-02  0.88928503954E+00  0.88000000000E+00 0.  1.
        -11    1    4    4    0    0  0.11983243666E-01 -0.84922678017E-01  0.91971475890E-02  0.86257220075E-01  0.51100000000E-03 0.  1.
         11    1    4    4    0    0 -0.76338560759E-02 -0.44507543943E-01  0.14606955787E-02  0.45183979229E-01  0.51100000000E-03 0. -1.
</event>
<event>
 8    1  0.1163913E+005  0.1043930E+01  0.7957747E-01            NaN
         13   -1    0    0    0    0  0.00000000000E+00  0.00000000000E+00  0.74505805969E-08  0.10566000000E+00  0.10566000000E+00 0.  1.
     999900   -1    0    0    0    0 -0.00000000000E+00 -0.00000000000E+00 -0.74505805969E-08  0.93827000000E+00  0.93827000000E+00 0.  1.
     999902    2    1    2    0    0 -0.12450664990E-01 -0.19649834363E-01 -0.43630050487E-02  0.10202620710E+01  0.10199875110E+01 0.  0.
     999903    2    3    3    0    0  0.46473601189E-01 -0.13118401391E-01  0.11896435235E+00  0.12968677053E+00  0.18282594368E-01 0.  0.
         14    1    1    2    0    0  0.12450664990E-01  0.19649834363E-01  0.43630050487E-02  0.23667928981E-01  0.00000000000E+00 0.  1.
     999901    1    3    3    0    0 -0.58924266180E-01 -0.65314329725E-02 -0.12332735740E+00  0.89057530049E+00  0.88000000000E+00 0.  1.
        -11    1    4    4    0    0  0.29215573519E-01 -0.61015310670E-02  0.49851430713E-01  0.58105117525E-01  0.51100000000E-03 0. -1.
         11    1    4    4    0    0  0.17258027671E-01 -0.70168703237E-02  0.69112921639E-01  0.71581653003E-01  0.51100000000E-03 0.  1.
</event>
<event>
 8    1  0.1163913E+005  0.1043930E+01  0.7957747E-01            NaN
         13   -1    0    0    0    0  0.00000000000E+00  0.00000000000E+00  0.74505805969E-08  0.10566000000E+00  0.10566000000E+00 0.  1.
     999900   -1    0    0    0    0 -0.00000000000E+00 -0.00000000000E+00 -0.74505805969E-08  0.93827000000E+00  0.93827000000E+00 0.  1.
     999902    2    1    2    0    0  0.21081135523E-01  0.24312371991E-02 -0.11060013394E-01  0.10199999125E+01  0.10197191635E+01 0.  0.
     999903    2    3    3    0    0  0.11089594996E+00  0.56175949028E-01 -0.43909674877E-01  0.13318860499E+00  0.18907564257E-01 0.  0.
         14    1    1    2    0    0 -0.21081135523E-01 -0.24312371991E-02  0.11060013394E-01  0.23930087454E-01  0.00000000000E+00 0. -1.
     999901    1    3    3    0    0 -0.89814814436E-01 -0.53744711829E-01  0.32849661483E-01  0.88681130755E+00  0.88000000000E+00 0.  1.
        -11    1    4    4    0    0  0.66541818685E-01  0.28045544149E-01 -0.17065414961E-01  0.74201453418E-01  0.51100000000E-03 0. -1.
         11    1    4    4    0    0  0.44354131274E-01  0.28130404879E-01 -0.26844259916E-01  0.58987151577E-01  0.51100000000E-03 0.  1.
</event>
<event>
 8    1  0.1163913E+005  0.1043930E+01  0.7957747E-01            NaN
         13   -1    0    0    0    0  0.00000000000E+00  0.00000000000E+00  0.74505805969E-08  0.10566000000E+00  0.10566000000E+00 0. -1.
     999900   -1    0    0    0    0 -0.00000000000E+00 -0.00000000000E+00 -0.74505805969E-08  0.93827000000E+00  0.93827000000E+00 0.  1.
     999902    2    1    2    0    0  0.11417101479E-01 -0.55382058695E-02 -0.20939017009E-01  0.10194460386E+01  0.10191519815E+01 0.  0.
     999903    2    3    3    0    0  0.66885645821E-01 -0.13103558366E-01 -0.11252036356E+00  0.13292410603E+00  0.19041872002E-01 0.  0.
         14    1    1    2    0    0 -0.11417101479E-01  0.55382058695E-02  0.20939017009E-01  0.24483961358E-01  0.00000000000E+00 0. -1.
     999901    1    3    3    0    0 -0.55468544342E-01  0.75653524968E-02  0.91581346549E-01  0.88652193261E+00  0.88000000000E+00 0. -1.
        -11    1    4    4    0    0  0.48418161444E-01 -0.17617300772E-01 -0.77340410231E-01  0.92932705867E-01  0.51100000000E-03 0. -1.
         11    1    4    4    0    0  0.18467484377E-01  0.45137424055E-02 -0.35179953328E-01  0.39991400161E-01  0.51100000000E-03 0.  1.
</event>
<event>
 8    1  0.1163913E+005  0.1043930E+01  0.7957747E-01            NaN
         13   -1    0    0    0    0  0.00000000000E+00  0.00000000000E+00  0.74505805969E-08  0.10566000000E+00  0.10566000000E+00 0. -1.
     999900   -1    0    0    0    0 -0.00000000000E+00 -0.00000000000E+00 -0.74505805969E-08  0.93827000000E+00  0.93827000000E+00 0. -1.
     999902    2    1    2    0    0  0.50211578621E-02  0.20575323348E-01 -0.10373119899E-01  0.10203470067E+01  0.10200744367E+01 0.  0.
     999903    2    3    3    0    0  0.47356432114E-01 -0.95848640066E-01 -0.70567229791E-01  0.12963372758E+00  0.19889091031E-01 0.  0.
         14    1    1    2    0    0 -0.50211578621E-02 -0.20575323348E-01  0.10373119899E-01  0.23582993313E-01  0.00000000000E+00 0. -1.
     999901    1    3    3    0    0 -0.42335274252E-01  0.11642396341E+00  0.60194109891E-01  0.89071327910E+00  0.88000000000E+00 0. -1.
        -11    1    4    4    0    0  0.26187704324E-01 -0.31318265851E-01 -0.26347271964E-01  0.48590837558E-01  0.51100000000E-03 0.  1.
         11    1    4    4    0    0  0.21168727790E-01 -0.64530374216E-01 -0.44219957827E-01  0.81042890027E-01  0.51100000000E-03 0. -1.
</event>
<event>
 8    1  0.1163913E+005  0.1043930E+01  0.7957747E-01            NaN
         13   -1    0    0    0    0  0.00000000000E+00  0.00000000000E+00  0.74505805969E-08  0.10566000000E+00  0.10566000000E+00 0. -1.
     999900   -1    0    0    0    0 -0.00000000000E+00 -0.00000000000E+00 -0.74505805969E-08  0.93827000000E+00  0.93827000000E+00 0. -1.
     999902    2    1    2    0    0 -0.18245458808E-01  0.10971332185E-01  0.84065263113E-02  0.10210403390E+01  0.10207837368E+01 0.  0.
     999903    2    3    3    0    0 -0.67368435491E-01  0.55230857012E-01  0.99679190214E-01  0.13385226898E+00  0.19787250487E-01 0.  0.
         14    1    1    2    0    0  0.18245458808E-01 -0.10971332185E-01 -0.84065263113E-02  0.22889661021E-01  0.00000000000E+00 0.  1.
     999901    1    3    3    0    0  0.49122976683E-01 -0.44259524827E-01 -0.91272663903E-01  0.88718807000E+00  0.88000000000E+00 0. -1.
        -11    1    4    4    0    0 -0.60143001670E-01  0.47393338875E-01  0.76036759072E-01  0.10791273822E+00  0.51100000000E-03 0.  1.
         11    1    4    4    0    0 -0.72254338212E-02  0.78375181371E-02  0.23642431142E-01  0.25939530755E-01  0.51100000000E-03 0. -1.
</event>
<event>
 7    1  0.1163913E+005  0.1043930E+01  0.7957747E-01            NaN
         13   -1    0    0    0    0  0.00000000000E+00  0.00000000000E+00  0.74505805969E-08  0.10566000000E+00  0.10566000000E+00 0.  1.
     999900   -1    0    0    0    0 -0.00000000000E+00 -0.00000000000E+00 -0.74505805969E-08  0.93827000000E+00  0.93827000000E+00 0. -1.
     999902    2    1    2    0    0  0.32992332192E-02 -0.12226645939E-01 -0.20076603887E-01  0.10201929860E+01  0.10199168019E+01 0.  0.
         14    1    1    2    0    0 -0.32992332192E-02  0.12226645939E-01  0.20076603887E-01  0.23737014016E-01  0.00000000000E+00 0.  1.
     999901    1    3    3    0    0  0.85032924159E-01 -0.10456100367E+00 -0.19578242463E-01  0.89047566461E+00  0.88000000000E+00 0.  1.
        -11    1    3    3    0    0 -0.68914120527E-01  0.71750466897E-01  0.15464163304E-01  0.10068111529E+00  0.51100000000E-03 0.  1.
         11    1    3    3    0    0 -0.12819570413E-01  0.20583890832E-01 -0.15962524728E-01  0.29036206089E-01  0.51100000000E-03 0. -1.
</event>
<event>
 8    1  0.1163913E+005  0.1043930E+01  0.7957747E-01            NaN
         13   -1    0    0    0    0  0.00000000000E+00  0.00000000000E+00  0.74505805969E-08  0.10566000000E+00  0.10566000000E+00 0. -1.
     999900   -1    0    0    0    0 -0.00000000000E+00 -0.00000000000E+00 -0.74505805969E-08  0.93827000000E+00  0.93827000000E+00 0. -1.
     999902    2    1    2    0    0 -0.18815628977E-01  0.16503109722E-01  0.11503143039E-01  0.10163854393E+01  0.10160121350E+01 0.  0.
     999903    2    3    3    0    0  0.11391485215E+00 -0.25270863593E-01  0.40259204220E-01  0.12498802147E+00  0.19646676554E-01 0.  0.
         14    1    1    2    0    0  0.18815628977E-01 -0.16503109722E-01 -0.11503143039E-01  0.27544560698E-01  0.00000000000E+00 0.  1.
     999901    1    3    3    0    0 -0.13273048112E+00  0.41773973315E-01 -0.28756061181E-01  0.89139741783E+00  0.88000000000E+00 0. -1.
        -11    1    4    4    0    0  0.42005596196E-01 -0.96421486579E-02  0.50087531320E-02  0.43391126645E-01  0.51100000000E-03 0.  1.
         11    1    4    4    0    0  0.71909255951E-01 -0.15628714936E-01  0.35250451088E-01  0.81596894823E-01  0.51100000000E-03 0. -1.
</event>
<event>
 8    1  0.1163913E+005  0.1043930E+01  0.7957747E-01            NaN
         13   -1    0    0    0    0  0.00000000000E+00  0.00000000000E+00  0.74505805969E-08  0.10566000000E+00  0.10566000000E+00 0. -1.
     999900   -1    0    0    0    0 -0.00000000000E+00 -0.00000000000E+00 -0.74505805969E-08  0.93827000000E+00  0.93827000000E+00 0.  1.
     999902    2    1    2    0    0 -0.13982610165E-01 -0.16199528997E-01 -0.37116530599E-02  0.10222110107E+01  0.10219802522E+01 0.  0.
     999903    2    3    3    0    0  0.50857177575E-02 -0.44428325974E-01  0.12273993605E+00  0.13251978873E+00  0.22285910989E-01 0.  0.
         14    1    1    2    0    0  0.13982610165E-01  0.16199528997E-01  0.37116530599E-02  0.21718989276E-01  0.00000000000E+00 0. -1.
     999901    1    3    3    0    0 -0.19068327922E-01  0.28228796977E-01 -0.12645158911E+00  0.88969122200E+00  0.88000000000E+00 0.  1.
        -11    1    4    4    0    0  0.58577589446E-02 -0.46868198121E-01  0.11399944831E+00  0.12339804160E+00  0.51100000000E-03 0. -1.
         11    1    4    4    0    0 -0.77204118706E-03  0.24398721468E-02  0.87404877454E-02  0.91217471307E-02  0.51100000000E-03 0.  1.
</event>
<event>
 8    1  0.1163913E+005  0.1043930E+01  0.7957747E-01            NaN
         13   -1    0    0    0    0  0.00000000000E+00  0.00000000000E+00  0.74505805969E-08  0.10566000000E+00  0.10566000000E+00 0. -1.
     999900   -1    0    0    0    0 -0.00000000000E+00 -0.00000000000E+00 -0.74505805969E-08  0.93827000000E+00  0.93827000000E+00 0. -1.
     999902    2    1    2    0    0  0.75342886148E-02 -0.45262594670E-02 -0.22539497391E-01  0.10197374087E+01  0.10194503918E+01 0.  0.
     999903    2    3    3    0    0  0.89276672976E-01  0.75947850797E-01  0.50742000403E-01  0.12927231804E+00  0.19954478881E-01 0.  0.
         14    1    1    2    0    0 -0.75342886148E-02  0.45262594670E-02  0.22539497391E-01  0.24192591270E-01  0.00000000000E+00 0. -1.
     999901    1    3    3    0    0 -0.81742384361E-01 -0.80474110264E-01 -0.73281497794E-01  0.89046509069E+00  0.88000000000E+00 0. -1.
        -11    1    4    4    0    0  0.14940528036E-01  0.41571786693E-02  0.77169500244E-02  0.17329568696E-01  0.51100000000E-03 0.  1.
         11    1    4    4    0    0  0.74336144940E-01  0.71790672128E-01  0.43025050378E-01  0.11194274934E+00  0.51100000000E-03 0. -1.
</event>
<event>
 8    1  0.1163913E+005  0.1043930E+01  0.7957747E-01            NaN
         13   -1    0    0    0    0  0.00000000000E+00  0.00000000000E+00  0.74505805969E-08  0.10566000000E+00  0.10566000000E+00 0. -1.
     999900   -1    0    0    0    0 -0.00000000000E+00 -0.00000000000E+00 -0.74505805969E-08  0.93827000000E+00  0.93827000000E+00 0. -1.
     999902    2    1    2    0    0  0.21902777399E-01  0.43556451568E-02  0.77669212635E-02  0.10202862192E+01  0.10200122258E+01 0.  0.
     999903    2    3    3    0    0 -0.17340247923E-02 -0.10006407481E-01  0.12949930780E+00  0.13147592401E+00  0.20315335147E-01 0.  0.
         14    1    1    2    0    0 -0.21902777399E-01 -0.43556451568E-02 -0.77669212635E-02  0.23643780756E-01  0.00000000000E+00 0.  1.
     999901    1    3    3    0    0  0.23636802191E-01  0.14362052638E-01 -0.12173238654E+00  0.88881029523E+00  0.88000000000E+00 0. -1.
        -11    1    4    4    0    0 -0.10543080671E-01 -0.78359951579E-02  0.89295247048E-01  0.90257751116E-01  0.51100000000E-03 0.  1.
         11    1    4    4    0    0  0.88090558791E-02 -0.21704123231E-02  0.40204060752E-01  0.41218172899E-01  0.51100000000E-03 0. -1.
</event>
<event>
 8    1  0.1163913E+005  0.1043930E+01  0.7957747E-01            NaN
         13   -1    0    0    0    0  0.00000000000E+00  0.00000000000E+00  0.74505805969E-08  0.10566000000E+00  0.10566000000E+00 0.  1.
     999900   -1    0    0    0    0 -0.00000000000E+00 -0.00000000000E+00 -0.74505805969E-08  0.93827000000E+00  0.93827000000E+00 0. -1.
     999902    2    1    2    0    0 -0.62222540608E-02 -0.19329995633E-01 -0.12233111449E-01  0.10202231615E+01  0.10199476874E+01 0.  0.
     999903    2    3    3    0    0  0.11473141732E+00  0.13369661906E-01  0.54147824501E-01  0.12887278880E+00  0.18280120804E-01 0.  0.
         14    1    1    2    0    0  0.62222540608E-02  0.19329995633E-01  0.12233111449E-01  0.23706838517E-01  0.00000000000E+00 0.  1.
     999901    1    3    3    0    0 -0.12095367138E+00 -0.32699657538E-01 -0.66380935950E-01  0.89135037268E+00  0.88000000000E+00 0. -1.
        -11    1    4    4    0    0  0.98998188301E-01  0.50343146701E-02  0.46356273560E-01  0.10943103230E+00  0.51100000000E-03 0. -1.
         11    1    4    4    0    0  0.15733229014E-01  0.83353472356E-02  0.77915509410E-02  0.19441756500E-01  0.51100000000E-03 0.  1.
</event>
<event>
 8    1  0.1163913E+005  0.1043930E+01  0.7957747E-01            NaN
         13   -1    0    0    0    0  0.00000000000E+00  0.00000000000E+00  0.74505805969E-08  0.10566000000E+00  0.10566000000E+00 0.  1.
     999900   -1    0    0    0    0 -0.00000000000E+00 -0.00000000000E+00 -0.74505805969E-08  0.93827000000E+00  0.93827000000E+00 0. -1.
     999902    2    1    2    0    0 -0.68002350805E-04 -0.10732387836E-01 -0.20392760427E-01  0.10208854030E+01  0.10206252753E+01 0.  0.
     999903    2    3    3    0    0  0.12563163876E+00 -0.30383790654E-01  0.10967846474E-01  0.13118316906E+00  0.19551132884E-01 0.  0.
         14    1    1    2    0    0  0.68002350805E-04  0.10732387836E-01  0.20392760427E-01  0.23044596998E-01  0.00000000000E+00 0. -1.
     999901    1    3    3    0    0 -0.12569964111E+00  0.19651402818E-01 -0.31360606900E-01  0.88970223394E+00  0.88000000000E+00 0.  1.
        -11    1    4    4    0    0  0.71133875803E-01 -0.76919366398E-02  0.30088714680E-02  0.71613606280E-01  0.51100000000E-03 0. -1.
         11    1    4    4    0    0  0.54497762959E-01 -0.22691854014E-01  0.79589750058E-02  0.59569562784E-01  0.51100000000E-03 0.  1.
</event>
<event>
 8    1  0.1163913E+005  0.1043930E+01  0.7957747E-01            NaN
         13   -1    0    0    0    0  0.00000000000E+00  0.00000000000E+00  0.74505805969E-08  0.10566000000E+00  0.10566000000E+00 0. -1.
     999900   -1    0    0    0    0 -0.00000000000E+00 -0.00000000000E+00 -0.74505805969E-08  0.93827000000E+00  0.93827000000E+00 0. -1.
     999902    2    1    2    0    0  0.29050506222E-03  0.21927112327E-01  0.60251057047E-02  0.10211883082E+01  0.10209350499E+01 0.  0.
     999903    2    3    3    0    0  0.58917858495E-02  0.49113183856E-01 -0.12048051612E+00  0.13170861241E+00  0.19615959050E-01 0.  0.
         14    1    1    2    0    0 -0.29050506222E-03 -0.21927112327E-01 -0.60251057047E-02  0.22741691822E-01  0.00000000000E+00 0.  1.
     999901    1    3    3    0    0 -0.56012807873E-02 -0.27186071529E-01  0.12650562182E+00  0.88947969577E+00  0.88000000000E+00 0.  1.
        -11    1    4    4    0    0  0.11319015246E-01  0.20368184803E-01 -0.43405919503E-01  0.49267819388E-01  0.51100000000E-03 0. -1.
         11    1    4    4    0    0 -0.54272293965E-02  0.28744999053E-01 -0.77074596616E-01  0.82440793021E-01  0.51100000000E-03 0.  1.
</event>
<event>
 8    1  0.1163913E+005  0.1043930E+01  0.7957747E-01            NaN
         13   -1    0    0    0    0  0.00000000000E+00  0.00000000000E+00  0.74505805969E-08  0.10566000000E+00  0.10566000000E+00 0. -1.
     999900   -1    0    0    0    0 -0.00000000000E+00 -0.00000000000E+00 -0.74505805969E-08  0.93827000000E+00  0.93827000000E+00 0.  1.
     999902    2    1    2    0    0  0.17511215620E-01 -0.15555391630E-01 -0.47682662804E-02  0.10200270871E+01  0.10197469829E+01 0.  0.
     999903    2    3    3    0    0  0.41131574277E-01 -0.58812670731E-01 -0.10967223420E+00  0.13242697669E+00  0.18925341713E-01 0.  0.
         14    1    1    2    0    0 -0.17511215620E-01  0.15555391630E-01  0.47682662804E-02  0.23902912889E-01  0.00000000000E+00 0.  1.
     999901    1    3    3    0    0 -0.23620358657E-01  0.43257279101E-01  0.10490396792E+00  0.88760011042E+00  0.88000000000E+00 0. -1.
        -11    1    4    4    0    0  0.97973574883E-02 -0.29618189658E-01 -0.41575204938E-01  0.51980613300E-01  0.51100000000E-03 0. -1.
         11    1    4    4    0    0  0.31334216789E-01 -0.29194481073E-01 -0.68097029262E-01  0.80446363387E-01  0.51100000000E-03 0.  1.
</event>
<event>
 8    1  0.1163913E+005  0.1043930E+01  0.7957747E-01            NaN
         13   -1    0    0    0    0  0.00000000000E+00  0.00000000000E+00  0.74505805969E-08  0.10566000000E+00  0.10566000000E+00 0. -1.
     999900   -1    0    0    0    0 -0.00000000000E+00 -0.00000000000E+00 -0.74505805969E-08  0.93827000000E+00  0.93827000000E+00 0. -1.
     999902    2    1    2    0    0 -0.80898205726E-02 -0.18175862016E-01  0.13091352685E-01  0.10201142348E+01  0.10198361934E+01 0.  0.
     999903    2    3    3    0    0 -0.22979267203E-01 -0.63023210091E-01 -0.11026045167E+00  0.13025545506E+00  0.17582509420E-01 0.  0.
         14    1    1    2    0    0  0.80898205726E-02  0.18175862016E-01 -0.13091352685E-01  0.23815765200E-01  0.00000000000E+00 0.  1.
     999901    1    3    3    0    0  0.14889446631E-01  0.44847348075E-01  0.12335180436E+00  0.88985877974E+00  0.88000000000E+00 0.  1.
        -11    1    4    4    0    0 -0.93520587851E-02 -0.14706307282E-01 -0.42380929037E-01  0.45827292571E-01  0.51100000000E-03 0.  1.
         11    1    4    4    0    0 -0.13627208418E-01 -0.48316902809E-01 -0.67879522635E-01  0.84428162485E-01  0.51100000000E-03 0. -1.
</event>
<event>
 8    1  0.1163913E+005  0.1043930E+01  0.7957747E-01            NaN
         13   -1    0    0    0    0  0.00000000000E+00  0.00000000000E+00  0.74505805969E-08  0.10566000000E+00  0.10566000000E+00 0.  1.
     999900   -1    0    0    0    0 -0.00000000000E+00 -0.00000000000E+00 -0.74505805969E-08  0.93827000000E+00  0.93827000000E+00 0. -1.
     999902    2    1    2    0    0 -0.71464542953E-02  0.24753184665E-01  0.79855293778E-04  0.10181657159E+01  0.10178396861E+01 0.  0.
     999903    2    3    3    0    0 -0.64259867323E-01  0.78276722078E-01  0.80679098175E-01  0.13102257693E+00  0.20030552064E-01 0.  0.
         14    1    1    2    0    0  0.71464542953E-02 -0.24753184665E-01 -0.79855293778E-04  0.25764284134E-01  0.00000000000E+00 0. -1.
     999901    1    3    3    0    0  0.57113413027E-01 -0.53523537414E-01 -0.80599242881E-01  0.88714313893E+00  0.88000000000E+00 0. -1.
        -11    1    4    4    0    0 -0.26871394810E-01  0.40722847417E-01  0.49650914915E-01  0.69612474699E-01  0.51100000000E-03 0. -1.
         11    1    4    4    0    0 -0.37388472513E-01  0.37553874661E-01  0.31028183260E-01  0.61410102233E-01  0.51100000000E-03 0.  1.
</event>
<event>
 8    1  0.1163913E+005  0.1043930E+01  0.7957747E-01            NaN
         13   -1    0    0    0    0  0.00000000000E+00  0.00000000000E+00  0.74505805969E-08  0.10566000000E+00  0.10566000000E+00 0.  1.
     999900   -1    0    0    0    0 -0.00000000000E+00 -0.00000000000E+00 -0.74505805969E-08  0.93827000000E+00  0.93827000000E+00 0.  1.
     999902    2    1    2    0    0  0.62234812109E-02 -0.48688310830E-02  0.22492154467E-01  0.10200902381E+01  0.10198116295E+01 0.  0.
     999903    2    3    3    0    0 -0.98005636250E-02  0.28176999120E-01 -0.12236421556E+00  0.12749169182E+00  0.19777156186E-01 0.  0.
         14    1    1    2    0    0 -0.62234812109E-02  0.48688310830E-02 -0.22492154467E-01  0.23839761892E-01  0.00000000000E+00 0. -1.
     999901    1    3    3    0    0  0.16024044836E-01 -0.33045830203E-01  0.14485637002E+00  0.89259854629E+00  0.88000000000E+00 0. -1.
        -11    1    4    4    0    0 -0.60428489480E-02  0.27918791852E-01 -0.79837013501E-01  0.84794957442E-01  0.51100000000E-03 0. -1.
         11    1    4    4    0    0 -0.37577146770E-02  0.25820726811E-03 -0.42527202055E-01  0.42696734374E-01  0.51100000000E-03 0.  1.
</event>
<event>
 8    1  0.1163913E+005  0.1043930E+01  0.7957747E-01            NaN
         13   -1    0    0    0    0  0.00000000000E+00  0.00000000000E+00  0.74505805969E-08  0.10566000000E+00  0.10566000000E+00 0.  1.
     999900   -1    0    0    0    0 -0.00000000000E+00 -0.00000000000E+00 -0.74505805969E-08  0.93827000000E+00  0.93827000000E+00 0.  1.
     999902    2    1    2    0    0  0.53894778347E-02  0.33622462804E-02 -0.21457733775E-01  0.10215517626E+01  0.10213066230E+01 0.  0.
     999903    2    3    3    0    0  0.78472233356E-01  0.10466834715E+00  0.59051267303E-03  0.13245663808E+00  0.20761935440E-01 0.  0.
         14    1    1    2    0    0 -0.53894778347E-02 -0.33622462804E-02  0.21457733775E-01  0.22378237423E-01  0.00000000000E+00 0.  1.
     999901    1    3    3    0    0 -0.73082755521E-01 -0.10130610087E+00 -0.22048246448E-01  0.88909512449E+00  0.88000000000E+00 0.  1.
        -11    1    4    4    0    0  0.47139011062E-01  0.70130380379E-01  0.93071089108E-02  0.85013175528E-01  0.51100000000E-03 0. -1.
         11    1    4    4    0    0  0.31333222294E-01  0.34537966775E-01 -0.87165962378E-02  0.47443462555E-01  0.51100000000E-03 0.  1.
</event>
<event>
 8    1  0.1163913E+005  0.1043930E+01  0.7957747E-01            NaN
         13   -1    0    0    0    0  0.00000000000E+00  0.00000000000E+00  0.74505805969E-08  0.10566000000E+00  0.10566000000E+00 0. -1.
     999900   -1    0    0    0    0 -0.00000000000E+00 -0.00000000000E+00 -0.74505805969E-08  0.93827000000E+00  0.93827000000E+00 0. -1.
     999902    2    1    2    0    0  0.12587950739E-01  0.18493304349E-01  0.88478153633E-02  0.10198729294E+01  0.10195891572E+01 0.  0.
     999903    2    3    3    0    0  0.14338699922E-02  0.12697690079E+00  0.33044021206E-01  0.13281117247E+00  0.20535600292E-01 0.  0.
         14    1    1    2    0    0 -0.12587950739E-01 -0.18493304349E-01 -0.88478153633E-02  0.24057070608E-01  0.00000000000E+00 0.  1.
     999901    1    3    3    0    0  0.11154080747E-01 -0.10848359644E+00 -0.24196205842E-01  0.88706175692E+00  0.88000000000E+00 0. -1.
        -11    1    4    4    0    0 -0.47684071471E-02  0.10836573017E+00  0.23495047001E-01  0.11098715032E+00  0.51100000000E-03 0.  1.
         11    1    4    4    0    0  0.62022771393E-02  0.18611170617E-01  0.95489742048E-02  0.21824022150E-01  0.51100000000E-03 0. -1.
</event>
<event>
 8    1  0.1163913E+005  0.1043930E+01  0.7957747E-01            NaN
         13   -1    0    0    0    0  0.00000000000E+00  0.00000000000E+00  0.74505805969E-08  0.10566000000E+00  0.10566000000E+00 0. -1.
     999900   -1    0    0    0    0 -0.00000000000E+00 -0.00000000000E+00 -0.74505805969E-08  0.93827000000E+00  0.93827000000E+00 0.  1.
     999902    2    1    2    0    0 -0.21665385517E-01 -0.96640204080E-02 -0.38239874485E-02  0.10199007449E+01  0.10196176364E+01 0.  0.
     999903    2    3    3    0    0 -0.55701629300E-02 -0.68985699196E-01 -0.10995963934E+00  0.13139475486E+00  0.19580753573E-01 0.  0.
         14    1    1    2    0    0  0.21665385517E-01  0.96640204080E-02  0.38239874485E-02  0.24029255087E-01  0.00000000000E+00 0. -1.
     999901    1    3    3    0    0 -0.16095222587E-01  0.59321678788E-01  0.10613565189E+00  0.88850599006E+00  0.88000000000E+00 0. -1.
        -11    1    4    4    0    0  0.46707625860E-02 -0.21984822310E-01 -0.47547250065E-01  0.52594206381E-01  0.51100000000E-03 0.  1.
         11    1    4    4    0    0 -0.10240925516E-01 -0.47000876885E-01 -0.62412389279E-01  0.78800548474E-01  0.51100000000E-03 0. -1.
</event>
<event>
 8    1  0.1163913E+005  0.1043930E+01  0.7957747E-01            NaN
         13   -1    0    0    0    0  0.00000000000E+00  0.00000000000E+00  0.74505805969E-08  0.10566000000E+00  0.10566000000E+00 0. -1.
     999900   -1    0    0    0    0 -0.00000000000E+00 -0.00000000000E+00 -0.74505805969E-08  0.93827000000E+00  0.93827000000E+00 0.  1.
     999902    2    1    2    0    0 -0.46609850054E-02  0.15238625499E-01  0.17170682459E-01  0.10205040993E+01  0.10202351904E+01 0.  0.
     999903    2    3    3    0    0 -0.10213029123E+00  0.93490669610E-02 -0.77451458616E-01  0.13006134304E+00  0.19980567391E-01 0.  0.
         14    1    1    2    0    0  0.46609850054E-02 -0.15238625499E-01 -0.17170682459E-01  0.23425900718E-01  0.00000000000E+00 0.  1.
     999901    1    3    3    0    0  0.97469306222E-01  0.58895585381E-02  0.94622141076E-01  0.89044275624E+00  0.88000000000E+00 0. -1.
        -11    1    4    4    0    0 -0.39269361062E-01  0.42723603126E-02 -0.18083007611E-01  0.43446427541E-01  0.51100000000E-03 0. -1.
         11    1    4    4    0    0 -0.62860930166E-01  0.50767066484E-02 -0.59368451005E-01  0.86614915503E-01  0.51100000000E-03 0.  1.
</event>
<event>
 8    1  0.1163913E+005  0.1043930E+01  0.7957747E-01            NaN
         13   -1    0    0    0    0  0.00000000000E+00  0.00000000000E+00  0.74505805969E-08  0.10566000000E+00  0.10566000000E+00 0.  1.
     999900   -1    0    0    0    0 -0.00000000000E+00 -0.00000000000E+00 -0.74505805969E-08  0.93827000000E+00  0.93827000000E+00 0. -1.
     999902    2    1    2    0    0  0.18956847837E-02  0.21635238647E-01  0.90447966431E-02  0.10204037271E+01  0.10201324819E+01 0.  0.
     999903    2    3    3    0    0 -0.11540976510E+00 -0.15295091570E-01 -0.53723288973E-01  0.12963762396E+00  0.19140743495E-01 0.  0.
         14    1    1    2    0    0 -0.18956847837E-02 -0.21635238647E-01 -0.90447966431E-02  0.23526272939E-01  0.00000000000E+00 0.  1.
     999901    1    3    3    0    0  0.11730544988E+00  0.36930330217E-01  0.62768085616E-01  0.89076610310E+00  0.88000000000E+00 0.  1.
        -11    1    4    4    0    0 -0.40076305431E-01 -0.74062645084E-02 -0.92319884436E-02  0.41790593949E-01  0.51100000000E-03 0.  1.
         11    1    4    4    0    0 -0.75333459667E-01 -0.78888270614E-02 -0.44491300530E-01  0.87847030011E-01  0.51100000000E-03 0. -1.
</event>
<event>
 8    1  0.1163913E+005  0.1043930E+01  0.7957747E-01            NaN
         13   -1    0    0    0    0  0.00000000000E+00  0.00000000000E+00  0.74505805969E-08  0.10566000000E+00  0.10566000000E+00 0.  1.
     999900   -1    0    0    0    0 -0.00000000000E+00 -0.00000000000E+00 -0.74505805969E-08  0.93827000000E+00  0.93827000000E+00 0. -1.
     999902    2    1    2    0    0 -0.15660820989E-01  0.97636088209E-02  0.22512600535E-01  0.10148197517E+01  0.10144021500E+01 0.  0.
     999903    2    3    3    0    0  0.98337535907E-01 -0.51798396277E-01  0.53301202534E-01  0.12480096325E+00  0.19517105593E-01 0.  0.
         14    1    1    2    0    0  0.15660820989E-01 -0.97636088209E-02 -0.22512600535E-01  0.29110248266E-01  0.00000000000E+00 0. -1.
     999901    1    3    3    0    0 -0.11399835690E+00  0.61562005098E-01 -0.30788601999E-01  0.89001878849E+00  0.88000000000E+00 0. -1.
        -11    1    4    4    0    0  0.67112042145E-01 -0.26291141831E-01  0.39425755388E-01  0.82157785075E-01  0.51100000000E-03 0. -1.
         11    1    4    4    0    0  0.31225493762E-01 -0.25507254447E-01  0.13875447146E-01  0.42643178172E-01  0.51100000000E-03 0.  1.
</event>
<event>
 8    1  0.1163913E+005  0.1043930E+01  0.7957747E-01            NaN
         13   -1    0    0    0    0  0.00000000000E+00  0.00000000000E+00  0.74505805969E-08  0.10566000000E+00  0.10566000000E+00 0.  1.
     999900   -1    0    0    0    0 -0.00000000000E+00 -0.00000000000E+00 -0.74505805969E-08  0.93827000000E+00  0.93827000000E+00 0.  1.
     999902    2    1    2    0    0  0.18042111550E-01  0.12257966083E-01 -0.52662960743E-02  0.10214909850E+01  0.10212444971E+01 0.  0.
     999903    2    3    3    0    0 -0.97658960456E-01 -0.32664866964E-01 -0.76711887492E-01  0.12991413941E+00  0.19715573646E-01 0.  0.
         14    1    1    2    0    0 -0.18042111550E-01 -0.12257966083E-01  0.52662960743E-02  0.22439015041E-01  0.00000000000E+00 0.  1.
     999901    1    3    3    0    0  0.11570107201E+00  0.44922833046E-01  0.71445591417E-01  0.89157684555E+00  0.88000000000E+00 0.  1.
        -11    1    4    4    0    0 -0.74700656029E-01 -0.16992288653E-01 -0.61364671370E-01  0.98157067490E-01  0.51100000000E-03 0.  1.
         11    1    4    4    0    0 -0.22958304427E-01 -0.15672578310E-01 -0.15347216122E-01  0.31757071917E-01  0.51100000000E-03 0. -1.
</event>
<event>
 8    1  0.1163913E+005  0.1043930E+01  0.7957747E-01            NaN
         13   -1    0    0    0    0  0.00000000000E+00  0.00000000000E+00  0.74505805969E-08  0.10566000000E+00  0.10566000000E+00 0. -1.
     999900   -1    0    0    0    0 -0.00000000000E+00 -0.00000000000E+00 -0.74505805969E-08  0.93827000000E+00  0.93827000000E+00 0. -1.
     999902    2    1    2    0    0 -0.15203725471E-01  0.17949783528E-01 -0.47629510476E-03  0.10204018285E+01  0.10201305391E+01 0.  0.
     999903    2    3    3    0    0 -0.99263821878E-01 -0.43798934564E-01 -0.71047996289E-01  0.13143649228E+00  0.21356046556E-01 0.  0.
         14    1    1    2    0    0  0.15203725471E-01 -0.17949783528E-01  0.47629510476E-03  0.23528171496E-01  0.00000000000E+00 0. -1.
     999901    1    3    3    0    0  0.84060096407E-01  0.61748718092E-01  0.70571701184E-01  0.88896533622E+00  0.88000000000E+00 0.  1.
        -11    1    4    4    0    0 -0.42230521028E-01 -0.15378006298E-01 -0.41575731605E-01  0.61226649128E-01  0.51100000000E-03 0.  1.
         11    1    4    4    0    0 -0.57033300850E-01 -0.28420928266E-01 -0.29472264684E-01  0.70209843155E-01  0.51100000000E-03 0. -1.
</event>
<event>
 8    1  0.1163913E+005  0.1043930E+01  0.7957747E-01            NaN
         13   -1    0    0    0    0  0.00000000000E+00  0.00000000000E+00  0.74505805969E-08  0.10566000000E+00  0.10566000000E+00 0. -1.
     999900   -1    0    0    0    0 -0.00000000000E+00 -0.00000000000E+00 -0.74505805969E-08  0.93827000000E+00  0.93827000000E+00 0.  1.
     999902    2    1    2    0    0  0.11992983818E-01  0.14351207771E-01 -0.14549906316E-01  0.10202342493E+01  0.10199590359E+01 0.  0.
     999903    2    3    3    0    0  0.13796531986E-01 -0.40733868606E-01  0.11928226051E+00  0.12841102286E+00  0.20286467734E-01 0.  0.
         14    1    1    2    0    0 -0.11992983818E-01 -0.14351207771E-01  0.14549906316E-01  0.23695750656E-01  0.00000000000E+00 0. -1.
     999901    1    3    3    0    0 -0.18035481681E-02  0.55085076376E-01 -0.13383216682E+00  0.89182322649E+00  0.88000000000E+00 0.  1.
        -11    1    4    4    0    0  0.11671012537E-01 -0.29443159274E-01  0.58258912726E-01  0.66313454100E-01  0.51100000000E-03 0.  1.
         11    1    4    4    0    0  0.21255194491E-02 -0.11290709332E-01  0.61023347781E-01  0.62097568757E-01  0.51100000000E-03 0. -1.
</event>
<event>
 8    1  0.1163913E+005  0.1043930E+01  0.7957747E-01            NaN
         13   -1    0    0    0    0  0.00000000000E+00  0.00000000000E+00  0.74505805969E-08  0.10566000000E+00  0.10566000000E+00 0.  1.
     999900   -1    0    0    0    0 -0.00000000000E+00 -0.00000000000E+00 -0.74505805969E-08  0.93827000000E+00  0.93827000000E+00 0.  1.
     999902    2    1    2    0    0  0.33101559415E-02 -0.19988645309E-01  0.13996836719E-01  0.10193045150E+01  0.10190070067E+01 0.  0.
     999903    2    3    3    0    0 -0.86946356935E-01  0.14002795830E-01 -0.90658146688E-01  0.12787065781E+00  0.19397378475E-01 0.  0.
         14    1    1    2    0    0 -0.33101559415E-02  0.19988645309E-01 -0.13996836719E-01  0.24625485006E-01  0.00000000000E+00 0. -1.
     999901    1    3    3    0    0  0.90256512876E-01 -0.33991441139E-01  0.10465498341E+00  0.89143385719E+00  0.88000000000E+00 0. -1.
        -11    1    4    4    0    0 -0.69885348131E-01  0.18903929543E-01 -0.71704664923E-01  0.10189769638E+00  0.51100000000E-03 0. -1.
         11    1    4    4    0    0 -0.17061008803E-01 -0.49011337126E-02 -0.18953481765E-01  0.25972961423E-01  0.51100000000E-03 0.  1.
</event>
<event>
 8    1  0.1163913E+005  0.1043930E+01  0.7957747E-01            NaN
         13   -1    0    0    0    0  0.00000000000E+00  0.00000000000E+00  0.74505805969E-08  0.10566000000E+00  0.10566000000E+00 0.  1.
     999900   -1    0    0    0    0 -0.00000000000E+00 -0.00000000000E+00 -0.74505805969E-08  0.93827000000E+00  0.93827000000E+00 0.  1.
     999902    2    1    2    0    0  0.18228244440E-02 -0.22657236837E-03  0.24764906216E-01  0.10190970661E+01  0.10187944619E+01 0.  0.
     999903    2    3    3    0    0  0.11844576128E+00  0.48588910063E-01 -0.47062088427E-02  0.12957336925E+00  0.19412085641E-01 0.  0.
         14    1    1    2    0    0 -0.18228244440E-02  0.22657236837E-03 -0.24764906216E-01  0.24832933856E-01  0.00000000000E+00 0. -1.
     999901    1    3    3    0    0 -0.11662293684E+00 -0.48815482432E-01  0.29471115059E-01  0.88952369690E+00  0.88000000000E+00 0. -1.
        -11    1    4    4    0    0  0.44599532791E-01  0.26803919835E-01 -0.72364719992E-02  0.52537568384E-01  0.51100000000E-03 0.  1.
         11    1    4    4    0    0  0.73846228492E-01  0.21784990228E-01  0.25302631565E-02  0.77035800862E-01  0.51100000000E-03 0. -1.
</event>
<event>
 8    1  0.1163913E+005  0.1043930E+01  0.7957747E-01            NaN
         13   -1    0    0    0    0  0.00000000000E+00  0.00000000000E+00  0.74505805969E-08  0.10566000000E+00  0.10566000000E+00 0. -1.
     999900   -1    0    0    0    0 -0.00000000000E+00 -0.00000000000E+00 -0.74505805969E-08  0.93827000000E+00  0.93827000000E+00 0. -1.
     999902    2    1    2    0    0 -0.48869584366E-02 -0.20478346330E-01  0.10900752565E-01  0.10202219542E+01  0.10199464517E+01 0.  0.
     999903    2    3    3    0    0  0.11048291962E+00  0.42776896456E-01  0.48642360444E-01  0.12964019852E+00  0.20103816661E-01 0.  0.
         14    1    1    2    0    0  0.48869584366E-02  0.20478346330E-01 -0.10900752565E-01  0.23708045843E-01  0.00000000000E+00 0.  1.
     999901    1    3    3    0    0 -0.11536987806E+00 -0.63255242786E-01 -0.37741607879E-01  0.89058175563E+00  0.88000000000E+00 0. -1.
        -11    1    4    4    0    0  0.50857148338E-01  0.10425782460E-01  0.15790134623E-01  0.54265421304E-01  0.51100000000E-03 0.  1.
         11    1    4    4    0    0  0.59625771287E-01  0.32351113996E-01  0.32852225821E-01  0.75374777218E-01  0.51100000000E-03 0. -1.
</event>
<event>
 8    1  0.1163913E+005  0.1043930E+01  0.7957747E-01            NaN
         13   -1    0    0    0    0  0.00000000000E+00  0.00000000000E+00  0.74505805969E-08  0.10566000000E+00  0.10566000000E+00 0.  1.
     999900   -1    0    0    0    0 -0.00000000000E+00 -0.00000000000E+00 -0.74505805969E-08  0.93827000000E+00  0.93827000000E+00 0.  1.
     999902    2    1    2    0    0  0.12671955249E-01 -0.48252025884E-02  0.12764351626E-01  0.10253077095E+01  0.10251385806E+01 0.  0.
     999903    2    3    3    0    0 -0.11146211993E+00  0.69771985593E-01  0.11462125698E-01  0.13346932457E+00  0.19767299296E-01 0.  0.
         14    1    1    2    0    0 -0.12671955249E-01  0.48252025884E-02 -0.12764351626E-01  0.18622290469E-01  0.00000000000E+00 0.  1.
     999901    1    3    3    0    0  0.12413407518E+00 -0.74597188181E-01  0.13022259283E-02  0.89183838497E+00  0.88000000000E+00 0.  1.
        -11    1    4    4    0    0 -0.30724351014E-01  0.12400874762E-01 -0.34122881367E-02  0.33311743747E-01  0.51100000000E-03 0. -1.
         11    1    4    4    0    0 -0.80737768917E-01  0.57371110831E-01  0.14874413835E-01  0.10015758082E+00  0.51100000000E-03 0.  1.
</event>
<event>
 8    1  0.1163913E+005  0.1043930E+01  0.7957747E-01            NaN
         13   -1    0    0    0    0  0.00000000000E+00  0.00000000000E+00  0.74505805969E-08  0.10566000000E+00  0.10566000000E+00 0.  1.
     999900   -1    0    0    0    0 -0.00000000000E+00 -0.00000000000E+00 -0.74505805969E-08  0.93827000000E+00  0.93827000000E+00 0. -1.
     999902    2    1    2    0    0 -0.15555197630E-01  0.15930826618E-01 -0.80850059948E-02  0.10202419707E+01  0.10199669387E+01 0.  0.
     999903    2    3    3    0    0  0.50548854681E-01  0.82899716963E-01  0.84819525212E-01  0.13036229910E+00  0.19298377866E-01 0.  0.
         14    1    1    2    0    0  0.15555197630E-01 -0.15930826618E-01  0.80850059948E-02  0.23688029297E-01  0.00000000000E+00 0.  1.
     999901    1    3    3    0    0 -0.66104052312E-01 -0.66968890345E-01 -0.92904531207E-01  0.88987967160E+00  0.88000000000E+00 0. -1.
        -11    1    4    4    0    0  0.31655176703E-01  0.66455159587E-01  0.67781277719E-01  0.10006448510E+00  0.51100000000E-03 0.  1.
         11    1    4    4    0    0  0.18893677979E-01  0.16444557376E-01  0.17038247494E-01  0.30297814006E-01  0.51100000000E-03 0. -1.
</event>
<event>
 8    1  0.1163913E+005  0.1043930E+01  0.7957747E-01            NaN
         13   -1    0    0    0    0  0.00000000000E+00  0.00000000000E+00  0.74505805969E-08  0.10566000000E+00  0.10566000000E+00 0.  1.
     999900   -1    0    0    0    0 -0.00000000000E+00 -0.00000000000E+00 -0.74505805969E-08  0.93827000000E+00  0.93827000000E+00 0.  1.
     999902    2    1    2    0    0  0.21413532858E-01  0.48598438966E-02 -0.88951204537E-02  0.10202386379E+01  0.10199635276E+01 0.  0.
     999903    2    3    3    0    0 -0.70301995873E-01  0.90830982601E-02 -0.10704109046E+00  0.13003517487E+00  0.20651352452E-01 0.  0.
         14    1    1    2    0    0 -0.21413532858E-01 -0.48598438966E-02  0.88951204537E-02  0.23691362140E-01  0.00000000000E+00 0.  1.
     999901    1    3    3    0    0  0.91715528731E-01 -0.42232543635E-02  0.98145970011E-01  0.89020346299E+00  0.88000000000E+00 0. -1.
        -11    1    4    4    0    0 -0.30668920014E-01  0.13967856882E-01 -0.53698917016E-01  0.63399672636E-01  0.51100000000E-03 0.  1.
         11    1    4    4    0    0 -0.39633075859E-01 -0.48847586216E-02 -0.53342173449E-01  0.66635502235E-01  0.51100000000E-03 0. -1.
</event>
<event>
 8    1  0.1163913E+005  0.1043930E+01  0.7957747E-01            NaN
         13   -1    0    0    0    0  0.00000000000E+00  0.00000000000E+00  0.74505805969E-08  0.10566000000E+00  0.10566000000E+00 0. -1.
     999900   -1    0    0    0    0 -0.00000000000E+00 -0.00000000000E+00 -0.74505805969E-08  0.93827000000E+00  0.93827000000E+00 0.  1.
     999902    2    1    2    0    0  0.17674919240E-01  0.15444752049E-01  0.30458667313E-02  0.10202610237E+01  0.10199864391E+01 0.  0.
     999903    2    3    3    0    0  0.10388235527E+00  0.44358183525E-01  0.67747913891E-01  0.13321307489E+00  0.19918616983E-01 0.  0.
         14    1    1    2    0    0 -0.17674919240E-01 -0.15444752049E-01 -0.30458667313E-02  0.23668976322E-01  0.00000000000E+00 0. -1.
     999901    1    3    3    0    0 -0.86207436029E-01 -0.28913431476E-01 -0.64702047160E-01  0.88704794879E+00  0.88000000000E+00 0. -1.
        -11    1    4    4    0    0  0.59850899367E-01  0.27774855575E-01  0.28240065771E-01  0.71772802600E-01  0.51100000000E-03 0.  1.
         11    1    4    4    0    0  0.44031455902E-01  0.16583327950E-01  0.39507848120E-01  0.61440272288E-01  0.51100000000E-03 0. -1.
</event>
<event>
 8    1  0.1163913E+005  0.1043930E+01  0.7957747E-01            NaN
         13   -1    0    0    0    0  0.00000000000E+00  0.00000000000E+00  0.74505805969E-08  0.10566000000E+00  0.10566000000E+00 0. -1.
     999900   -1    0    0    0    0 -0.00000000000E+00 -0.00000000000E+00 -0.74505805969E-08  0.93827000000E+00  0.93827000000E+00 0.  1.
     999902    2    1    2    0    0  0.26991563154E-02 -0.22797521722E-01 -0.26450904225E-02  0.10208213664E+01  0.10205597745E+01 0.  0.
     999903    2    3    3    0    0  0.43391878309E-01 -0.12215004864E+00  0.25702031435E-01  0.13384313585E+00  0.21210872410E-01 0.  0.
         14    1    1    2    0    0 -0.26991563154E-02  0.22797521722E-01  0.26450904225E-02  0.23108633556E-01  0.00000000000E+00 0.  1.
     999901    1    3    3    0    0 -0.40692721994E-01  0.99352526919E-01 -0.28347121858E-01  0.88697823059E+00  0.88000000000E+00 0.  1.
        -11    1    4    4    0    0  0.31466502144E-01 -0.10873498656E+00  0.19625818019E-01  0.11488634346E+00  0.51100000000E-03 0. -1.
         11    1    4    4    0    0  0.11925376165E-01 -0.13415062079E-01  0.60762134160E-02  0.18956792390E-01  0.51100000000E-03 0.  1.
</event>
<event>
 8    1  0.1163913E+005  0.1043930E+01  0.7957747E-01            NaN
         13   -1    0    0    0    0  0.00000000000E+00  0.00000000000E+00  0.74505805969E-08  0.10566000000E+00  0.10566000000E+00 0. -1.
     999900   -1    0    0    0    0 -0.00000000000E+00 -0.00000000000E+00 -0.74505805969E-08  0.93827000000E+00  0.93827000000E+00 0. -1.
     999902    2    1    2    0    0 -0.35901346328E-02  0.29870184634E-02  0.23180663540E-01  0.10202835519E+01  0.10200094959E+01 0.  0.
     999903    2    3    3    0    0 -0.83108856741E-01  0.72150215077E-01  0.70750369301E-01  0.13271966583E+00  0.22274634400E-01 0.  0.
         14    1    1    2    0    0  0.35901346328E-02 -0.29870184634E-02 -0.23180663540E-01  0.23646448109E-01  0.00000000000E+00 0.  1.
     999901    1    3    3    0    0  0.79518722108E-01 -0.69163196613E-01 -0.47569705761E-01  0.88756388606E+00  0.88000000000E+00 0.  1.
        -11    1    4    4    0    0 -0.42461679671E-01  0.26404057052E-01  0.22716551325E-01  0.54922411586E-01  0.51100000000E-03 0.  1.
         11    1    4    4    0    0 -0.40647177071E-01  0.45746158024E-01  0.48033817976E-01  0.77797254246E-01  0.51100000000E-03 0. -1.
</event>
<event>
 8    1  0.1163913E+005  0.1043930E+01  0.7957747E-01            NaN
         13   -1    0    0    0    0  0.00000000000E+00  0.00000000000E+00  0.74505805969E-08  0.10566000000E+00  0.10566000000E+00 0. -1.
     999900   -1    0    0    0    0 -0.00000000000E+00 -0.00000000000E+00 -0.74505805969E-08  0.93827000000E+00  0.93827000000E+00 0.  1.
     999902    2    1    2    0    0  0.13287942657E-01 -0.87959002576E-02  0.17255403577E-01  0.10204419981E+01  0.10201716450E+01 0.  0.
     999903    2    3    3    0    0 -0.93839202516E-01  0.84567193779E-01 -0.13255477405E-01  0.12852058539E+00  0.19606809929E-01 0.  0.
         14    1    1    2    0    0 -0.13287942657E-01  0.87959002576E-02 -0.17255403577E-01  0.23488001916E-01  0.00000000000E+00 0.  1.
     999901    1    3    3    0    0  0.10712714517E+00 -0.93363094037E-01  0.30510880983E-01  0.89192141269E+00  0.88000000000E+00 0. -1.
        -11    1    4    4    0    0 -0.85657509209E-01  0.83054307154E-01 -0.10650536635E-01  0.11978698540E+00  0.51100000000E-03 0.  1.
         11    1    4    4    0    0 -0.81816933073E-02  0.15128866252E-02 -0.26049407704E-02  0.87335999870E-02  0.51100000000E-03 0. -1.
</event>
<event>
 8    1  0.1163913E+005  0.1043930E+01  0.7957747E-01            NaN
         13   -1    0    0    0    0  0.00000000000E+00  0.00000000000E+00  0.74505805969E-08  0.10566000000E+00  0.10566000000E+00 0.  1.
     999900   -1    0    0    0    0 -0.00000000000E+00 -0.00000000000E+00 -0.74505805969E-08  0.93827000000E+00  0.93827000000E+00 0.  1.
     999902    2    1    2    0    0 -0.25869575866E-01  0.22347340441E-01  0.83126994266E-02  0.10087484771E+01  0.10081347879E+01 0.  0.
     999903    2    3    3    0    0  0.69997169067E-01  0.92486360966E-01  0.26244157333E-01  0.12058663817E+00  0.19976257638E-01 0.  0.
         14    1    1    2    0    0  0.25869575866E-01 -0.22347340441E-01 -0.83126994266E-02  0.35181522879E-01  0.00000000000E+00 0.  1.
     999901    1    3    3    0    0 -0.95866744933E-01 -0.70139020525E-01 -0.17931457906E-01  0.88816183895E+00  0.88000000000E+00 0.  1.
        -11    1    4    4    0    0  0.39488407639E-01  0.38631112827E-01  0.65549748359E-02  0.55632059392E-01  0.51100000000E-03 0.  1.
         11    1    4    4    0    0  0.30508761428E-01  0.53855248139E-01  0.19689182497E-01  0.64954578780E-01  0.51100000000E-03 0. -1.
</event>
<event>
 8    1  0.1163913E+005  0.1043930E+01  0.7957747E-01            NaN
         13   -1    0    0    0    0  0.00000000000E+00  0.00000000000E+00  0.74505805969E-08  0.10566000000E+00  0.10566000000E+00 0.  1.
     999900   -1    0    0    0    0 -0.00000000000E+00 -0.00000000000E+00 -0.74505805969E-08  0.93827000000E+00  0.93827000000E+00 0. -1.
     999902    2    1    2    0    0 -0.94705662626E-02  0.19222845654E-01 -0.86658467956E-02  0.10208149330E+01  0.10205531937E+01 0.  0.
     999903    2    3    3    0    0 -0.37596811880E-01  0.40315561813E-01  0.11759406215E+00  0.13110849101E+00  0.17950158030E-01 0.  0.
         14    1    1    2    0    0  0.94705662626E-02 -0.19222845654E-01  0.86658467956E-02  0.23115066971E-01  0.00000000000E+00 0.  1.
     999901    1    3    3    0    0  0.28126245617E-01 -0.21092716159E-01 -0.12625990895E+00  0.88970644202E+00  0.88000000000E+00 0. -1.
        -11    1    4    4    0    0 -0.12878368299E-01  0.25688769802E-01  0.67467933976E-01  0.73334497339E-01  0.51100000000E-03 0.  1.
         11    1    4    4    0    0 -0.24718443581E-01  0.14626792010E-01  0.50126128175E-01  0.57773993669E-01  0.51100000000E-03 0. -1.
</event>
<event>
 8    1  0.1163913E+005  0.1043930E+01  0.7957747E-01            NaN
         13   -1    0    0    0    0  0.00000000000E+00  0.00000000000E+00  0.74505805969E-08  0.10566000000E+00  0.10566000000E+00 0. -1.
     999900   -1    0    0    0    0 -0.00000000000E+00 -0.00000000000E+00 -0.74505805969E-08  0.93827000000E+00  0.93827000000E+00 0. -1.
     999902    2    1    2    0    0 -0.16610841628E-01  0.67623863913E-02 -0.17437061306E-01  0.10189159832E+01  0.10186088944E+01 0.  0.
     999903    2    3    3    0    0 -0.97403021194E-01  0.86049269641E-01 -0.56131517517E-02  0.13158651172E+00  0.19790837516E-01 0.  0.
         14    1    1    2    0    0  0.16610841628E-01 -0.67623863913E-02  0.17437061306E-01  0.25014016796E-01  0.00000000000E+00 0. -1.
     999901    1    3    3    0    0  0.80792179566E-01 -0.79286883250E-01 -0.11823909554E-01  0.88732947149E+00  0.88000000000E+00 0. -1.
        -11    1    4    4    0    0 -0.91903419762E-02  0.14878776372E-01 -0.51610453361E-02  0.18241104186E-01  0.51100000000E-03 0. -1.
         11    1    4    4    0    0 -0.88212679218E-01  0.71170493269E-01 -0.45210641556E-03  0.11334540753E+00  0.51100000000E-03 0.  1.
</event>
<event>
 8    1  0.1163913E+005  0.1043930E+01  0.7957747E-01            NaN
         13   -1    0    0    0    0  0.00000000000E+00  0.00000000000E+00  0.74505805969E-08  0.10566000000E+00  0.10566000000E+00 0.  1.
     999900   -1    0    0    0    0 -0.00000000000E+00 -0.00000000000E+00 -0.74505805969E-08  0.93827000000E+00  0.93827000000E+00 0. -1.
     999902    2    1    2    0    0 -0.58749204628E-02 -0.17738257079E-01  0.14087985784E-01  0.10205284659E+01  0.10202601227E+01 0.  0.
     999903    2    3    3    0    0 -0.23991690492E-01 -0.39157643935E-02 -0.12502373689E+00  0.12930944117E+00  0.22339703823E-01 0.  0.
         14    1    1    2    0    0  0.58749204628E-02  0.17738257079E-01 -0.14087985784E-01  0.23401534097E-01  0.00000000000E+00 0. -1.
     999901    1    3    3    0    0  0.18116770029E-01 -0.13822492686E-01  0.13911172267E+00  0.89121902473E+00  0.88000000000E+00 0.  1.
        -11    1    4    4    0    0 -0.27212712333E-01  0.42517218261E-03 -0.11051616116E+00  0.11381913496E+00  0.51100000000E-03 0.  1.
         11    1    4    4    0    0  0.32210218417E-02 -0.43409365761E-02 -0.14507575730E-01  0.15490306215E-01  0.51100000000E-03 0. -1.
</event>
<event>
 8    1  0.1163913E+005  0.1043930E+01  0.7957747E-01            NaN
         13   -1    0    0    0    0  0.00000000000E+00  0.00000000000E+00  0.74505805969E-08  0.10566000000E+00  0.10566000000E+00 0.  1.
     999900   -1    0    0    0    0 -0.00000000000E+00 -0.00000000000E+00 -0.74505805969E-08  0.93827000000E+00  0.93827000000E+00 0.  1.
     999902    2    1    2    0    0 -0.40314585577E-02 -0.14705157239E-01  0.19466827580E-01  0.10192024509E+01  0.10189024410E+01 0.  0.
     999903    2    3    3    0    0 -0.79167239881E-01 -0.93325625833E-01 -0.40559861883E-01  0.13047877780E+00  0.20062022634E-01 0.  0.
         14    1    1    2    0    0  0.40314585577E-02  0.14705157239E-01 -0.19466827580E-01  0.24727549081E-01  0.00000000000E+00 0. -1.
     999901    1    3    3    0    0  0.75135781323E-01  0.78620468594E-01  0.60026689463E-01  0.88872367312E+00  0.88000000000E+00 0. -1.
        -11    1    4    4    0    0 -0.28162984350E-01 -0.29327624580E-01 -0.40451763301E-02  0.40864260956E-01  0.51100000000E-03 0. -1.
         11    1    4    4    0    0 -0.51004255532E-01 -0.63998001253E-01 -0.36514685553E-01  0.89614516842E-01  0.51100000000E-03 0.  1.
</event>
<event>
 8    1  0.1163913E+005  0.1043930E+01  0.7957747E-01            NaN
         13   -1    0    0    0    0  0.00000000000E+00  0.00000000000E+00  0.74505805969E-08  0.10566000000E+00  0.10566000000E+00 0. -1.
     999900   -1    0    0    0    0 -0.00000000000E+00 -0.00000000000E+00 -0.74505805969E-08  0.93827000000E+00  0.93827000000E+00 0.  1.
     999902    2    1    2    0    0  0.19025781424E-01  0.96283094090E-02  0.11660635130E-01  0.10196266029E+01  0.10193369189E+01 0.  0.
     999903    2    3    3    0    0 -0.65467975245E-01 -0.41722382767E-02  0.11038540023E+00  0.12997710487E+00  0.20140701392E-01 0.  0.
         14    1    1    2    0    0 -0.19025781424E-01 -0.96283094090E-02 -0.11660635130E-01  0.24303397139E-01  0.00000000000E+00 0.  1.
     999901    1    3    3    0    0  0.84493756669E-01  0.13800547686E-01 -0.98724765096E-01  0.88964949799E+00  0.88000000000E+00 0.  1.
        -11    1    4    4    0    0 -0.18930736117E-01  0.74031174064E-02  0.38924830808E-01  0.43915629242E-01  0.51100000000E-03 0.  1.
         11    1    4    4    0    0 -0.46537239128E-01 -0.11575355683E-01  0.71460569417E-01  0.86061475628E-01  0.51100000000E-03 0. -1.
</event>
<event>
 8    1  0.1163913E+005  0.1043930E+01  0.7957747E-01            NaN
         13   -1    0    0    0    0  0.00000000000E+00  0.00000000000E+00  0.74505805969E-08  0.10566000000E+00  0.10566000000E+00 0. -1.
     999900   -1    0    0    0    0 -0.00000000000E+00 -0.00000000000E+00 -0.74505805969E-08  0.93827000000E+00  0.93827000000E+00 0.  1.
     999902    2    1    2    0    0  0.21415632115E-01  0.92663739534E-02  0.33953515488E-03  0.10205931135E+01  0.10203262680E+01 0.  0.
     999903    2    3    3    0    0 -0.39839801512E-01  0.93588989122E-01  0.79938662100E-01  0.13087487018E+00  0.19797304774E-01 0.  0.
         14    1    1    2    0    0 -0.21415632115E-01 -0.92663739534E-02 -0.33953515488E-03  0.23336886451E-01  0.00000000000E+00 0. -1.
     999901    1    3    3    0    0  0.61255433627E-01 -0.84322615168E-01 -0.79599126945E-01  0.88971824337E+00  0.88000000000E+00 0.  1.
        -11    1    4    4    0    0 -0.16371908201E-01  0.53023141413E-01  0.33113716944E-01  0.64624084321E-01  0.51100000000E-03 0. -1.
         11    1    4    4    0    0 -0.23467893311E-01  0.40565847708E-01  0.46824945156E-01  0.66250785856E-01  0.51100000000E-03 0.  1.
</event>
<event>
 8    1  0.1163913E+005  0.1043930E+01  0.7957747E-01            NaN
         13   -1    0    0    0    0  0.00000000000E+00  0.00000000000E+00  0.74505805969E-08  0.10566000000E+00  0.10566000000E+00 0.  1.
     999900   -1    0    0    0    0 -0.00000000000E+00 -0.00000000000E+00 -0.74505805969E-08  0.93827000000E+00  0.93827000000E+00 0. -1.
     999902    2    1    2    0    0 -0.19151187759E-01 -0.91043988821E-02 -0.94192539212E-02  0.10207269740E+01  0.10204632159E+01 0.  0.
     999903    2    3    3    0    0  0.32340292292E-01 -0.11432543015E+00 -0.53273994026E-01  0.13188161277E+00  0.20939027273E-01 0.  0.
         14    1    1    2    0    0  0.19151187759E-01  0.91043988821E-02  0.94192539212E-02  0.23203026010E-01  0.00000000000E+00 0.  1.
     999901    1    3    3    0    0 -0.51491480051E-01  0.10522103126E+00  0.43854740105E-01  0.88884536122E+00  0.88000000000E+00 0. -1.
        -11    1    4    4    0    0  0.15620339740E-01 -0.24486101805E-01 -0.95638506481E-02  0.30582553121E-01  0.51100000000E-03 0. -1.
         11    1    4    4    0    0  0.16719952551E-01 -0.89839328341E-01 -0.43710143378E-01  0.10129905965E+00  0.51100000000E-03 0.  1.
</event>
<event>
 8    1  0.1163913E+005  0.1043930E+01  0.7957747E-01            NaN
         13   -1    0    0    0    0  0.00000000000E+00  0.00000000000E+00  0.74505805969E-08  0.10566000000E+00  0.10566000000E+00 0.  1.
     999900   -1    0    0    0    0 -0.00000000000E+00 -0.00000000000E+00 -0.74505805969E-08  0.93827000000E+00  0.93827000000E+00 0.  1.
     999902    2    1    2    0    0  0.13948490722E-01 -0.14222136490E-01  0.61304111971E-02  0.10230874593E+01  0.10228751331E+01 0.  0.
     999903    2    3    3    0    0 -0.75586729077E-01 -0.60050196701E-01  0.89921435380E-01  0.13340341294E+00  0.19779441504E-01 0.  0.
         14    1    1    2    0    0 -0.13948490722E-01  0.14222136490E-01 -0.61304111971E-02  0.20842540661E-01  0.00000000000E+00 0.  1.
     999901    1    3    3    0    0  0.89535219800E-01  0.45828060212E-01 -0.83791024183E-01  0.88968404640E+00  0.88000000000E+00 0. -1.
        -11    1    4    4    0    0 -0.74425989240E-02 -0.10804244558E-01  0.20623278695E-01  0.24448000416E-01  0.51100000000E-03 0.  1.
         11    1    4    4    0    0 -0.68144130153E-01 -0.49245952143E-01  0.69298156684E-01  0.10895541252E+00  0.51100000000E-03 0. -1.
</event>
<event>
 8    1  0.1163913E+005  0.1043930E+01  0.7957747E-01            NaN
         13   -1    0    0    0    0  0.00000000000E+00  0.00000000000E+00  0.74505805969E-08  0.10566000000E+00  0.10566000000E+00 0.  1.
     999900   -1    0    0    0    0 -0.00000000000E+00 -0.00000000000E+00 -0.74505805969E-08  0.93827000000E+00  0.93827000000E+00 0. -1.
     999902    2    1    2    0    0 -0.10169454799E-01 -0.22093588547E-01 -0.20689466503E-02  0.10195204730E+01  0.10192282227E+01 0.  0.
     999903    2    3    3    0    0 -0.41296195126E-01 -0.95049925164E-01 -0.80107183081E-01  0.13251344525E+00  0.20069588569E-01 0.  0.
         14    1    1    2    0    0  0.10169454799E-01  0.22093588547E-01  0.20689466503E-02  0.24409526953E-01  0.00000000000E+00 0. -1.
     999901    1    3    3    0    0  0.31126740326E-01  0.72956336617E-01  0.78038236431E-01  0.88700702780E+00  0.88000000000E+00 0.  1.
        -11    1    4    4    0    0 -0.22361399413E-01 -0.28193987441E-01 -0.29836605857E-01  0.46748446836E-01  0.51100000000E-03 0.  1.
         11    1    4    4    0    0 -0.18934795713E-01 -0.66855937724E-01 -0.50270577224E-01  0.85764998414E-01  0.51100000000E-03 0. -1.
</event>
<event>
 8    1  0.1163913E+005  0.1043930E+01  0.7957747E-01            NaN
         13   -1    0    0    0    0  0.00000000000E+00  0.00000000000E+00  0.74505805969E-08  0.10566000000E+00  0.10566000000E+00 0.  1.
     999900   -1    0    0    0    0 -0.00000000000E+00 -0.00000000000E+00 -0.74505805969E-08  0.93827000000E+00  0.93827000000E+00 0. -1.
     999902    2    1    2    0    0 -0.15854016032E-01 -0.26805219647E-02  0.15244473804E-01  0.10217730823E+01  0.10215328201E+01 0.  0.
     999903    2    3    3    0    0 -0.84111578363E-01 -0.23077690780E-01 -0.96726163373E-01  0.13182220558E+00  0.20342216593E-01 0.  0.
         14    1    1    2    0    0  0.15854016032E-01  0.26805219647E-02 -0.15244473804E-01  0.22156917744E-01  0.00000000000E+00 0. -1.
     999901    1    3    3    0    0  0.68257562331E-01  0.20397168815E-01  0.11197063718E+00  0.88995087668E+00  0.88000000000E+00 0.  1.
        -11    1    4    4    0    0 -0.31808220783E-01 -0.13639163155E-01 -0.25699723783E-01  0.43110632151E-01  0.51100000000E-03 0. -1.
         11    1    4    4    0    0 -0.52303357580E-01 -0.94385276241E-02 -0.71026439590E-01  0.88711573426E-01  0.51100000000E-03 0.  1.
</event>
<event>
 8    1  0.1163913E+005  0.1043930E+01  0.7957747E-01            NaN
         13   -1    0    0    0    0  0.00000000000E+00  0.00000000000E+00  0.74505805969E-08  0.10566000000E+00  0.10566000000E+00 0.  1.
     999900   -1    0    0    0    0 -0.00000000000E+00 -0.00000000000E+00 -0.74505805969E-08  0.93827000000E+00  0.93827000000E+00 0.  1.
     999902    2    1    2    0    0  0.16321563984E-01  0.17049113873E-01  0.23742696504E-02  0.10202086406E+01  0.10199328250E+01 0.  0.
     999903    2    3    3    0    0  0.56093589902E-01  0.91250268058E-01  0.76379165484E-01  0.13309852911E+00  0.20207406618E-01 0.  0.
         14    1    1    2    0    0 -0.16321563984E-01 -0.17049113873E-01 -0.23742696504E-02  0.23721359386E-01  0.00000000000E+00 0.  1.
     999901    1    3    3    0    0 -0.39772025918E-01 -0.74201154185E-01 -0.74004895833E-01  0.88711011151E+00  0.88000000000E+00 0. -1.
        -11    1    4    4    0    0  0.15656474030E-01  0.13930856767E-01  0.88124833250E-02  0.22740161228E-01  0.51100000000E-03 0.  1.
         11    1    4    4    0    0  0.40437115871E-01  0.77319411291E-01  0.67566682159E-01  0.11035836788E+00  0.51100000000E-03 0. -1.
</event>
<event>
 8    1  0.1163913E+005  0.1043930E+01  0.7957747E-01            NaN
         13   -1    0    0    0    0  0.00000000000E+00  0.00000000000E+00  0.74505805969E-08  0.10566000000E+00  0.10566000000E+00 0.  1.
     999900   -1    0    0    0    0 -0.00000000000E+00 -0.00000000000E+00 -0.74505805969E-08  0.93827000000E+00  0.93827000000E+00 0. -1.
     999902    2    1    2    0    0 -0.26013705088E-01  0.34332803214E-02 -0.64656391752E-02  0.10169058487E+01  0.10165467034E+01 0.  0.
     999903    2    3    3    0    0  0.77503327918E-01  0.22988646523E-01 -0.95011544731E-01  0.12621029693E+00  0.19146845981E-01 0.  0.
         14    1    1    2    0    0  0.26013705088E-01 -0.34332803214E-02  0.64656391752E-02  0.27024151349E-01  0.00000000000E+00 0.  1.
     999901    1    3    3    0    0 -0.10351703301E+00 -0.19555366202E-01  0.88545905556E-01  0.89069555172E+00  0.88000000000E+00 0.  1.
        -11    1    4    4    0    0  0.18410926594E-01  0.91671260325E-02 -0.36554159929E-01  0.41945990831E-01  0.51100000000E-03 0.  1.
         11    1    4    4    0    0  0.59092401324E-01  0.13821520491E-01 -0.58457384802E-01  0.84264306096E-01  0.51100000000E-03 0. -1.
</event>
<event>
 8    1  0.1163913E+005  0.1043930E+01  0.7957747E-01            NaN
         13   -1    0    0    0    0  0.00000000000E+00  0.00000000000E+00  0.74505805969E-08  0.10566000000E+00  0.10566000000E+00 0.  1.
     999900   -1    0    0    0    0 -0.00000000000E+00 -0.00000000000E+00 -0.74505805969E-08  0.93827000000E+00  0.93827000000E+00 0. -1.
     999902    2    1    2    0    0  0.15108504326E-01  0.15468957740E-01  0.10446326998E-01  0.10199158104E+01  0.10196330609E+01 0.  0.
     999903    2    3    3    0    0  0.10586967356E+00  0.33252256210E-01  0.70416199388E-01  0.13303914410E+00  0.20660890716E-01 0.  0.
         14    1    1    2    0    0 -0.15108504326E-01 -0.15468957740E-01 -0.10446326998E-01  0.24014189644E-01  0.00000000000E+00 0. -1.
     999901    1    3    3    0    0 -0.90761169234E-01 -0.17783298470E-01 -0.59969872390E-01  0.88687666625E+00  0.88000000000E+00 0.  1.
        -11    1    4    4    0    0  0.41358672021E-01  0.17623942425E-01  0.17877317473E-01  0.48383909505E-01  0.51100000000E-03 0.  1.
         11    1    4    4    0    0  0.64511001539E-01  0.15628313785E-01  0.52538881915E-01  0.84655234600E-01  0.51100000000E-03 0. -1.
</event>
<event>
 8    1  0.1163913E+005  0.1043930E+01  0.7957747E-01            NaN
         13   -1    0    0    0    0  0.00000000000E+00  0.00000000000E+00  0.74505805969E-08  0.10566000000E+00  0.10566000000E+00 0. -1.
     999900   -1    0    0    0    0 -0.00000000000E+00 -0.00000000000E+00 -0.74505805969E-08  0.93827000000E+00  0.93827000000E+00 0. -1.
     999902    2    1    2    0    0  0.12908344699E-01  0.13107135141E-01 -0.13989452868E-01  0.10208188091E+01  0.10205571585E+01 0.  0.
     999903    2    3    3    0    0  0.33742481438E-01  0.11344735931E+00  0.54688383829E-01  0.13221379722E+00  0.21927390655E-01 0.  0.
         14    1    1    2    0    0 -0.12908344699E-01 -0.13107135141E-01  0.13989452868E-01  0.23111190926E-01  0.00000000000E+00 0. -1.
     999901    1    3    3    0    0 -0.20834136740E-01 -0.10034022417E+00 -0.68677836697E-01  0.88860501185E+00  0.88000000000E+00 0. -1.
        -11    1    4    4    0    0  0.24759426638E-01  0.49336251150E-01  0.19615474954E-01  0.58584322678E-01  0.51100000000E-03 0. -1.
         11    1    4    4    0    0  0.89830548002E-02  0.64111108161E-01  0.35072908875E-01  0.73629474541E-01  0.51100000000E-03 0.  1.
</event>
<event>
 8    1  0.1163913E+005  0.1043930E+01  0.7957747E-01            NaN
         13   -1    0    0    0    0  0.00000000000E+00  0.00000000000E+00  0.74505805969E-08  0.10566000000E+00  0.10566000000E+00 0.  1.
     999900   -1    0    0    0    0 -0.00000000000E+00 -0.00000000000E+00 -0.74505805969E-08  0.93827000000E+00  0.93827000000E+00 0. -1.
     999902    2    1    2    0    0  0.16059353179E-01 -0.87466761180E-02  0.15324346427E-01  0.10200711911E+01  0.10197921319E+01 0.  0.
     999903    2    3    3    0    0 -0.60780564491E-01 -0.11109151432E+00 -0.22847361975E-01  0.12999483587E+00  0.18467642830E-01 0.  0.
         14    1    1    2    0    0 -0.16059353179E-01  0.87466761180E-02 -0.15324346427E-01  0.23858808877E-01  0.00000000000E+00 0. -1.
     999901    1    3    3    0    0  0.76839917670E-01  0.10234483820E+00  0.38171708401E-01  0.89007635525E+00  0.88000000000E+00 0.  1.
        -11    1    4    4    0    0 -0.52618835901E-01 -0.86491585882E-01 -0.23994772254E-01  0.10404588669E+00  0.51100000000E-03 0. -1.
         11    1    4    4    0    0 -0.81617285898E-02 -0.24599928434E-01  0.11474102793E-02  0.25948949186E-01  0.51100000000E-03 0.  1.
</event>
<event>
 8    1  0.1163913E+005  0.1043930E+01  0.7957747E-01            NaN
         13   -1    0    0    0    0  0.00000000000E+00  0.00000000000E+00  0.74505805969E-08  0.10566000000E+00  0.10566000000E+00 0. -1.
     999900   -1    0    0    0    0 -0.00000000000E+00 -0.00000000000E+00 -0.74505805969E-08  0.93827000000E+00  0.93827000000E+00 0.  1.
     999902    2    1    2    0    0  0.16930343522E-01 -0.16578455540E-01  0.54680012928E-02  0.10196116786E+01  0.10193216344E+01 0.  0.
     999903    2    3    3    0    0  0.97243750522E-01  0.41579077663E-01  0.75194038902E-01  0.13130190019E+00  0.20021957756E-01 0.  0.
         14    1    1    2    0    0 -0.16930343522E-01  0.16578455540E-01 -0.54680012928E-02  0.24318321447E-01  0.00000000000E+00 0.  1.
     999901    1    3    3    0    0 -0.80313407000E-01 -0.58157533203E-01 -0.69726037610E-01  0.88830977836E+00  0.88000000000E+00 0.  1.
        -11    1    4    4    0    0  0.18375279576E-01 -0.20508537461E-03  0.12938180358E-01  0.22480004259E-01  0.51100000000E-03 0.  1.
         11    1    4    4    0    0  0.78868470946E-01  0.41784163037E-01  0.62255858545E-01  0.10882189593E+00  0.51100000000E-03 0. -1.
</event>
<event>
 8    1  0.1163913E+005  0.1043930E+01  0.7957747E-01            NaN
         13   -1    0    0    0    0  0.00000000000E+00  0.00000000000E+00  0.74505805969E-08  0.10566000000E+00  0.10566000000E+00 0.  1.
     999900   -1    0    0    0    0 -0.00000000000E+00 -0.00000000000E+00 -0.74505805969E-08  0.93827000000E+00  0.93827000000E+00 0.  1.
     999902    2    1    2    0    0  0.15776735325E-01  0.18007104821E-01 -0.39466704870E-02  0.10196660883E+01  0.10193773562E+01 0.  0.
     999903    2    3    3    0    0 -0.82421346362E-01  0.28754578451E-01 -0.93549005427E-01  0.12961724143E+00  0.20714940074E-01 0.  0.
         14    1    1    2    0    0 -0.15776735325E-01 -0.18007104821E-01  0.39466704870E-02  0.24263911669E-01  0.00000000000E+00 0.  1.
     999901    1    3    3    0    0  0.98198081687E-01 -0.10747473630E-01  0.89602334940E-01  0.89004884690E+00  0.88000000000E+00 0.  1.
        -11    1    4    4    0    0 -0.15989408367E-01 -0.12116973821E-02 -0.24063243115E-01  0.28921102687E-01  0.51100000000E-03 0. -1.
         11    1    4    4    0    0 -0.66431937996E-01  0.29966275833E-01 -0.69485762313E-01  0.10069613875E+00  0.51100000000E-03 0.  1.
</event>
<event>
 8    1  0.1163913E+005  0.1043930E+01  0.7957747E-01            NaN
         13   -1    0    0    0    0  0.00000000000E+00  0.00000000000E+00  0.74505805969E-08  0.10566000000E+00  0.10566000000E+00 0. -1.
     999900   -1    0    0    0    0 -0.00000000000E+00 -0.00000000000E+00 -0.74505805969E-08  0.93827000000E+00  0.93827000000E+00 0. -1.
     999902    2    1    2    0    0 -0.38482577803E-03  0.90060964347E-02 -0.22402106039E-01  0.10197822834E+01  0.10194963429E+01 0.  0.
     999903    2    3    3    0    0  0.56434169581E-01 -0.71597413320E-01 -0.92575638549E-01  0.13149761689E+00  0.20257574024E-01 0.  0.
         14    1    1    2    0    0  0.38482577803E-03 -0.90060964347E-02  0.22402106039E-01  0.24147716638E-01  0.00000000000E+00 0. -1.
     999901    1    3    3    0    0 -0.56818995359E-01  0.80603509755E-01  0.70173532511E-01  0.88828466647E+00  0.88000000000E+00 0.  1.
        -11    1    4    4    0    0  0.55989266528E-01 -0.61229450627E-01 -0.83259484948E-01  0.11754253079E+00  0.51100000000E-03 0. -1.
         11    1    4    4    0    0  0.44490305261E-03 -0.10367962693E-01 -0.93161536015E-02  0.13955086100E-01  0.51100000000E-03 0.  1.
</event>
<event>
 8    1  0.1163913E+005  0.1043930E+01  0.7957747E-01            NaN
         13   -1    0    0    0    0  0.00000000000E+00  0.00000000000E+00  0.74505805969E-08  0.10566000000E+00  0.10566000000E+00 0. -1.
     999900   -1    0    0    0    0 -0.00000000000E+00 -0.00000000000E+00 -0.74505805969E-08  0.93827000000E+00  0.93827000000E+00 0. -1.
     999902    2    1    2    0    0  0.76960285847E-02 -0.20194895910E-01  0.93359183081E-02  0.10203880789E+01  0.10201164686E+01 0.  0.
     999903    2    3    3    0    0 -0.10944816274E+00 -0.53238259533E-01  0.45197506828E-01  0.13128702789E+00  0.19500165705E-01 0.  0.
         14    1    1    2    0    0 -0.76960285847E-02  0.20194895910E-01 -0.93359183081E-02  0.23541921065E-01  0.00000000000E+00 0. -1.
     999901    1    3    3    0    0  0.11714419133E+00  0.33043363623E-01 -0.35861588520E-01  0.88910105105E+00  0.88000000000E+00 0.  1.
        -11    1    4    4    0    0 -0.98840604985E-01 -0.53555856292E-01  0.43431744153E-01  0.12051668954E+00  0.51100000000E-03 0.  1.
         11    1    4    4    0    0 -0.10607557757E-01  0.31759675887E-03  0.17657626749E-02  0.10770338346E-01  0.51100000000E-03 0. -1.
</event>
<event>
 8    1  0.1163913E+005  0.1043930E+01  0.7957747E-01            NaN
         13   -1    0    0    0    0  0.00000000000E+00  0.00000000000E+00  0.74505805969E-08  0.10566000000E+00  0.10566000000E+00 0. -1.
     999900   -1    0    0    0    0 -0.00000000000E+00 -0.00000000000E+00 -0.74505805969E-08  0.93827000000E+00  0.93827000000E+00 0.  1.
     999902    2    1    2    0    0 -0.11697810380E-01 -0.18149769902E-01 -0.91241999663E-02  0.10204884996E+01  0.10202192284E+01 0.  0.
     999903    2    3    3    0    0  0.10730367571E+00 -0.70232987738E-02  0.68536339226E-01  0.12901987347E+00  0.19633960631E-01 0.  0.
         14    1    1    2    0    0  0.11697810380E-01  0.18149769902E-01  0.91241999663E-02  0.23441500383E-01  0.00000000000E+00 0. -1.
     999901    1    3    3    0    0 -0.11900148609E+00 -0.11126471129E-01 -0.77660539192E-01  0.89146862614E+00  0.88000000000E+00 0.  1.
        -11    1    4    4    0    0  0.16799614620E-01 -0.84071983744E-02  0.11479576481E-01  0.22021576535E-01  0.51100000000E-03 0.  1.
         11    1    4    4    0    0  0.90504061089E-01  0.13838996006E-02  0.57056762745E-01  0.10699829694E+00  0.51100000000E-03 0. -1.
</event>
<event>
 8    1  0.1163913E+005  0.1043930E+01  0.7957747E-01            NaN
         13   -1    0    0    0    0  0.00000000000E+00  0.00000000000E+00  0.74505805969E-08  0.10566000000E+00  0.10566000000E+00 0.  1.
     999900   -1    0    0    0    0 -0.00000000000E+00 -0.00000000000E+00 -0.74505805969E-08  0.93827000000E+00  0.93827000000E+00 0. -1.
     999902    2    1    2    0    0  0.12450125910E-01  0.21206104128E-01 -0.33970830194E-02  0.10191057244E+01  0.10188033337E+01 0.  0.
     999903    2    3    3    0    0 -0.35176872007E-01  0.24679721547E-01 -0.12096558654E+00  0.13000350867E+00  0.20536264460E-01 0.  0.
         14    1    1    2    0    0 -0.12450125910E-01 -0.21206104128E-01  0.33970830194E-02  0.24824275629E-01  0.00000000000E+00 0.  1.
     999901    1    3    3    0    0  0.47626997916E-01 -0.34736174193E-02  0.11756850353E+00  0.88910221570E+00  0.88000000000E+00 0.  1.
        -11    1    4    4    0    0 -0.30996016936E-01  0.28277143240E-01 -0.10967132439E+00  0.11742406232E+00  0.51100000000E-03 0.  1.
         11    1    4    4    0    0 -0.41808550709E-02 -0.35974216929E-02 -0.11294262152E-01  0.12579446352E-01  0.51100000000E-03 0. -1.
</event>
<event>
 8    1  0.1163913E+005  0.1043930E+01  0.7957747E-01            NaN
         13   -1    0    0    0    0  0.00000000000E+00  0.00000000000E+00  0.74505805969E-08  0.10566000000E+00  0.10566000000E+00 0. -1.
     999900   -1    0    0    0    0 -0.00000000000E+00 -0.00000000000E+00 -0.74505805969E-08  0.93827000000E+00  0.93827000000E+00 0. -1.
     999902    2    1    2    0    0 -0.25119313183E-01 -0.85979187218E-02  0.67815616004E-02  0.10165275607E+01  0.10161581511E+01 0.  0.
     999903    2    3    3    0    0 -0.81374803233E-01 -0.53857650053E-01  0.83804504966E-01  0.13021742467E+00  0.20270115083E-01 0.  0.
         14    1    1    2    0    0  0.25119313183E-01  0.85979187218E-02 -0.67815616004E-02  0.27402439287E-01  0.00000000000E+00 0. -1.
     999901    1    3    3    0    0  0.56255490050E-01  0.45259731331E-01 -0.77022943366E-01  0.88631013604E+00  0.88000000000E+00 0. -1.
        -11    1    4    4    0    0 -0.16386014950E-01 -0.21265378789E-01  0.25360635456E-01  0.36934276393E-01  0.51100000000E-03 0. -1.
         11    1    4    4    0    0 -0.64988788283E-01 -0.32592271264E-01  0.58443869510E-01  0.93283148280E-01  0.51100000000E-03 0.  1.
</event>
<event>
 8    1  0.1163913E+005  0.1043930E+01  0.7957747E-01            NaN
         13   -1    0    0    0    0  0.00000000000E+00  0.00000000000E+00  0.74505805969E-08  0.10566000000E+00  0.10566000000E+00 0. -1.
     999900   -1    0    0    0    0 -0.00000000000E+00 -0.00000000000E+00 -0.74505805969E-08  0.93827000000E+00  0.93827000000E+00 0. -1.
     999902    2    1    2    0    0  0.22691943189E-01 -0.92736810997E-02  0.48085991402E-02  0.10189490458E+01  0.10186427783E+01 0.  0.
     999903    2    3    3    0    0  0.27309391337E-01 -0.11342624568E+00  0.56452648447E-01  0.13129134975E+00  0.20957121396E-01 0.  0.
         14    1    1    2    0    0 -0.22691943189E-01  0.92736810997E-02 -0.48085991402E-02  0.24980954195E-01  0.00000000000E+00 0.  1.
     999901    1    3    3    0    0 -0.46174481486E-02  0.10415256458E+00 -0.51644049307E-01  0.88765769606E+00  0.88000000000E+00 0. -1.
        -11    1    4    4    0    0  0.22789909064E-01 -0.77644023973E-01  0.28993051525E-01  0.85958318804E-01  0.51100000000E-03 0. -1.
         11    1    4    4    0    0  0.45194822736E-02 -0.35782221711E-01  0.27459596923E-01  0.45333030946E-01  0.51100000000E-03 0.  1.
</event>
<event>
 8    1  0.1163913E+005  0.1043930E+01  0.7957747E-01            NaN
         13   -1    0    0    0    0  0.00000000000E+00  0.00000000000E+00  0.74505805969E-08  0.10566000000E+00  0.10566000000E+00 0.  1.
     999900   -1    0    0    0    0 -0.00000000000E+00 -0.00000000000E+00 -0.74505805969E-08  0.93827000000E+00  0.93827000000E+00 0. -1.
     999902    2    1    2    0    0 -0.73136360525E-02 -0.20130970601E-02  0.22844777868E-01  0.10198587369E+01  0.10195746258E+01 0.  0.
     999903    2    3    3    0    0 -0.40818702429E-01 -0.71422213496E-01 -0.96643805872E-01  0.12844540035E+00  0.19771105376E-01 0.  0.
         14    1    1    2    0    0  0.73136360525E-02  0.20130970601E-02 -0.22844777868E-01  0.24071263115E-01  0.00000000000E+00 0. -1.
     999901    1    3    3    0    0  0.33505066377E-01  0.69409116435E-01  0.11948858374E+00  0.89141333654E+00  0.88000000000E+00 0.  1.
        -11    1    4    4    0    0 -0.29826200771E-01 -0.43412024952E-01 -0.73770465260E-01  0.90645180945E-01  0.51100000000E-03 0. -1.
         11    1    4    4    0    0 -0.10992501658E-01 -0.28010188543E-01 -0.22873340612E-01  0.37800219400E-01  0.51100000000E-03 0.  1.
</event>
<event>
 8    1  0.1163913E+005  0.1043930E+01  0.7957747E-01            NaN
         13   -1    0    0    0    0  0.00000000000E+00  0.00000000000E+00  0.74505805969E-08  0.10566000000E+00  0.10566000000E+00 0. -1.
     999900   -1    0    0    0    0 -0.00000000000E+00 -0.00000000000E+00 -0.74505805969E-08  0.93827000000E+00  0.93827000000E+00 0.  1.
     999902    2    1    2    0    0  0.12567347874E-01  0.17242616285E-01  0.10079636286E-01  0.10203324341E+01  0.10200595232E+01 0.  0.
     999903    2    3    3    0    0 -0.26163622451E-01 -0.25556430344E-01  0.12426474991E+00  0.13107989031E+00  0.20063481803E-01 0.  0.
         14    1    1    2    0    0 -0.12567347874E-01 -0.17242616285E-01 -0.10079636286E-01  0.23597565904E-01  0.00000000000E+00 0.  1.
     999901    1    3    3    0    0  0.38730970325E-01  0.42799046629E-01 -0.11418511362E+00  0.88925254378E+00  0.88000000000E+00 0.  1.
        -11    1    4    4    0    0 -0.38359972404E-02 -0.11141970015E-01  0.65899525216E-01  0.66946746861E-01  0.51100000000E-03 0.  1.
         11    1    4    4    0    0 -0.22327625211E-01 -0.14414460329E-01  0.58365224694E-01  0.64133143450E-01  0.51100000000E-03 0. -1.
</event>
<event>
 8    1  0.1163913E+005  0.1043930E+01  0.7957747E-01            NaN
         13   -1    0    0    0    0  0.00000000000E+00  0.00000000000E+00  0.74505805969E-08  0.10566000000E+00  0.10566000000E+00 0. -1.
     999900   -1    0    0    0    0 -0.00000000000E+00 -0.00000000000E+00 -0.74505805969E-08  0.93827000000E+00  0.93827000000E+00 0.  1.
     999902    2    1    2    0    0 -0.14492720025E-01 -0.40757748877E-02  0.17868638890E-01  0.10205646596E+01  0.10202971554E+01 0.  0.
     999903    2    3    3    0    0  0.42393101672E-01  0.50800863157E-01 -0.10787120367E+00  0.12811973129E+00  0.20014149973E-01 0.  0.
         14    1    1    2    0    0  0.14492720025E-01  0.40757748877E-02 -0.17868638890E-01  0.23365340366E-01  0.00000000000E+00 0.  1.
     999901    1    3    3    0    0 -0.56885821697E-01 -0.54876638045E-01  0.12573984256E+00  0.89244492834E+00  0.88000000000E+00 0. -1.
        -11    1    4    4    0    0  0.24904711133E-01  0.14485773334E-01 -0.44652542939E-01  0.53143136694E-01  0.51100000000E-03 0.  1.
         11    1    4    4    0    0  0.17488390539E-01  0.36315089823E-01 -0.63218660729E-01  0.74976594600E-01  0.51100000000E-03 0. -1.
</event>
<event>
 8    1  0.1163913E+005  0.1043930E+01  0.7957747E-01            NaN
         13   -1    0    0    0    0  0.00000000000E+00  0.00000000000E+00  0.74505805969E-08  0.10566000000E+00  0.10566000000E+00 0.  1.
     999900   -1    0    0    0    0 -0.00000000000E+00 -0.00000000000E+00 -0.74505805969E-08  0.93827000000E+00  0.93827000000E+00 0.  1.
     999902    2    1    2    0    0  0.39129529096E-02  0.19679098464E-01  0.12034731684E-01  0.10205331437E+01  0.10202649090E+01 0.  0.
     999903    2    3    3    0    0  0.68287759151E-01  0.83476780651E-01  0.76247869016E-01  0.13355085138E+00  0.19761108692E-01 0.  0.
         14    1    1    2    0    0 -0.39129529096E-02 -0.19679098464E-01 -0.12034731684E-01  0.23396856274E-01  0.00000000000E+00 0.  1.
     999901    1    3    3    0    0 -0.64374806242E-01 -0.63797682188E-01 -0.64213137332E-01  0.88698229235E+00  0.88000000000E+00 0.  1.
        -11    1    4    4    0    0  0.54954449338E-01  0.74252924146E-01  0.57731290351E-01  0.10893416017E+00  0.51100000000E-03 0.  1.
         11    1    4    4    0    0  0.13333309813E-01  0.92238565049E-02  0.18516578665E-01  0.24616691204E-01  0.51100000000E-03 0. -1.
</event>
<event>
 8    1  0.1163913E+005  0.1043930E+01  0.7957747E-01            NaN
         13   -1    0    0    0    0  0.00000000000E+00  0.00000000000E+00  0.74505805969E-08  0.10566000000E+00  0.10566000000E+00 0.  1.
     999900   -1    0    0    0    0 -0.00000000000E+00 -0.00000000000E+00 -0.74505805969E-08  0.93827000000E+00  0.93827000000E+00 0.  1.
     999902    2    1    2    0    0  0.20281651663E-01 -0.98215190444E-03  0.10929453720E-01  0.10208700135E+01  0.10206095343E+01 0.  0.
     999903    2    3    3    0    0  0.10749847509E+00 -0.29908741595E-01 -0.68584089774E-01  0.13251989930E+00  0.20181461079E-01 0.  0.
         14    1    1    2    0    0 -0.20281651663E-01  0.98215190444E-03 -0.10929453720E-01  0.23059986452E-01  0.00000000000E+00 0. -1.
     999901    1    3    3    0    0 -0.87216823425E-01  0.28926589690E-01  0.79513543494E-01  0.88835011424E+00  0.88000000000E+00 0. -1.
        -11    1    4    4    0    0  0.59054102876E-01 -0.73347549062E-02 -0.41900409952E-01  0.72781118232E-01  0.51100000000E-03 0. -1.
         11    1    4    4    0    0  0.48444372212E-01 -0.22573986688E-01 -0.26683679822E-01  0.59738781071E-01  0.51100000000E-03 0.  1.
</event>
<event>
 8    1  0.1163913E+005  0.1043930E+01  0.7957747E-01            NaN
         13   -1    0    0    0    0  0.00000000000E+00  0.00000000000E+00  0.74505805969E-08  0.10566000000E+00  0.10566000000E+00 0. -1.
     999900   -1    0    0    0    0 -0.00000000000E+00 -0.00000000000E+00 -0.74505805969E-08  0.93827000000E+00  0.93827000000E+00 0.  1.
     999902    2    1    2    0    0  0.10077585415E-01 -0.20974774373E-01  0.51728319763E-02  0.10200918566E+01  0.10198132863E+01 0.  0.
     999903    2    3    3    0    0  0.17856330141E-01 -0.12893445477E+00  0.20369141823E-01  0.13332992169E+00  0.20470073942E-01 0.  0.
         14    1    1    2    0    0 -0.10077585415E-01  0.20974774373E-01 -0.51728319763E-02  0.23838143352E-01  0.00000000000E+00 0.  1.
     999901    1    3    3    0    0 -0.77787447259E-02  0.10795968039E+00 -0.15196309847E-01  0.88676193496E+00  0.88000000000E+00 0.  1.
        -11    1    4    4    0    0  0.19586186944E-01 -0.10864056119E+00  0.11110210785E-01  0.11095083668E+00  0.51100000000E-03 0.  1.
         11    1    4    4    0    0 -0.17298568022E-02 -0.20293893576E-01  0.92589310377E-02  0.22379085013E-01  0.51100000000E-03 0. -1.
</event>
<event>
 8    1  0.1163913E+005  0.1043930E+01  0.7957747E-01            NaN
         13   -1    0    0    0    0  0.00000000000E+00  0.00000000000E+00  0.74505805969E-08  0.10566000000E+00  0.10566000000E+00 0.  1.
     999900   -1    0    0    0    0 -0.00000000000E+00 -0.00000000000E+00 -0.74505805969E-08  0.93827000000E+00  0.93827000000E+00 0.  1.
     999902    2    1    2    0    0  0.19102372796E-01 -0.14835558279E-01 -0.45060682357E-02  0.10193271732E+01  0.10190302188E+01 0.  0.
     999903    2    3    3    0    0 -0.39647638011E-01  0.88854537055E-01 -0.80631348759E-01  0.12803695224E+00  0.20615110483E-01 0.  0.
         14    1    1    2    0    0 -0.19102372796E-01  0.14835558279E-01  0.45060682357E-02  0.24602826806E-01  0.00000000000E+00 0.  1.
     999901    1    3    3    0    0  0.58750010807E-01 -0.10369009533E+00  0.76125280523E-01  0.89129022096E+00  0.88000000000E+00 0. -1.
        -11    1    4    4    0    0 -0.29538835816E-01  0.41741290007E-01 -0.44806802030E-01  0.67991093107E-01  0.51100000000E-03 0. -1.
         11    1    4    4    0    0 -0.10108802196E-01  0.47113247048E-01 -0.35824546729E-01  0.60045859129E-01  0.51100000000E-03 0.  1.
</event>
<event>
 8    1  0.1163913E+005  0.1043930E+01  0.7957747E-01            NaN
         13   -1    0    0    0    0  0.00000000000E+00  0.00000000000E+00  0.74505805969E-08  0.10566000000E+00  0.10566000000E+00 0. -1.
     999900   -1    0    0    0    0 -0.00000000000E+00 -0.00000000000E+00 -0.74505805969E-08  0.93827000000E+00  0.93827000000E+00 0. -1.
     999902    2    1    2    0    0  0.21612427406E-01  0.57321230983E-03 -0.60275220720E-02  0.10214854770E+01  0.10212388668E+01 0.  0.
     999903    2    3    3    0    0  0.39178863254E-01 -0.80414375962E-01  0.94770819895E-01  0.13186315552E+00  0.20122830122E-01 0.  0.
         14    1    1    2    0    0 -0.21612427406E-01 -0.57321230983E-03  0.60275220720E-02  0.22444523008E-01  0.00000000000E+00 0. -1.
     999901    1    3    3    0    0 -0.17566435849E-01  0.80987588272E-01 -0.10079834197E+00  0.88962232147E+00  0.88000000000E+00 0.  1.
        -11    1    4    4    0    0  0.24347288273E-01 -0.64677073202E-01  0.79749612277E-01  0.10552808168E+00  0.51100000000E-03 0.  1.
         11    1    4    4    0    0  0.14831574982E-01 -0.15737302761E-01  0.15021207619E-01  0.26335073836E-01  0.51100000000E-03 0. -1.
</event>
<event>
 8    1  0.1163913E+005  0.1043930E+01  0.7957747E-01            NaN
         13   -1    0    0    0    0  0.00000000000E+00  0.00000000000E+00  0.74505805969E-08  0.10566000000E+00  0.10566000000E+00 0.  1.
     999900   -1    0    0    0    0 -0.00000000000E+00 -0.00000000000E+00 -0.74505805969E-08  0.93827000000E+00  0.93827000000E+00 0.  1.
     999902    2    1    2    0    0 -0.18492510085E-01  0.13600659473E-01 -0.47648988877E-02  0.10204852750E+01  0.10202159288E+01 0.  0.
     999903    2    3    3    0    0  0.20156522784E-01 -0.12439930241E+00  0.16632685837E-01  0.12863573960E+00  0.19723980680E-01 0.  0.
         14    1    1    2    0    0  0.18492510085E-01 -0.13600659473E-01  0.47648988877E-02  0.23444724966E-01  0.00000000000E+00 0.  1.
     999901    1    3    3    0    0 -0.38649032869E-01  0.13799996188E+00 -0.21397584725E-01  0.89184953543E+00  0.88000000000E+00 0.  1.
        -11    1    4    4    0    0  0.63762971399E-06 -0.38707547051E-01  0.11808242633E-01  0.40471841003E-01  0.51100000000E-03 0.  1.
         11    1    4    4    0    0  0.20155885154E-01 -0.85691755358E-01  0.48244432042E-02  0.88163898597E-01  0.51100000000E-03 0. -1.
</event>
<event>
 8    1  0.1163913E+005  0.1043930E+01  0.7957747E-01            NaN
         13   -1    0    0    0    0  0.00000000000E+00  0.00000000000E+00  0.74505805969E-08  0.10566000000E+00  0.10566000000E+00 0. -1.
     999900   -1    0    0    0    0 -0.00000000000E+00 -0.00000000000E+00 -0.74505805969E-08  0.93827000000E+00  0.93827000000E+00 0.  1.
     999902    2    1    2    0    0  0.20588738502E-01 -0.46342850143E-02  0.10720534990E-01  0.10202592877E+01  0.10199846624E+01 0.  0.
     999903    2    3    3    0    0  0.75227360222E-01 -0.69834258658E-01 -0.79603146258E-01  0.13155529707E+00  0.20836407697E-01 0.  0.
         14    1    1    2    0    0 -0.20588738502E-01  0.46342850143E-02 -0.10720534990E-01  0.23670712308E-01  0.00000000000E+00 0. -1.
     999901    1    3    3    0    0 -0.54638621720E-01  0.65199973644E-01  0.90323681248E-01  0.88870399062E+00  0.88000000000E+00 0. -1.
        -11    1    4    4    0    0  0.63838411710E-01 -0.50204892278E-01 -0.55042543320E-01  0.98111246626E-01  0.51100000000E-03 0. -1.
         11    1    4    4    0    0  0.11388948511E-01 -0.19629366380E-01 -0.24560602939E-01  0.33444050448E-01  0.51100000000E-03 0.  1.
</event>
<event>
 8    1  0.1163913E+005  0.1043930E+01  0.7957747E-01            NaN
         13   -1    0    0    0    0  0.00000000000E+00  0.00000000000E+00  0.74505805969E-08  0.10566000000E+00  0.10566000000E+00 0.  1.
     999900   -1    0    0    0    0 -0.00000000000E+00 -0.00000000000E+00 -0.74505805969E-08  0.93827000000E+00  0.93827000000E+00 0.  1.
     999902    2    1    2    0    0  0.16797340984E-03 -0.17797854717E-01  0.13181137920E-01  0.10217819923E+01  0.10215419255E+01 0.  0.
     999903    2    3    3    0    0  0.17352960620E-01  0.52604578800E-01 -0.11547798010E+00  0.12947879548E+00  0.19005989549E-01 0.  0.
         14    1    1    2    0    0 -0.16797340984E-03  0.17797854717E-01 -0.13181137920E-01  0.22148007686E-01  0.00000000000E+00 0.  1.
     999901    1    3    3    0    0 -0.17184987210E-01 -0.70402433517E-01  0.12865911802E+00  0.89230319683E+00  0.88000000000E+00 0. -1.
        -11    1    4    4    0    0  0.10189303441E-01  0.21715533732E-01 -0.30698519313E-01  0.38962116458E-01  0.51100000000E-03 0. -1.
         11    1    4    4    0    0  0.71636571787E-02  0.30889045068E-01 -0.84779460784E-01  0.90516679022E-01  0.51100000000E-03 0.  1.
</event>
<event>
 8    1  0.1163913E+005  0.1043930E+01  0.7957747E-01            NaN
         13   -1    0    0    0    0  0.00000000000E+00  0.00000000000E+00  0.74505805969E-08  0.10566000000E+00  0.10566000000E+00 0. -1.
     999900   -1    0    0    0    0 -0.00000000000E+00 -0.00000000000E+00 -0.74505805969E-08  0.93827000000E+00  0.93827000000E+00 0.  1.
     999902    2    1    2    0    0 -0.30984869141E-03  0.24852233809E-02 -0.23586306035E-01  0.10202111009E+01  0.10199353432E+01 0.  0.
     999903    2    3    3    0    0 -0.92299867589E-01  0.70375962706E-01 -0.59586583974E-01  0.13208535752E+00  0.20589778981E-01 0.  0.
         14    1    1    2    0    0  0.30984869141E-03 -0.24852233809E-02  0.23586306035E-01  0.23718899086E-01  0.00000000000E+00 0. -1.
     999901    1    3    3    0    0  0.91990018898E-01 -0.67890739325E-01  0.36000277939E-01  0.88812574339E+00  0.88000000000E+00 0. -1.
        -11    1    4    4    0    0 -0.57556113505E-01  0.31058839541E-01 -0.33751864052E-01  0.73598961701E-01  0.51100000000E-03 0. -1.
         11    1    4    4    0    0 -0.34743754084E-01  0.39317123165E-01 -0.25834719922E-01  0.58486395822E-01  0.51100000000E-03 0.  1.
</event>
<event>
 8    1  0.1163913E+005  0.1043930E+01  0.7957747E-01            NaN
         13   -1    0    0    0    0  0.00000000000E+00  0.00000000000E+00  0.74505805969E-08  0.10566000000E+00  0.10566000000E+00 0.  1.
     999900   -1    0    0    0    0 -0.00000000000E+00 -0.00000000000E+00 -0.74505805969E-08  0.93827000000E+00  0.93827000000E+00 0. -1.
     999902    2    1    2    0    0 -0.17218899359E-01 -0.18558346306E-01  0.37369785278E-02  0.10183396166E+01  0.10180180289E+01 0.  0.
     999903    2    3    3    0    0 -0.68426522578E-01  0.82379338978E-01  0.68444899688E-01  0.12873422543E+00  0.20475644572E-01 0.  0.
         14    1    1    2    0    0  0.17218899359E-01  0.18558346306E-01 -0.37369785278E-02  0.25590383375E-01  0.00000000000E+00 0. -1.
     999901    1    3    3    0    0  0.51207623219E-01 -0.10093768528E+00 -0.64707921160E-01  0.88960539120E+00  0.88000000000E+00 0. -1.
        -11    1    4    4    0    0 -0.37018992751E-01  0.53271548973E-01  0.50886412183E-01  0.82449692663E-01  0.51100000000E-03 0.  1.
         11    1    4    4    0    0 -0.31407529828E-01  0.29107790005E-01  0.17558487504E-01  0.46284532765E-01  0.51100000000E-03 0. -1.
</event>
<event>
 8    1  0.1163913E+005  0.1043930E+01  0.7957747E-01            NaN
         13   -1    0    0    0    0  0.00000000000E+00  0.00000000000E+00  0.74505805969E-08  0.10566000000E+00  0.10566000000E+00 0.  1.
     999900   -1    0    0    0    0 -0.00000000000E+00 -0.00000000000E+00 -0.74505805969E-08  0.93827000000E+00  0.93827000000E+00 0. -1.
     999902    2    1    2    0    0 -0.19540989413E-01 -0.11159189392E-01  0.27484707833E-02  0.10212599346E+01  0.10210082870E+01 0.  0.
     999903    2    3    3    0    0  0.39723210746E-01  0.12116121000E+00 -0.71527814962E-02  0.12934123406E+00  0.20494395899E-01 0.  0.
         14    1    1    2    0    0  0.19540989413E-01  0.11159189392E-01 -0.27484707833E-02  0.22670065434E-01  0.00000000000E+00 0.  1.
     999901    1    3    3    0    0 -0.59264200159E-01 -0.13232039940E+00  0.99012522794E-02  0.89191870051E+00  0.88000000000E+00 0. -1.
        -11    1    4    4    0    0  0.16354284819E-01  0.52305594192E-01 -0.13209274839E-01  0.56374496703E-01  0.51100000000E-03 0. -1.
         11    1    4    4    0    0  0.23368925926E-01  0.68855615813E-01  0.60564933431E-02  0.72966737357E-01  0.51100000000E-03 0.  1.
</event>
<event>
 8    1  0.1163913E+005  0.1043930E+01  0.7957747E-01            NaN
         13   -1    0    0    0    0  0.00000000000E+00  0.00000000000E+00  0.74505805969E-08  0.10566000000E+00  0.10566000000E+00 0.  1.
     999900   -1    0    0    0    0 -0.00000000000E+00 -0.00000000000E+00 -0.74505805969E-08  0.93827000000E+00  0.93827000000E+00 0. -1.
     999902    2    1    2    0    0  0.21497402244E-01  0.69894678060E-02  0.69759544417E-02  0.10202729735E+01  0.10199986694E+01 0.  0.
     999903    2    3    3    0    0  0.10474290451E+00 -0.68396276231E-01  0.39141557732E-01  0.13255260642E+00  0.19723216787E-01 0.  0.
         14    1    1    2    0    0 -0.21497402244E-01 -0.69894678060E-02 -0.69759544417E-02  0.23657026521E-01  0.00000000000E+00 0. -1.
     999901    1    3    3    0    0 -0.83245502265E-01  0.75385744037E-01 -0.32165603290E-01  0.88772036706E+00  0.88000000000E+00 0.  1.
        -11    1    4    4    0    0  0.50958371230E-01 -0.34262399641E-01  0.89503212519E-02  0.62056724044E-01  0.51100000000E-03 0.  1.
         11    1    4    4    0    0  0.53784533279E-01 -0.34133876590E-01  0.30191236480E-01  0.70495882379E-01  0.51100000000E-03 0. -1.
</event>
<event>
 8    1  0.1163913E+005  0.1043930E+01  0.7957747E-01            NaN
         13   -1    0    0    0    0  0.00000000000E+00  0.00000000000E+00  0.74505805969E-08  0.10566000000E+00  0.10566000000E+00 0.  1.
     999900   -1    0    0    0    0 -0.00000000000E+00 -0.00000000000E+00 -0.74505805969E-08  0.93827000000E+00  0.93827000000E+00 0. -1.
     999902    2    1    2    0    0  0.43899744725E-02 -0.11002305394E-01  0.20171708479E-01  0.10205372570E+01  0.10202691177E+01 0.  0.
     999903    2    3    3    0    0  0.76780060982E-01  0.34697941829E-01  0.10058823335E+00  0.13273341909E+00  0.20026056118E-01 0.  0.
         14    1    1    2    0    0 -0.43899744725E-02  0.11002305394E-01 -0.20171708479E-01  0.23392742952E-01  0.00000000000E+00 0. -1.
     999901    1    3    3    0    0 -0.72390086510E-01 -0.45700247223E-01 -0.80416524869E-01  0.88780383796E+00  0.88000000000E+00 0. -1.
        -11    1    4    4    0    0  0.46321468241E-01  0.31051238636E-01  0.68632685799E-01  0.88433955706E-01  0.51100000000E-03 0. -1.
         11    1    4    4    0    0  0.30458592741E-01  0.36467031929E-02  0.31955547549E-01  0.44299463384E-01  0.51100000000E-03 0.  1.
</event>
<event>
 8    1  0.1163913E+005  0.1043930E+01  0.7957747E-01            NaN
         13   -1    0    0    0    0  0.00000000000E+00  0.00000000000E+00  0.74505805969E-08  0.10566000000E+00  0.10566000000E+00 0.  1.
     999900   -1    0    0    0    0 -0.00000000000E+00 -0.00000000000E+00 -0.74505805969E-08  0.93827000000E+00  0.93827000000E+00 0. -1.
     999902    2    1    2    0    0  0.79705322683E-02 -0.21312235870E-01  0.89315316427E-02  0.10194859201E+01  0.10191928318E+01 0.  0.
     999903    2    3    3    0    0  0.10762916968E-01 -0.12854122273E+00  0.25141403042E-01  0.13282442162E+00  0.19275645485E-01 0.  0.
         14    1    1    2    0    0 -0.79705322683E-02  0.21312235870E-01 -0.89315316427E-02  0.24444079854E-01  0.00000000000E+00 0. -1.
     999901    1    3    3    0    0 -0.27923846993E-02  0.10722898686E+00 -0.16209871400E-01  0.88666149853E+00  0.88000000000E+00 0. -1.
        -11    1    4    4    0    0  0.13367162151E-01 -0.83673595688E-01  0.23116831767E-01  0.87832799518E-01  0.51100000000E-03 0. -1.
         11    1    4    4    0    0 -0.26042451829E-02 -0.44867627045E-01  0.20245712752E-02  0.44991622103E-01  0.51100000000E-03 0.  1.
</event>
<event>
 8    1  0.1163913E+005  0.1043930E+01  0.7957747E-01            NaN
         13   -1    0    0    0    0  0.00000000000E+00  0.00000000000E+00  0.74505805969E-08  0.10566000000E+00  0.10566000000E+00 0.  1.
     999900   -1    0    0    0    0 -0.00000000000E+00 -0.00000000000E+00 -0.74505805969E-08  0.93827000000E+00  0.93827000000E+00 0. -1.
     999902    2    1    2    0    0 -0.78164807726E-02 -0.14967141635E-02  0.20288628707E-01  0.10221362858E+01  0.10219039195E+01 0.  0.
     999903    2    3    3    0    0  0.21697220893E-01  0.10230019893E+00 -0.75251269666E-01  0.13041170389E+00  0.20207890306E-01 0.  0.
         14    1    1    2    0    0  0.78164807726E-02  0.14967141635E-02 -0.20288628707E-01  0.21793714226E-01  0.00000000000E+00 0. -1.
     999901    1    3    3    0    0 -0.29513701666E-01 -0.10379691309E+00  0.95539898372E-01  0.89172458188E+00  0.88000000000E+00 0.  1.
        -11    1    4    4    0    0 -0.25947047546E-02  0.19393599755E-01 -0.90174086306E-02  0.21550382447E-01  0.51100000000E-03 0.  1.
         11    1    4    4    0    0  0.24291925648E-01  0.82906599172E-01 -0.66233861035E-01  0.10886132144E+00  0.51100000000E-03 0. -1.
</event>
<event>
 8    1  0.1163913E+005  0.1043930E+01  0.7957747E-01            NaN
         13   -1    0    0    0    0  0.00000000000E+00  0.00000000000E+00  0.74505805969E-08  0.10566000000E+00  0.10566000000E+00 0.  1.
     999900   -1    0    0    0    0 -0.00000000000E+00 -0.00000000000E+00 -0.74505805969E-08  0.93827000000E+00  0.93827000000E+00 0. -1.
     999902    2    1    2    0    0 -0.17255736211E-01 -0.10262245781E-01 -0.10900612513E-01  0.10210849245E+01  0.10208293323E+01 0.  0.
     999903    2    3    3    0    0 -0.54130402413E-02  0.10325107416E+00  0.74917257495E-01  0.12957484041E+00  0.22067135647E-01 0.  0.
         14    1    1    2    0    0  0.17255736211E-01  0.10262245781E-01  0.10900612513E-01  0.22845075483E-01  0.00000000000E+00 0.  1.
     999901    1    3    3    0    0 -0.11842695970E-01 -0.11351331995E+00 -0.85817870009E-01  0.89151008411E+00  0.88000000000E+00 0. -1.
        -11    1    4    4    0    0  0.11235276070E-02  0.54603279260E-01  0.51957157748E-01  0.75382940925E-01  0.51100000000E-03 0.  1.
         11    1    4    4    0    0 -0.65365678483E-02  0.48647794905E-01  0.22960099747E-01  0.54191899484E-01  0.51100000000E-03 0. -1.
</event>
<event>
 8    1  0.1163913E+005  0.1043930E+01  0.7957747E-01            NaN
         13   -1    0    0    0    0  0.00000000000E+00  0.00000000000E+00  0.74505805969E-08  0.10566000000E+00  0.10566000000E+00 0. -1.
     999900   -1    0    0    0    0 -0.00000000000E+00 -0.00000000000E+00 -0.74505805969E-08  0.93827000000E+00  0.93827000000E+00 0.  1.
     999902    2    1    2    0    0 -0.19581425442E-02  0.22027281853E-01 -0.47167367948E-02  0.10213184305E+01  0.10210680944E+01 0.  0.
     999903    2    3    3    0    0  0.93607117017E-01 -0.51915568735E-01 -0.71828261367E-01  0.13052989180E+00  0.20524007649E-01 0.  0.
         14    1    1    2    0    0  0.19581425442E-02 -0.22027281853E-01  0.47167367948E-02  0.22611569474E-01  0.00000000000E+00 0. -1.
     999901    1    3    3    0    0 -0.95565259561E-01  0.73942850589E-01  0.67111524572E-01  0.89078853872E+00  0.88000000000E+00 0. -1.
        -11    1    4    4    0    0  0.17960228262E-02 -0.46765159068E-02 -0.69634769236E-02  0.85934062446E-02  0.51100000000E-03 0. -1.
         11    1    4    4    0    0  0.91811094191E-01 -0.47239052829E-01 -0.64864784444E-01  0.12193648556E+00  0.51100000000E-03 0.  1.
</event>
<event>
 7    1  0.1431157E+005  0.1043930E+01  0.7957747E-01            NaN
         13   -1    0    0    0    0  0.00000000000E+00  0.00000000000E+00  0.74505805969E-08  0.10566000000E+00  0.10566000000E+00 0.  1.
     999900   -1    0    0    0    0 -0.00000000000E+00 -0.00000000000E+00 -0.74505805969E-08  0.93827000000E+00  0.93827000000E+00 0.  1.
     999903    2    1    2    0    0 -0.10046551326E+00 -0.14935958785E-01  0.28160448189E-01  0.10725907011E+00  0.19876998239E-01 0.  0.
         14    1    1    2    0    0 -0.33481715852E-01 -0.28447298881E-01  0.83920782257E-02  0.44729197253E-01  0.00000000000E+00 0.  1.
     999901    1    1    2    0    0  0.13394722911E+00  0.43383257665E-01 -0.36552526415E-01  0.89194173264E+00  0.88000000000E+00 0.  1.
        -11    1    3    3    0    0 -0.59841204713E-01 -0.25935796611E-03  0.21293984798E-01  0.63519539967E-01  0.51100000000E-03 0.  1.
         11    1    3    3    0    0 -0.40624308548E-01 -0.14676600819E-01  0.68664633907E-02  0.43739530142E-01  0.51100000000E-03 0. -1.
</event>
<event>
 8    1  0.1163913E+005  0.1043930E+01  0.7957747E-01            NaN
         13   -1    0    0    0    0  0.00000000000E+00  0.00000000000E+00  0.74505805969E-08  0.10566000000E+00  0.10566000000E+00 0. -1.
     999900   -1    0    0    0    0 -0.00000000000E+00 -0.00000000000E+00 -0.74505805969E-08  0.93827000000E+00  0.93827000000E+00 0.  1.
     999902    2    1    2    0    0  0.76648559215E-02  0.25289894481E-01  0.20464428810E-02  0.10174249683E+01  0.10170796671E+01 0.  0.
     999903    2    3    3    0    0 -0.19825390312E-01 -0.73577252516E-01 -0.98200181179E-01  0.12580856418E+00  0.19438648298E-01 0.  0.
         14    1    1    2    0    0 -0.76648559215E-02 -0.25289894481E-01 -0.20464428810E-02  0.26505031741E-01  0.00000000000E+00 0.  1.
     999901    1    3    3    0    0  0.27490246233E-01  0.98867146997E-01  0.10024662406E+00  0.89161640408E+00  0.88000000000E+00 0.  1.
        -11    1    4    4    0    0 -0.22749160899E-01 -0.54293319038E-01 -0.78031325145E-01  0.97746803726E-01  0.51100000000E-03 0. -1.
         11    1    4    4    0    0  0.29237705879E-02 -0.19283933478E-01 -0.20168856034E-01  0.28061760450E-01  0.51100000000E-03 0.  1.
</event>
<event>
 8    1  0.1163913E+005  0.1043930E+01  0.7957747E-01            NaN
         13   -1    0    0    0    0  0.00000000000E+00  0.00000000000E+00  0.74505805969E-08  0.10566000000E+00  0.10566000000E+00 0. -1.
     999900   -1    0    0    0    0 -0.00000000000E+00 -0.00000000000E+00 -0.74505805969E-08  0.93827000000E+00  0.93827000000E+00 0. -1.
     999902    2    1    2    0    0  0.39266688447E-02 -0.22513894834E-01 -0.58458872667E-02  0.10203404136E+01  0.10200676894E+01 0.  0.
     999903    2    3    3    0    0 -0.60205316104E-01  0.10098990534E+00 -0.47812288689E-01  0.12841705422E+00  0.19526489630E-01 0.  0.
         14    1    1    2    0    0 -0.39266688447E-02  0.22513894834E-01  0.58458872667E-02  0.23589586404E-01  0.00000000000E+00 0.  1.
     999901    1    3    3    0    0  0.64131984949E-01 -0.12350380017E+00  0.41966401422E-01  0.89192335938E+00  0.88000000000E+00 0. -1.
        -11    1    4    4    0    0 -0.51882454043E-02  0.16921229963E-01 -0.14547597307E-02  0.17765791869E-01  0.51100000000E-03 0. -1.
         11    1    4    4    0    0 -0.55017070700E-01  0.84068675376E-01 -0.46357528958E-01  0.11065126235E+00  0.51100000000E-03 0.  1.
</event>
<event>
 8    1  0.1163913E+005  0.1043930E+01  0.7957747E-01            NaN
         13   -1    0    0    0    0  0.00000000000E+00  0.00000000000E+00  0.74505805969E-08  0.10566000000E+00  0.10566000000E+00 0. -1.
     999900   -1    0    0    0    0 -0.00000000000E+00 -0.00000000000E+00 -0.74505805969E-08  0.93827000000E+00  0.93827000000E+00 0.  1.
     999902    2    1    2    0    0  0.75714006443E-02 -0.23690577849E-01 -0.52080769701E-02  0.10185194972E+01  0.10182024713E+01 0.  0.
     999903    2    3    3    0    0  0.38814429821E-02  0.12062386687E+00 -0.31114767894E-01  0.12638081327E+00  0.20947513519E-01 0.  0.
         14    1    1    2    0    0 -0.75714006443E-02  0.23690577849E-01  0.52080769701E-02  0.25410502795E-01  0.00000000000E+00 0. -1.
     999901    1    3    3    0    0  0.36899576622E-02 -0.14431444472E+00  0.25906690924E-01  0.89213868394E+00  0.88000000000E+00 0. -1.
        -11    1    4    4    0    0  0.19929138862E-02  0.74415917588E-01 -0.29580635878E-01  0.80106027465E-01  0.51100000000E-03 0.  1.
         11    1    4    4    0    0  0.18885290959E-02  0.46207949283E-01 -0.15341320158E-02  0.46274785803E-01  0.51100000000E-03 0. -1.
</event>
<event>
 8    1  0.1163913E+005  0.1043930E+01  0.7957747E-01            NaN
         13   -1    0    0    0    0  0.00000000000E+00  0.00000000000E+00  0.74505805969E-08  0.10566000000E+00  0.10566000000E+00 0.  1.
     999900   -1    0    0    0    0 -0.00000000000E+00 -0.00000000000E+00 -0.74505805969E-08  0.93827000000E+00  0.93827000000E+00 0.  1.
     999902    2    1    2    0    0  0.31567584925E-01 -0.45205044908E-02 -0.10338019214E-02  0.10120236350E+01  0.10115205493E+01 0.  0.
     999903    2    3    3    0    0 -0.43814426111E-01 -0.55231951172E-01  0.97287083677E-01  0.12189943305E+00  0.20601523296E-01 0.  0.
         14    1    1    2    0    0 -0.31567584925E-01  0.45205044908E-02  0.10338019214E-02  0.31906364965E-01  0.00000000000E+00 0. -1.
     999901    1    3    3    0    0  0.75382011036E-01  0.50711446681E-01 -0.98320885599E-01  0.89012420198E+00  0.88000000000E+00 0.  1.
        -11    1    4    4    0    0 -0.22977887141E-01 -0.42617008994E-01  0.56693910756E-01  0.74556377265E-01  0.51100000000E-03 0.  1.
         11    1    4    4    0    0 -0.20836538969E-01 -0.12614942178E-01  0.40593172921E-01  0.47343055786E-01  0.51100000000E-03 0. -1.
</event>
<event>
 8    1  0.1163913E+005  0.1043930E+01  0.7957747E-01            NaN
         13   -1    0    0    0    0  0.00000000000E+00  0.00000000000E+00  0.74505805969E-08  0.10566000000E+00  0.10566000000E+00 0.  1.
     999900   -1    0    0    0    0 -0.00000000000E+00 -0.00000000000E+00 -0.74505805969E-08  0.93827000000E+00  0.93827000000E+00 0.  1.
     999902    2    1    2    0    0 -0.26327514943E-02 -0.13623015551E-01  0.19342329433E-01  0.10201257222E+01  0.10198479521E+01 0.  0.
     999903    2    3    3    0    0  0.54889992284E-02  0.86243826355E-01  0.96295204168E-01  0.13110317251E+00  0.21145893210E-01 0.  0.
         14    1    1    2    0    0  0.26327514943E-02  0.13623015551E-01 -0.19342329433E-01  0.23804277788E-01  0.00000000000E+00 0. -1.
     999901    1    3    3    0    0 -0.81217507227E-02 -0.99866841906E-01 -0.76952874735E-01  0.88902254970E+00  0.88000000000E+00 0.  1.
        -11    1    4    4    0    0  0.12188781792E-01  0.48143424668E-01  0.46414970064E-01  0.67977689776E-01  0.51100000000E-03 0. -1.
         11    1    4    4    0    0 -0.66997825633E-02  0.38100401687E-01  0.49880234104E-01  0.63125482734E-01  0.51100000000E-03 0.  1.
</event>
<event>
 8    1  0.1163913E+005  0.1043930E+01  0.7957747E-01            NaN
         13   -1    0    0    0    0  0.00000000000E+00  0.00000000000E+00  0.74505805969E-08  0.10566000000E+00  0.10566000000E+00 0.  1.
     999900   -1    0    0    0    0 -0.00000000000E+00 -0.00000000000E+00 -0.74505805969E-08  0.93827000000E+00  0.93827000000E+00 0. -1.
     999902    2    1    2    0    0 -0.19097715296E-01 -0.90047641994E-02 -0.10402893739E-01  0.10203921856E+01  0.10201206712E+01 0.  0.
     999903    2    3    3    0    0  0.11801124140E+00 -0.47411927299E-01  0.41486230870E-02  0.12882854637E+00  0.20125589156E-01 0.  0.
         14    1    1    2    0    0  0.19097715296E-01  0.90047641994E-02  0.10402893739E-01  0.23537814383E-01  0.00000000000E+00 0.  1.
     999901    1    3    3    0    0 -0.13710895670E+00  0.38407163099E-01 -0.14551516826E-01  0.89156363925E+00  0.88000000000E+00 0.  1.
        -11    1    4    4    0    0  0.64327346620E-01 -0.16915179793E-01  0.78294954486E-02  0.66975315980E-01  0.51100000000E-03 0.  1.
         11    1    4    4    0    0  0.53683894782E-01 -0.30496747505E-01 -0.36808723616E-02  0.61853230390E-01  0.51100000000E-03 0. -1.
</event>
<event>
 8    1  0.1163913E+005  0.1043930E+01  0.7957747E-01            NaN
         13   -1    0    0    0    0  0.00000000000E+00  0.00000000000E+00  0.74505805969E-08  0.10566000000E+00  0.10566000000E+00 0.  1.
     999900   -1    0    0    0    0 -0.00000000000E+00 -0.00000000000E+00 -0.74505805969E-08  0.93827000000E+00  0.93827000000E+00 0.  1.
     999902    2    1    2    0    0 -0.92929004704E-02 -0.71495657149E-02 -0.20677893286E-01  0.10201592289E+01  0.10198822494E+01 0.  0.
     999903    2    3    3    0    0 -0.37597713845E-01  0.95657599396E-01  0.74637746945E-01  0.12861251281E+00  0.20159880294E-01 0.  0.
         14    1    1    2    0    0  0.92929004704E-02  0.71495657149E-02  0.20677893286E-01  0.23770771123E-01  0.00000000000E+00 0.  1.
     999901    1    3    3    0    0  0.28304813374E-01 -0.10280716511E+00 -0.95315640231E-01  0.89154671607E+00  0.88000000000E+00 0.  1.
        -11    1    4    4    0    0 -0.34105373673E-01  0.83806213057E-01  0.72754804855E-01  0.11610417999E+00  0.51100000000E-03 0. -1.
         11    1    4    4    0    0 -0.34923401717E-02  0.11851386339E-01  0.18829420898E-02  0.12508332820E-01  0.51100000000E-03 0.  1.
</event>
<event>
 8    1  0.1163913E+005  0.1043930E+01  0.7957747E-01            NaN
         13   -1    0    0    0    0  0.00000000000E+00  0.00000000000E+00  0.74505805969E-08  0.10566000000E+00  0.10566000000E+00 0.  1.
     999900   -1    0    0    0    0 -0.00000000000E+00 -0.00000000000E+00 -0.74505805969E-08  0.93827000000E+00  0.93827000000E+00 0. -1.
     999902    2    1    2    0    0 -0.14014691209E-01 -0.18491783364E-01  0.50962558899E-02  0.10201743808E+01  0.10198977585E+01 0.  0.
     999903    2    3    3    0    0 -0.51846396474E-01 -0.12084628733E+00 -0.86775499080E-02  0.13332749423E+00  0.20224906877E-01 0.  0.
         14    1    1    2    0    0  0.14014691209E-01  0.18491783364E-01 -0.50962558899E-02  0.23755619246E-01  0.00000000000E+00 0. -1.
     999901    1    3    3    0    0  0.37831705265E-01  0.10235450396E+00  0.13773805798E-01  0.88684688652E+00  0.88000000000E+00 0.  1.
        -11    1    4    4    0    0 -0.38904336942E-01 -0.74172251421E-01 -0.12734245751E-01  0.84720082918E-01  0.51100000000E-03 0.  1.
         11    1    4    4    0    0 -0.12942059532E-01 -0.46674035906E-01  0.40566958428E-02  0.48607411316E-01  0.51100000000E-03 0. -1.
</event>
<event>
 8    1  0.1163913E+005  0.1043930E+01  0.7957747E-01            NaN
         13   -1    0    0    0    0  0.00000000000E+00  0.00000000000E+00  0.74505805969E-08  0.10566000000E+00  0.10566000000E+00 0.  1.
     999900   -1    0    0    0    0 -0.00000000000E+00 -0.00000000000E+00 -0.74505805969E-08  0.93827000000E+00  0.93827000000E+00 0. -1.
     999902    2    1    2    0    0  0.15090993210E-01 -0.10258924049E-01  0.14249057641E-01  0.10207779106E+01  0.10205153226E+01 0.  0.
     999903    2    3    3    0    0  0.10599877543E+00 -0.78351166444E-01  0.84619661409E-02  0.13345932704E+00  0.19108674132E-01 0.  0.
         14    1    1    2    0    0 -0.15090993210E-01  0.10258924049E-01 -0.14249057641E-01  0.23152089374E-01  0.00000000000E+00 0. -1.
     999901    1    3    3    0    0 -0.90907782225E-01  0.68092242395E-01  0.57870915004E-02  0.88731858358E+00  0.88000000000E+00 0. -1.
        -11    1    4    4    0    0  0.13625207068E-01 -0.61259441988E-02  0.61895439932E-02  0.16178536269E-01  0.51100000000E-03 0.  1.
         11    1    4    4    0    0  0.92373568367E-01 -0.72225222246E-01  0.22724221477E-02  0.11728079077E+00  0.51100000000E-03 0. -1.
</event>
<event>
 8    1  0.1163913E+005  0.1043930E+01  0.7957747E-01            NaN
         13   -1    0    0    0    0  0.00000000000E+00  0.00000000000E+00  0.74505805969E-08  0.10566000000E+00  0.10566000000E+00 0.  1.
     999900   -1    0    0    0    0 -0.00000000000E+00 -0.00000000000E+00 -0.74505805969E-08  0.93827000000E+00  0.93827000000E+00 0.  1.
     999902    2    1    2    0    0 -0.19021927119E-01  0.22047677832E-02 -0.14742807809E-01  0.10197629751E+01  0.10194765717E+01 0.  0.
     999903    2    3    3    0    0  0.29317827243E-01 -0.12423549753E+00  0.41300445243E-02  0.12921255139E+00  0.19617143739E-01 0.  0.
         14    1    1    2    0    0  0.19021927119E-01 -0.22047677832E-02  0.14742807809E-01  0.24167024939E-01  0.00000000000E+00 0. -1.
     999901    1    3    3    0    0 -0.48339754362E-01  0.12644026531E+00 -0.18872852334E-01  0.89055042367E+00  0.88000000000E+00 0.  1.
        -11    1    4    4    0    0  0.76585142432E-02 -0.73834646392E-01  0.52979823990E-03  0.74234423655E-01  0.51100000000E-03 0.  1.
         11    1    4    4    0    0  0.21659312999E-01 -0.50400851138E-01  0.36002462844E-02  0.54978127736E-01  0.51100000000E-03 0. -1.
</event>
<event>
 8    1  0.1163913E+005  0.1043930E+01  0.7957747E-01            NaN
         13   -1    0    0    0    0  0.00000000000E+00  0.00000000000E+00  0.74505805969E-08  0.10566000000E+00  0.10566000000E+00 0.  1.
     999900   -1    0    0    0    0 -0.00000000000E+00 -0.00000000000E+00 -0.74505805969E-08  0.93827000000E+00  0.93827000000E+00 0. -1.
     999902    2    1    2    0    0  0.55441023316E-02  0.24477319583E-02  0.22709153887E-01  0.10204260826E+01  0.10201553587E+01 0.  0.
     999903    2    3    3    0    0 -0.51129051224E-01  0.11823240445E+00 -0.78104102449E-02  0.13051070432E+00  0.19466897352E-01 0.  0.
         14    1    1    2    0    0 -0.55441023316E-02 -0.24477319583E-02 -0.22709153887E-01  0.23503917390E-01  0.00000000000E+00 0. -1.
     999901    1    3    3    0    0  0.56673153555E-01 -0.11578467250E+00  0.30519564132E-01  0.88991537829E+00  0.88000000000E+00 0.  1.
        -11    1    4    4    0    0 -0.17686112805E-01  0.30336677895E-01 -0.97450757947E-02  0.36446402224E-01  0.51100000000E-03 0.  1.
         11    1    4    4    0    0 -0.33442938419E-01  0.87895726558E-01  0.19346655498E-02  0.94064302097E-01  0.51100000000E-03 0. -1.
</event>
<event>
 8    1  0.1163913E+005  0.1043930E+01  0.7957747E-01            NaN
         13   -1    0    0    0    0  0.00000000000E+00  0.00000000000E+00  0.74505805969E-08  0.10566000000E+00  0.10566000000E+00 0. -1.
     999900   -1    0    0    0    0 -0.00000000000E+00 -0.00000000000E+00 -0.74505805969E-08  0.93827000000E+00  0.93827000000E+00 0. -1.
     999902    2    1    2    0    0 -0.78328540976E-02  0.34409048150E-02 -0.19556600048E-01  0.10225839457E+01  0.10223611260E+01 0.  0.
     999903    2    3    3    0    0 -0.34202439833E-02  0.21337971122E-01  0.12704731279E+00  0.13026534599E+00  0.19000884145E-01 0.  0.
         14    1    1    2    0    0  0.78328540976E-02 -0.34409048150E-02  0.19556600048E-01  0.21346054312E-01  0.00000000000E+00 0. -1.
     999901    1    3    3    0    0 -0.44126101143E-02 -0.17897066307E-01 -0.14660391284E+00  0.89231859970E+00  0.88000000000E+00 0. -1.
        -11    1    4    4    0    0 -0.24918672878E-02  0.20316838281E-01  0.63888272711E-01  0.67089163293E-01  0.51100000000E-03 0.  1.
         11    1    4    4    0    0 -0.92837669549E-03  0.10211328418E-02  0.63159040077E-01  0.63176182696E-01  0.51100000000E-03 0. -1.
</event>
<event>
 8    1  0.1163913E+005  0.1043930E+01  0.7957747E-01            NaN
         13   -1    0    0    0    0  0.00000000000E+00  0.00000000000E+00  0.74505805969E-08  0.10566000000E+00  0.10566000000E+00 0.  1.
     999900   -1    0    0    0    0 -0.00000000000E+00 -0.00000000000E+00 -0.74505805969E-08  0.93827000000E+00  0.93827000000E+00 0.  1.
     999902    2    1    2    0    0 -0.45153384554E-02 -0.17587156419E-01 -0.15292721993E-01  0.10201905034E+01  0.10199142609E+01 0.  0.
     999903    2    3    3    0    0  0.12110312300E+00  0.13140950333E-01 -0.42480866850E-01  0.13032342928E+00  0.18464051456E-01 0.  0.
         14    1    1    2    0    0  0.45153384554E-02  0.17587156419E-01  0.15292721993E-01  0.23739496588E-01  0.00000000000E+00 0.  1.
     999901    1    3    3    0    0 -0.12561846145E+00 -0.30728106752E-01  0.27188144857E-01  0.88986707413E+00  0.88000000000E+00 0. -1.
        -11    1    4    4    0    0  0.47925824545E-01  0.13290906754E-01 -0.12830097038E-01  0.51365410265E-01  0.51100000000E-03 0. -1.
         11    1    4    4    0    0  0.73177298451E-01 -0.14995642110E-03 -0.29650769812E-01  0.78958019016E-01  0.51100000000E-03 0.  1.
</event>
<event>
 8    1  0.1163913E+005  0.1043930E+01  0.7957747E-01            NaN
         13   -1    0    0    0    0  0.00000000000E+00  0.00000000000E+00  0.74505805969E-08  0.10566000000E+00  0.10566000000E+00 0.  1.
     999900   -1    0    0    0    0 -0.00000000000E+00 -0.00000000000E+00 -0.74505805969E-08  0.93827000000E+00  0.93827000000E+00 0. -1.
     999902    2    1    2    0    0  0.88325468263E-03 -0.24188531700E-01  0.46854719471E-02  0.10192760175E+01  0.10189778119E+01 0.  0.
     999903    2    3    3    0    0  0.10106854707E-01  0.11017047345E+00 -0.58432749015E-01  0.12679558251E+00  0.20568224356E-01 0.  0.
         14    1    1    2    0    0 -0.88325468263E-03  0.24188531700E-01 -0.46854719471E-02  0.24653982478E-01  0.00000000000E+00 0.  1.
     999901    1    3    3    0    0 -0.92236000247E-02 -0.13435900515E+00  0.63118220962E-01  0.89248043501E+00  0.88000000000E+00 0.  1.
        -11    1    4    4    0    0 -0.94519207820E-03  0.44141290139E-01 -0.33220866809E-01  0.55256076550E-01  0.51100000000E-03 0.  1.
         11    1    4    4    0    0  0.11052046786E-01  0.66029183316E-01 -0.25211882206E-01  0.71539505959E-01  0.51100000000E-03 0. -1.
</event>
<event>
 8    1  0.1163913E+005  0.1043930E+01  0.7957747E-01            NaN
         13   -1    0    0    0    0  0.00000000000E+00  0.00000000000E+00  0.74505805969E-08  0.10566000000E+00  0.10566000000E+00 0. -1.
     999900   -1    0    0    0    0 -0.00000000000E+00 -0.00000000000E+00 -0.74505805969E-08  0.93827000000E+00  0.93827000000E+00 0. -1.
     999902    2    1    2    0    0  0.13757758731E-01 -0.15867060851E-01  0.88755410954E-02  0.10211305532E+01  0.10208759924E+01 0.  0.
     999903    2    3    3    0    0 -0.10031633668E+00  0.54706194571E-01  0.57567977299E-01  0.12963493515E+00  0.20856875899E-01 0.  0.
         14    1    1    2    0    0 -0.13757758731E-01  0.15867060851E-01 -0.88755410954E-02  0.22799446815E-01  0.00000000000E+00 0.  1.
     999901    1    3    3    0    0  0.11407409541E+00 -0.70573255422E-01 -0.48692436204E-01  0.89149561803E+00  0.88000000000E+00 0. -1.
        -11    1    4    4    0    0 -0.14542027208E-01  0.16555267679E-01  0.77943020464E-02  0.23378616482E-01  0.51100000000E-03 0.  1.
         11    1    4    4    0    0 -0.85774309474E-01  0.38150926893E-01  0.49773675253E-01  0.10625631867E+00  0.51100000000E-03 0. -1.
</event>
<event>
 8    1  0.1163913E+005  0.1043930E+01  0.7957747E-01            NaN
         13   -1    0    0    0    0  0.00000000000E+00  0.00000000000E+00  0.74505805969E-08  0.10566000000E+00  0.10566000000E+00 0.  1.
     999900   -1    0    0    0    0 -0.00000000000E+00 -0.00000000000E+00 -0.74505805969E-08  0.93827000000E+00  0.93827000000E+00 0.  1.
     999902    2    1    2    0    0  0.22382064972E-01  0.35831902639E-02  0.84786056614E-02  0.10197291149E+01  0.10194418988E+01 0.  0.
     999903    2    3    3    0    0  0.12095292269E+00 -0.50209839467E-01  0.58727076663E-02  0.13258950091E+00  0.19870822056E-01 0.  0.
         14    1    1    2    0    0 -0.22382064972E-01 -0.35831902639E-02 -0.84786056614E-02  0.24200885084E-01  0.00000000000E+00 0.  1.
     999901    1    3    3    0    0 -0.98570857717E-01  0.53793029731E-01  0.26058979951E-02  0.88713961401E+00  0.88000000000E+00 0. -1.
        -11    1    4    4    0    0  0.10160445406E+00 -0.33803057033E-01  0.51954065452E-02  0.10720711320E+00  0.51100000000E-03 0.  1.
         11    1    4    4    0    0  0.19348468628E-01 -0.16406782434E-01  0.67730112116E-03  0.25382387711E-01  0.51100000000E-03 0. -1.
</event>
<event>
 8    1  0.1163913E+005  0.1043930E+01  0.7957747E-01            NaN
         13   -1    0    0    0    0  0.00000000000E+00  0.00000000000E+00  0.74505805969E-08  0.10566000000E+00  0.10566000000E+00 0.  1.
     999900   -1    0    0    0    0 -0.00000000000E+00 -0.00000000000E+00 -0.74505805969E-08  0.93827000000E+00  0.93827000000E+00 0.  1.
     999902    2    1    2    0    0 -0.18049507479E-01  0.11825070257E-01  0.84206901033E-02  0.10207669901E+01  0.10205041514E+01 0.  0.
     999903    2    3    3    0    0  0.98187091507E-01 -0.59215547146E-01 -0.53565460302E-01  0.12813044640E+00  0.20024155298E-01 0.  0.
         14    1    1    2    0    0  0.18049507479E-01 -0.11825070257E-01 -0.84206901033E-02  0.23163009921E-01  0.00000000000E+00 0. -1.
     999901    1    3    3    0    0 -0.11623659899E+00  0.71040617403E-01  0.61986150405E-01  0.89263654368E+00  0.88000000000E+00 0.  1.
        -11    1    4    4    0    0  0.42813040448E-01 -0.25840028126E-01 -0.12543232281E-01  0.51558290148E-01  0.51100000000E-03 0. -1.
         11    1    4    4    0    0  0.55374051059E-01 -0.33375519020E-01 -0.41022228021E-01  0.76572156254E-01  0.51100000000E-03 0.  1.
</event>
<event>
 8    1  0.1163913E+005  0.1043930E+01  0.7957747E-01            NaN
         13   -1    0    0    0    0  0.00000000000E+00  0.00000000000E+00  0.74505805969E-08  0.10566000000E+00  0.10566000000E+00 0.  1.
     999900   -1    0    0    0    0 -0.00000000000E+00 -0.00000000000E+00 -0.74505805969E-08  0.93827000000E+00  0.93827000000E+00 0.  1.
     999902    2    1    2    0    0  0.15623734027E-01 -0.17336598692E-01 -0.27130643016E-02  0.10204349061E+01  0.10201643878E+01 0.  0.
     999903    2    3    3    0    0  0.11529453180E-01 -0.51535823663E-01 -0.11940593384E+00  0.13206360089E+00  0.19853166819E-01 0.  0.
         14    1    1    2    0    0 -0.15623734027E-01  0.17336598692E-01  0.27130643016E-02  0.23495093894E-01  0.00000000000E+00 0. -1.
     999901    1    3    3    0    0  0.40942808471E-02  0.34199224971E-01  0.11669286954E+00  0.88837130521E+00  0.88000000000E+00 0. -1.
        -11    1    4    4    0    0 -0.25861309483E-02 -0.29245879362E-01 -0.52718364951E-01  0.60344814666E-01  0.51100000000E-03 0.  1.
         11    1    4    4    0    0  0.14115584128E-01 -0.22289944301E-01 -0.66687568892E-01  0.71718786227E-01  0.51100000000E-03 0. -1.
</event>
<event>
 8    1  0.1163913E+005  0.1043930E+01  0.7957747E-01            NaN
         13   -1    0    0    0    0  0.00000000000E+00  0.00000000000E+00  0.74505805969E-08  0.10566000000E+00  0.10566000000E+00 0.  1.
     999900   -1    0    0    0    0 -0.00000000000E+00 -0.00000000000E+00 -0.74505805969E-08  0.93827000000E+00  0.93827000000E+00 0.  1.
     999902    2    1    2    0    0  0.14839605752E-01  0.18775324997E-01 -0.11780928430E-03  0.10199980004E+01  0.10197172060E+01 0.  0.
     999903    2    3    3    0    0  0.50725596878E-01 -0.59103961618E-01 -0.10226375308E+00  0.12994924806E+00  0.19041203196E-01 0.  0.
         14    1    1    2    0    0 -0.14839605752E-01 -0.18775324997E-01  0.11780928430E-03  0.23931999638E-01  0.00000000000E+00 0. -1.
     999901    1    3    3    0    0 -0.35885991127E-01  0.77879286616E-01  0.10214594380E+00  0.89004875230E+00  0.88000000000E+00 0. -1.
        -11    1    4    4    0    0  0.59429114625E-02 -0.16180811321E-01 -0.30952153234E-01  0.35432100735E-01  0.51100000000E-03 0. -1.
         11    1    4    4    0    0  0.44782685416E-01 -0.42923150297E-01 -0.71311599847E-01  0.94517147324E-01  0.51100000000E-03 0.  1.
</event>
<event>
 8    1  0.1163913E+005  0.1043930E+01  0.7957747E-01            NaN
         13   -1    0    0    0    0  0.00000000000E+00  0.00000000000E+00  0.74505805969E-08  0.10566000000E+00  0.10566000000E+00 0.  1.
     999900   -1    0    0    0    0 -0.00000000000E+00 -0.00000000000E+00 -0.74505805969E-08  0.93827000000E+00  0.93827000000E+00 0.  1.
     999902    2    1    2    0    0 -0.22898491391E-01 -0.15506113959E-02 -0.69227363842E-02  0.10199577331E+01  0.10196759817E+01 0.  0.
     999903    2    3    3    0    0  0.34800108024E-01 -0.42070363436E-01  0.11501374392E+00  0.12875658633E+00  0.19212866434E-01 0.  0.
         14    1    1    2    0    0  0.22898491391E-01  0.15506113959E-02  0.69227363842E-02  0.23972266950E-01  0.00000000000E+00 0.  1.
     999901    1    3    3    0    0 -0.57698599415E-01  0.40519752041E-01 -0.12193648030E+00  0.89120114672E+00  0.88000000000E+00 0.  1.
        -11    1    4    4    0    0  0.12554811806E-01 -0.23661439321E-01  0.37902589748E-01  0.46415023869E-01  0.51100000000E-03 0. -1.
         11    1    4    4    0    0  0.22245296219E-01 -0.18408924116E-01  0.77111154169E-01  0.82341562465E-01  0.51100000000E-03 0.  1.
</event>
<event>
 8    1  0.1163913E+005  0.1043930E+01  0.7957747E-01            NaN
         13   -1    0    0    0    0  0.00000000000E+00  0.00000000000E+00  0.74505805969E-08  0.10566000000E+00  0.10566000000E+00 0. -1.
     999900   -1    0    0    0    0 -0.00000000000E+00 -0.00000000000E+00 -0.74505805969E-08  0.93827000000E+00  0.93827000000E+00 0. -1.
     999902    2    1    2    0    0 -0.78218641037E-02  0.19895746879E-01 -0.47514659690E-02  0.10220302573E+01  0.10217956000E+01 0.  0.
     999903    2    3    3    0    0 -0.12571032099E+00 -0.15116382136E-01 -0.35408266355E-01  0.13295018392E+00  0.19758954122E-01 0.  0.
         14    1    1    2    0    0  0.78218641037E-02 -0.19895746879E-01  0.47514659690E-02  0.21899742710E-01  0.00000000000E+00 0. -1.
     999901    1    3    3    0    0  0.11788845688E+00  0.35012129015E-01  0.30656800386E-01  0.88908007336E+00  0.88000000000E+00 0.  1.
        -11    1    4    4    0    0 -0.10526633259E+00 -0.19187838948E-01 -0.26243648492E-01  0.11017333683E+00  0.51100000000E-03 0.  1.
         11    1    4    4    0    0 -0.20443988392E-01  0.40714568123E-02 -0.91646178628E-02  0.22776847094E-01  0.51100000000E-03 0. -1.
</event>
<event>
 8    1  0.1163913E+005  0.1043930E+01  0.7957747E-01            NaN
         13   -1    0    0    0    0  0.00000000000E+00  0.00000000000E+00  0.74505805969E-08  0.10566000000E+00  0.10566000000E+00 0.  1.
     999900   -1    0    0    0    0 -0.00000000000E+00 -0.00000000000E+00 -0.74505805969E-08  0.93827000000E+00  0.93827000000E+00 0.  1.
     999902    2    1    2    0    0 -0.11325230632E-01 -0.86867230805E-02  0.97764246682E-02  0.10266297547E+01  0.10264839769E+01 0.  0.
     999903    2    3    3    0    0 -0.47233368113E-01  0.87303540580E-01 -0.89593221526E-01  0.13512661305E+00  0.19477087832E-01 0.  0.
         14    1    1    2    0    0  0.11325230632E-01  0.86867230805E-02 -0.97764246682E-02  0.17300245260E-01  0.00000000000E+00 0. -1.
     999901    1    3    3    0    0  0.35908137481E-01 -0.95990263661E-01  0.99369646194E-01  0.89150314169E+00  0.88000000000E+00 0.  1.
        -11    1    4    4    0    0 -0.23075729770E-01  0.24360877521E-01 -0.33563013265E-01  0.47462391832E-01  0.51100000000E-03 0. -1.
         11    1    4    4    0    0 -0.24157638343E-01  0.62942663060E-01 -0.56030208261E-01  0.87664221220E-01  0.51100000000E-03 0.  1.
</event>
<event>
 8    1  0.1163913E+005  0.1043930E+01  0.7957747E-01            NaN
         13   -1    0    0    0    0  0.00000000000E+00  0.00000000000E+00  0.74505805969E-08  0.10566000000E+00  0.10566000000E+00 0.  1.
     999900   -1    0    0    0    0 -0.00000000000E+00 -0.00000000000E+00 -0.74505805969E-08  0.93827000000E+00  0.93827000000E+00 0.  1.
     999902    2    1    2    0    0 -0.18457020599E-01  0.11543917247E-01 -0.84690137623E-02  0.10205708941E+01  0.10203035343E+01 0.  0.
     999903    2    3    3    0    0  0.51890465153E-02 -0.10540030103E+00  0.71105031511E-01  0.12896161007E+00  0.20952844751E-01 0.  0.
         14    1    1    2    0    0  0.18457020599E-01 -0.11543917247E-01  0.84690137623E-02  0.23359105909E-01  0.00000000000E+00 0. -1.
     999901    1    3    3    0    0 -0.23646067114E-01  0.11694421828E+00 -0.79574045273E-01  0.89160928403E+00  0.88000000000E+00 0.  1.
        -11    1    4    4    0    0 -0.64972210728E-02 -0.43279251690E-01  0.35895652492E-01  0.56604474181E-01  0.51100000000E-03 0. -1.
         11    1    4    4    0    0  0.11686267588E-01 -0.62121049342E-01  0.35209379019E-01  0.72357135884E-01  0.51100000000E-03 0.  1.
</event>
<event>
 8    1  0.1163913E+005  0.1043930E+01  0.7957747E-01            NaN
         13   -1    0    0    0    0  0.00000000000E+00  0.00000000000E+00  0.74505805969E-08  0.10566000000E+00  0.10566000000E+00 0.  1.
     999900   -1    0    0    0    0 -0.00000000000E+00 -0.00000000000E+00 -0.74505805969E-08  0.93827000000E+00  0.93827000000E+00 0. -1.
     999902    2    1    2    0    0 -0.26573123196E-02 -0.74885572879E-02  0.21505654747E-01  0.10210033128E+01  0.10207458703E+01 0.  0.
     999903    2    3    3    0    0 -0.22088127004E-01  0.12680645345E+00  0.78234784667E-02  0.13049788981E+00  0.20018252632E-01 0.  0.
         14    1    1    2    0    0  0.26573123196E-02  0.74885572879E-02 -0.21505654747E-01  0.22926687182E-01  0.00000000000E+00 0. -1.
     999901    1    3    3    0    0  0.19430814685E-01 -0.13429501073E+00  0.13682176281E-01  0.89050542301E+00  0.88000000000E+00 0.  1.
        -11    1    4    4    0    0 -0.12006591349E-01  0.35953730298E-01 -0.48264286212E-02  0.38214977331E-01  0.51100000000E-03 0.  1.
         11    1    4    4    0    0 -0.10081535655E-01  0.90852723147E-01  0.12649907088E-01  0.92282912474E-01  0.51100000000E-03 0. -1.
</event>
<event>
 8    1  0.1163913E+005  0.1043930E+01  0.7957747E-01            NaN
         13   -1    0    0    0    0  0.00000000000E+00  0.00000000000E+00  0.74505805969E-08  0.10566000000E+00  0.10566000000E+00 0.  1.
     999900   -1    0    0    0    0 -0.00000000000E+00 -0.00000000000E+00 -0.74505805969E-08  0.93827000000E+00  0.93827000000E+00 0. -1.
     999902    2    1    2    0    0  0.15069863774E-01  0.18908921968E-01 -0.11694500822E-02  0.10197222381E+01  0.10194348567E+01 0.  0.
     999903    2    3    3    0    0 -0.37976424760E-01 -0.86821093131E-01 -0.83643198484E-01  0.12798535760E+00  0.20098658085E-01 0.  0.
         14    1    1    2    0    0 -0.15069863774E-01 -0.18908921968E-01  0.11694500822E-02  0.24207761929E-01  0.00000000000E+00 0.  1.
     999901    1    3    3    0    0  0.53046288534E-01  0.10573001510E+00  0.82473748402E-01  0.89173688047E+00  0.88000000000E+00 0.  1.
        -11    1    4    4    0    0 -0.36135821616E-01 -0.61487023720E-01 -0.58541192412E-01  0.92270168634E-01  0.51100000000E-03 0. -1.
         11    1    4    4    0    0 -0.18406031439E-02 -0.25334069411E-01 -0.25102006072E-01  0.35715188964E-01  0.51100000000E-03 0.  1.
</event>
<event>
 8    1  0.1163913E+005  0.1043930E+01  0.7957747E-01            NaN
         13   -1    0    0    0    0  0.00000000000E+00  0.00000000000E+00  0.74505805969E-08  0.10566000000E+00  0.10566000000E+00 0.  1.
     999900   -1    0    0    0    0 -0.00000000000E+00 -0.00000000000E+00 -0.74505805969E-08  0.93827000000E+00  0.93827000000E+00 0. -1.
     999902    2    1    2    0    0 -0.30241204142E-02 -0.53152720203E-02 -0.23291352299E-01  0.10198492086E+01  0.10195648699E+01 0.  0.
     999903    2    3    3    0    0 -0.98215358178E-01 -0.21891541640E-01 -0.83742790202E-01  0.13249892785E+00  0.20435625590E-01 0.  0.
         14    1    1    2    0    0  0.30241204142E-02  0.53152720203E-02  0.23291352299E-01  0.24080791366E-01  0.00000000000E+00 0.  1.
     999901    1    3    3    0    0  0.95191237764E-01  0.16576269620E-01  0.60451437904E-01  0.88735028078E+00  0.88000000000E+00 0.  1.
        -11    1    4    4    0    0 -0.78391938188E-01 -0.13562589963E-01 -0.55522504184E-01  0.97016748097E-01  0.51100000000E-03 0.  1.
         11    1    4    4    0    0 -0.19823419990E-01 -0.83289516767E-02 -0.28220286018E-01  0.35482179754E-01  0.51100000000E-03 0. -1.
</event>
<event>
 8    1  0.1163913E+005  0.1043930E+01  0.7957747E-01            NaN
         13   -1    0    0    0    0  0.00000000000E+00  0.00000000000E+00  0.74505805969E-08  0.10566000000E+00  0.10566000000E+00 0.  1.
     999900   -1    0    0    0    0 -0.00000000000E+00 -0.00000000000E+00 -0.74505805969E-08  0.93827000000E+00  0.93827000000E+00 0. -1.
     999902    2    1    2    0    0 -0.19236093978E-01  0.43082147600E-02  0.20701202389E-01  0.10153445525E+01  0.10149420834E+01 0.  0.
     999903    2    3    3    0    0  0.12834799698E-01  0.40838130346E-02  0.12609835168E+00  0.12847525459E+00  0.20583661819E-01 0.  0.
         14    1    1    2    0    0  0.19236093978E-01 -0.43082147600E-02 -0.20701202389E-01  0.28585447457E-01  0.00000000000E+00 0. -1.
     999901    1    3    3    0    0 -0.32070893675E-01  0.22440172542E-03 -0.10539714929E+00  0.88686929795E+00  0.88000000000E+00 0. -1.
        -11    1    4    4    0    0  0.82853039004E-02  0.11434546398E-01  0.52465951800E-01  0.54335369064E-01  0.51100000000E-03 0.  1.
         11    1    4    4    0    0  0.45494957971E-02 -0.73507333637E-02  0.73632399877E-01  0.74139885525E-01  0.51100000000E-03 0. -1.
</event>
<event>
 8    1  0.1163913E+005  0.1043930E+01  0.7957747E-01            NaN
         13   -1    0    0    0    0  0.00000000000E+00  0.00000000000E+00  0.74505805969E-08  0.10566000000E+00  0.10566000000E+00 0. -1.
     999900   -1    0    0    0    0 -0.00000000000E+00 -0.00000000000E+00 -0.74505805969E-08  0.93827000000E+00  0.93827000000E+00 0.  1.
     999902    2    1    2    0    0 -0.17044618195E-01  0.22964249450E-02 -0.16002958535E-01  0.10204377192E+01  0.10201672664E+01 0.  0.
     999903    2    3    3    0    0  0.15638757147E-01  0.12394584954E+00  0.30904090849E-01  0.13023153136E+00  0.19951054772E-01 0.  0.
         14    1    1    2    0    0  0.17044618195E-01 -0.22964249450E-02  0.16002958535E-01  0.23492280835E-01  0.00000000000E+00 0. -1.
     999901    1    3    3    0    0 -0.32683375342E-01 -0.12164942459E+00 -0.46907049383E-01  0.89020618781E+00  0.88000000000E+00 0.  1.
        -11    1    4    4    0    0  0.16855113773E-01  0.72237708628E-01  0.11912434541E-01  0.75130211139E-01  0.51100000000E-03 0.  1.
         11    1    4    4    0    0 -0.12163566262E-02  0.51708140908E-01  0.18991656308E-01  0.55101320220E-01  0.51100000000E-03 0. -1.
</event>
<event>
 8    1  0.1163913E+005  0.1043930E+01  0.7957747E-01            NaN
         13   -1    0    0    0    0  0.00000000000E+00  0.00000000000E+00  0.74505805969E-08  0.10566000000E+00  0.10566000000E+00 0. -1.
     999900   -1    0    0    0    0 -0.00000000000E+00 -0.00000000000E+00 -0.74505805969E-08  0.93827000000E+00  0.93827000000E+00 0.  1.
     999902    2    1    2    0    0  0.92421344267E-02  0.14264015862E-01 -0.17662765698E-01  0.10194177074E+01  0.10191229610E+01 0.  0.
     999903    2    3    3    0    0 -0.11860174240E+00  0.26839477287E-01 -0.41192009687E-01  0.12977967740E+00  0.18953948423E-01 0.  0.
         14    1    1    2    0    0 -0.92421344267E-02 -0.14264015862E-01  0.17662765698E-01  0.24512292618E-01  0.00000000000E+00 0. -1.
     999901    1    3    3    0    0  0.12784387683E+00 -0.12575461425E-01  0.23529243989E-01  0.88963802999E+00  0.88000000000E+00 0.  1.
        -11    1    4    4    0    0 -0.75122042621E-01  0.77036547348E-02 -0.23589180356E-01  0.79116231803E-01  0.51100000000E-03 0. -1.
         11    1    4    4    0    0 -0.43479699783E-01  0.19135822552E-01 -0.17602829331E-01  0.50663445593E-01  0.51100000000E-03 0.  1.
</event>
<event>
 8    1  0.1163913E+005  0.1043930E+01  0.7957747E-01            NaN
         13   -1    0    0    0    0  0.00000000000E+00  0.00000000000E+00  0.74505805969E-08  0.10566000000E+00  0.10566000000E+00 0.  1.
     999900   -1    0    0    0    0 -0.00000000000E+00 -0.00000000000E+00 -0.74505805969E-08  0.93827000000E+00  0.93827000000E+00 0.  1.
     999902    2    1    2    0    0 -0.96367325313E-02 -0.88160892184E-02  0.22322346999E-01  0.10180673393E+01  0.10177387829E+01 0.  0.
     999903    2    3    3    0    0  0.48250294970E-01 -0.78893520901E-01  0.90219015099E-01  0.13078400692E+00  0.20315195669E-01 0.  0.
         14    1    1    2    0    0  0.96367325313E-02  0.88160892184E-02 -0.22322346999E-01  0.25862660701E-01  0.00000000000E+00 0. -1.
     999901    1    3    3    0    0 -0.57887027501E-01  0.70077431683E-01 -0.67896668100E-01  0.88728333238E+00  0.88000000000E+00 0. -1.
        -11    1    4    4    0    0  0.31630463146E-01 -0.37378399260E-01  0.37670079172E-01  0.61781282893E-01  0.51100000000E-03 0. -1.
         11    1    4    4    0    0  0.16619831824E-01 -0.41515121642E-01  0.52548935927E-01  0.69002724025E-01  0.51100000000E-03 0.  1.
</event>
<event>
 8    1  0.1163913E+005  0.1043930E+01  0.7957747E-01            NaN
         13   -1    0    0    0    0  0.00000000000E+00  0.00000000000E+00  0.74505805969E-08  0.10566000000E+00  0.10566000000E+00 0. -1.
     999900   -1    0    0    0    0 -0.00000000000E+00 -0.00000000000E+00 -0.74505805969E-08  0.93827000000E+00  0.93827000000E+00 0.  1.
     999902    2    1    2    0    0  0.14588763887E-01 -0.11922533327E-01  0.14798434348E-01  0.10199722770E+01  0.10196908715E+01 0.  0.
     999903    2    3    3    0    0  0.96005683315E-02  0.12658561118E+00  0.12422338250E-01  0.12912154088E+00  0.20049188544E-01 0.  0.
         14    1    1    2    0    0 -0.14588763887E-01  0.11922533327E-01 -0.14798434348E-01  0.23957723010E-01  0.00000000000E+00 0.  1.
     999901    1    3    3    0    0  0.49881955553E-02 -0.13850814451E+00  0.23760960984E-02  0.89085073611E+00  0.88000000000E+00 0.  1.
        -11    1    4    4    0    0 -0.33784785562E-02  0.73984339338E-01  0.11363810687E-01  0.74929926592E-01  0.51100000000E-03 0. -1.
         11    1    4    4    0    0  0.12979046888E-01  0.52601271845E-01  0.10585275624E-02  0.54191614291E-01  0.51100000000E-03 0.  1.
</event>
<event>
 8    1  0.1163913E+005  0.1043930E+01  0.7957747E-01            NaN
         13   -1    0    0    0    0  0.00000000000E+00  0.00000000000E+00  0.74505805969E-08  0.10566000000E+00  0.10566000000E+00 0. -1.
     999900   -1    0    0    0    0 -0.00000000000E+00 -0.00000000000E+00 -0.74505805969E-08  0.93827000000E+00  0.93827000000E+00 0. -1.
     999902    2    1    2    0    0  0.22073197447E-02 -0.80306262842E-02 -0.22210331469E-01  0.10202095016E+01  0.10199337063E+01 0.  0.
     999903    2    3    3    0    0 -0.12366466197E+00 -0.36325685042E-01 -0.61327407732E-02  0.13065744860E+00  0.20524481727E-01 0.  0.
         14    1    1    2    0    0 -0.22073197447E-02  0.80306262842E-02  0.22210331469E-01  0.23720498371E-01  0.00000000000E+00 0. -1.
     999901    1    3    3    0    0  0.12587198172E+00  0.28295058758E-01 -0.16077590696E-01  0.88955205303E+00  0.88000000000E+00 0. -1.
        -11    1    4    4    0    0 -0.52407809243E-01 -0.24373485589E-01 -0.81670592497E-02  0.58374714108E-01  0.51100000000E-03 0.  1.
         11    1    4    4    0    0 -0.71256852729E-01 -0.11952199454E-01  0.20343184765E-02  0.72282734489E-01  0.51100000000E-03 0. -1.
</event>
<event>
 8    1  0.1163913E+005  0.1043930E+01  0.7957747E-01            NaN
         13   -1    0    0    0    0  0.00000000000E+00  0.00000000000E+00  0.74505805969E-08  0.10566000000E+00  0.10566000000E+00 0. -1.
     999900   -1    0    0    0    0 -0.00000000000E+00 -0.00000000000E+00 -0.74505805969E-08  0.93827000000E+00  0.93827000000E+00 0. -1.
     999902    2    1    2    0    0  0.66279570217E-02 -0.19989105700E-01  0.10502301014E-01  0.10203972040E+01  0.10201258067E+01 0.  0.
     999903    2    3    3    0    0  0.12240379154E+00 -0.29558820753E-01  0.35238939095E-01  0.13241774221E+00  0.20886923041E-01 0.  0.
         14    1    1    2    0    0 -0.66279570217E-02  0.19989105700E-01 -0.10502301014E-01  0.23532796000E-01  0.00000000000E+00 0. -1.
     999901    1    3    3    0    0 -0.11577583452E+00  0.95697150527E-02 -0.24736638081E-01  0.88797946179E+00  0.88000000000E+00 0. -1.
        -11    1    4    4    0    0  0.71916171529E-01 -0.19499540773E-01  0.10334453071E-01  0.75227852947E-01  0.51100000000E-03 0.  1.
         11    1    4    4    0    0  0.50487620014E-01 -0.10059279980E-01  0.24904486024E-01  0.57189889259E-01  0.51100000000E-03 0. -1.
</event>
<event>
 8    1  0.1163913E+005  0.1043930E+01  0.7957747E-01            NaN
         13   -1    0    0    0    0  0.00000000000E+00  0.00000000000E+00  0.74505805969E-08  0.10566000000E+00  0.10566000000E+00 0.  1.
     999900   -1    0    0    0    0 -0.00000000000E+00 -0.00000000000E+00 -0.74505805969E-08  0.93827000000E+00  0.93827000000E+00 0.  1.
     999902    2    1    2    0    0 -0.20095489414E-01  0.46943573187E-02  0.10924982130E-01  0.10205800338E+01  0.10203128856E+01 0.  0.
     999903    2    3    3    0    0 -0.74057340789E-01  0.71447534293E-02 -0.10611321307E+00  0.13118932949E+00  0.20373732000E-01 0.  0.
         14    1    1    2    0    0  0.20095489414E-01 -0.46943573187E-02 -0.10924982130E-01  0.23349966166E-01  0.00000000000E+00 0. -1.
     999901    1    3    3    0    0  0.53961851375E-01 -0.24503961106E-02  0.11703819520E+00  0.88939070435E+00  0.88000000000E+00 0.  1.
        -11    1    4    4    0    0 -0.32164901847E-02  0.52971213588E-02 -0.72689821163E-02  0.95657997996E-02  0.51100000000E-03 0.  1.
         11    1    4    4    0    0 -0.70840850605E-01  0.18476320704E-02 -0.98844230957E-01  0.12162352969E+00  0.51100000000E-03 0. -1.
</event>
<event>
 8    1  0.1163913E+005  0.1043930E+01  0.7957747E-01            NaN
         13   -1    0    0    0    0  0.00000000000E+00  0.00000000000E+00  0.74505805969E-08  0.10566000000E+00  0.10566000000E+00 0. -1.
     999900   -1    0    0    0    0 -0.00000000000E+00 -0.00000000000E+00 -0.74505805969E-08  0.93827000000E+00  0.93827000000E+00 0. -1.
     999902    2    1    2    0    0  0.20527299151E-01 -0.42272502859E-02 -0.98110211478E-02  0.10207892180E+01  0.10205268893E+01 0.  0.
     999903    2    3    3    0    0 -0.21077268574E-01 -0.80517576163E-01  0.97810600813E-01  0.12998420713E+00  0.20041186368E-01 0.  0.
         14    1    1    2    0    0 -0.20527299151E-01  0.42272502859E-02  0.98110211478E-02  0.23140781996E-01  0.00000000000E+00 0. -1.
     999901    1    3    3    0    0  0.41604567726E-01  0.76290325878E-01 -0.10762162196E+00  0.89080501087E+00  0.88000000000E+00 0.  1.
        -11    1    4    4    0    0 -0.20144282917E-01 -0.40231891046E-01  0.57127258675E-01  0.72719887212E-01  0.51100000000E-03 0. -1.
         11    1    4    4    0    0 -0.93298565695E-03 -0.40285685117E-01  0.40683342138E-01  0.57264319922E-01  0.51100000000E-03 0.  1.
</event>
<event>
 8    1  0.1163913E+005  0.1043930E+01  0.7957747E-01            NaN
         13   -1    0    0    0    0  0.00000000000E+00  0.00000000000E+00  0.74505805969E-08  0.10566000000E+00  0.10566000000E+00 0. -1.
     999900   -1    0    0    0    0 -0.00000000000E+00 -0.00000000000E+00 -0.74505805969E-08  0.93827000000E+00  0.93827000000E+00 0. -1.
     999902    2    1    2    0    0  0.18984677428E-01 -0.35232819992E-02 -0.14381215957E-01  0.10198540604E+01  0.10195698376E+01 0.  0.
     999903    2    3    3    0    0  0.93941774907E-01  0.62161721985E-01  0.63508309893E-01  0.13080970584E+00  0.19716413580E-01 0.  0.
         14    1    1    2    0    0 -0.18984677428E-01  0.35232819992E-02  0.14381215957E-01  0.24075939556E-01  0.00000000000E+00 0. -1.
     999901    1    3    3    0    0 -0.74957097479E-01 -0.65685003984E-01 -0.77889525850E-01  0.88904435460E+00  0.88000000000E+00 0. -1.
        -11    1    4    4    0    0  0.51402802385E-01  0.44588280405E-01  0.33356666464E-01  0.75784504755E-01  0.51100000000E-03 0. -1.
         11    1    4    4    0    0  0.42538972523E-01  0.17573441580E-01  0.30151643430E-01  0.55025201088E-01  0.51100000000E-03 0.  1.
</event>
<event>
 8    1  0.1163913E+005  0.1043930E+01  0.7957747E-01            NaN
         13   -1    0    0    0    0  0.00000000000E+00  0.00000000000E+00  0.74505805969E-08  0.10566000000E+00  0.10566000000E+00 0.  1.
     999900   -1    0    0    0    0 -0.00000000000E+00 -0.00000000000E+00 -0.74505805969E-08  0.93827000000E+00  0.93827000000E+00 0. -1.
     999902    2    1    2    0    0  0.45577097766E-02 -0.20239619998E-02  0.20730983006E-01  0.10226076456E+01  0.10223853256E+01 0.  0.
     999903    2    3    3    0    0  0.50643338812E-01  0.15761039048E-01  0.12283208484E+00  0.13532819331E+00  0.20318482261E-01 0.  0.
         14    1    1    2    0    0 -0.45577097766E-02  0.20239619998E-02 -0.20730983006E-01  0.21322354396E-01  0.00000000000E+00 0. -1.
     999901    1    3    3    0    0 -0.46085629035E-01 -0.17785001048E-01 -0.10210110183E+00  0.88727945229E+00  0.88000000000E+00 0. -1.
        -11    1    4    4    0    0  0.24387907627E-01 -0.18551671149E-02  0.64370700034E-01  0.68862615600E-01  0.51100000000E-03 0. -1.
         11    1    4    4    0    0  0.26255431185E-01  0.17616206163E-01  0.58461384804E-01  0.66465577711E-01  0.51100000000E-03 0.  1.
</event>
<event>
 8    1  0.1163913E+005  0.1043930E+01  0.7957747E-01            NaN
         13   -1    0    0    0    0  0.00000000000E+00  0.00000000000E+00  0.74505805969E-08  0.10566000000E+00  0.10566000000E+00 0.  1.
     999900   -1    0    0    0    0 -0.00000000000E+00 -0.00000000000E+00 -0.74505805969E-08  0.93827000000E+00  0.93827000000E+00 0. -1.
     999902    2    1    2    0    0 -0.21487976363E-01 -0.49251834323E-02  0.36477725865E-02  0.10215850497E+01  0.10213406469E+01 0.  0.
     999903    2    3    3    0    0 -0.95484192749E-01 -0.47144374722E-01 -0.78343723146E-01  0.13367711215E+00  0.19799197553E-01 0.  0.
         14    1    1    2    0    0  0.21487976363E-01  0.49251834323E-02 -0.36477725865E-02  0.22344950322E-01  0.00000000000E+00 0. -1.
     999901    1    3    3    0    0  0.73996216386E-01  0.42219191289E-01  0.81991495733E-01  0.88790793753E+00  0.88000000000E+00 0.  1.
        -11    1    4    4    0    0 -0.30216892089E-01 -0.24332950160E-01 -0.33558221393E-01  0.51298814558E-01  0.51100000000E-03 0.  1.
         11    1    4    4    0    0 -0.65267300660E-01 -0.22811424562E-01 -0.44785501753E-01  0.82378297593E-01  0.51100000000E-03 0. -1.
</event>
<event>
 8    1  0.1163913E+005  0.1043930E+01  0.7957747E-01            NaN
         13   -1    0    0    0    0  0.00000000000E+00  0.00000000000E+00  0.74505805969E-08  0.10566000000E+00  0.10566000000E+00 0.  1.
     999900   -1    0    0    0    0 -0.00000000000E+00 -0.00000000000E+00 -0.74505805969E-08  0.93827000000E+00  0.93827000000E+00 0. -1.
     999902    2    1    2    0    0  0.48156166062E-02 -0.38093009773E-02  0.21959367686E-01  0.10211283604E+01  0.10208737501E+01 0.  0.
     999903    2    3    3    0    0 -0.70249077538E-01 -0.69912163801E-01  0.86619109032E-01  0.13310517441E+00  0.19785698465E-01 0.  0.
         14    1    1    2    0    0 -0.48156166062E-02  0.38093009773E-02 -0.21959367686E-01  0.22801639555E-01  0.00000000000E+00 0. -1.
     999901    1    3    3    0    0  0.75064694144E-01  0.66102862824E-01 -0.64659741346E-01  0.88802318603E+00  0.88000000000E+00 0. -1.
        -11    1    4    4    0    0 -0.25643865290E-01 -0.13217382133E-01  0.22525240076E-01  0.36605390026E-01  0.51100000000E-03 0.  1.
         11    1    4    4    0    0 -0.44605212248E-01 -0.56694781668E-01  0.64093868955E-01  0.96499784387E-01  0.51100000000E-03 0. -1.
</event>
<event>
 8    1  0.1163913E+005  0.1043930E+01  0.7957747E-01            NaN
         13   -1    0    0    0    0  0.00000000000E+00  0.00000000000E+00  0.74505805969E-08  0.10566000000E+00  0.10566000000E+00 0. -1.
     999900   -1    0    0    0    0 -0.00000000000E+00 -0.00000000000E+00 -0.74505805969E-08  0.93827000000E+00  0.93827000000E+00 0.  1.
     999902    2    1    2    0    0 -0.57584524000E-02  0.22846896489E-01 -0.20861149523E-02  0.10202764098E+01  0.10200021863E+01 0.  0.
     999903    2    3    3    0    0 -0.58229802835E-01 -0.11240518294E+00 -0.69494904463E-02  0.12838514961E+00  0.20219202097E-01 0.  0.
         14    1    1    2    0    0  0.57584524000E-02 -0.22846896489E-01  0.20861149523E-02  0.23653590188E-01  0.00000000000E+00 0.  1.
     999901    1    3    3    0    0  0.52471350435E-01  0.13525207942E+00  0.48633754939E-02  0.89189126020E+00  0.88000000000E+00 0. -1.
        -11    1    4    4    0    0 -0.11102178711E-01 -0.35342688147E-01  0.45365089287E-02  0.37325661573E-01  0.51100000000E-03 0. -1.
         11    1    4    4    0    0 -0.47127624124E-01 -0.77062494789E-01 -0.11485999375E-01  0.91059488036E-01  0.51100000000E-03 0.  1.
</event>
<event>
 8    1  0.1163913E+005  0.1043930E+01  0.7957747E-01            NaN
         13   -1    0    0    0    0  0.00000000000E+00  0.00000000000E+00  0.74505805969E-08  0.10566000000E+00  0.10566000000E+00 0.  1.
     999900   -1    0    0    0    0 -0.00000000000E+00 -0.00000000000E+00 -0.74505805969E-08  0.93827000000E+00  0.93827000000E+00 0. -1.
     999902    2    1    2    0    0 -0.11480838188E-01  0.16496968314E-01  0.11583560394E-01  0.10207321880E+01  0.10204685498E+01 0.  0.
     999903    2    3    3    0    0  0.20472953360E-01 -0.11042439387E+00  0.61521552652E-01  0.12965201203E+00  0.20299118289E-01 0.  0.
         14    1    1    2    0    0  0.11480838188E-01 -0.16496968314E-01 -0.11583560394E-01  0.23197811975E-01  0.00000000000E+00 0.  1.
     999901    1    3    3    0    0 -0.31953791547E-01  0.12692136218E+00 -0.49937992258E-01  0.89108017599E+00  0.88000000000E+00 0. -1.
        -11    1    4    4    0    0  0.18469058408E-01 -0.98385936265E-01  0.46749147088E-01  0.11048367503E+00  0.51100000000E-03 0.  1.
         11    1    4    4    0    0  0.20038949521E-02 -0.12038457604E-01  0.14772405564E-01  0.19168337007E-01  0.51100000000E-03 0. -1.
</event>
<event>
 8    1  0.1163913E+005  0.1043930E+01  0.7957747E-01            NaN
         13   -1    0    0    0    0  0.00000000000E+00  0.00000000000E+00  0.74505805969E-08  0.10566000000E+00  0.10566000000E+00 0.  1.
     999900   -1    0    0    0    0 -0.00000000000E+00 -0.00000000000E+00 -0.74505805969E-08  0.93827000000E+00  0.93827000000E+00 0.  1.
     999902    2    1    2    0    0 -0.23788967347E-01  0.26494272572E-02 -0.13467268924E-02  0.10199560953E+01  0.10196743050E+01 0.  0.
     999903    2    3    3    0    0  0.96080722985E-01  0.33714807040E-01  0.75062238080E-01  0.12800759321E+00  0.19580878222E-01 0.  0.
         14    1    1    2    0    0  0.23788967347E-01 -0.26494272572E-02  0.13467268924E-02  0.23973904679E-01  0.00000000000E+00 0.  1.
     999901    1    3    3    0    0 -0.11986969033E+00 -0.31065379782E-01 -0.76408964973E-01  0.89194850211E+00  0.88000000000E+00 0. -1.
        -11    1    4    4    0    0  0.65690631963E-01  0.15096911014E-01  0.42188864972E-01  0.79519414601E-01  0.51100000000E-03 0.  1.
         11    1    4    4    0    0  0.30390091022E-01  0.18617896026E-01  0.32873373108E-01  0.48488178614E-01  0.51100000000E-03 0. -1.
</event>
<event>
 8    1  0.1163913E+005  0.1043930E+01  0.7957747E-01            NaN
         13   -1    0    0    0    0  0.00000000000E+00  0.00000000000E+00  0.74505805969E-08  0.10566000000E+00  0.10566000000E+00 0. -1.
     999900   -1    0    0    0    0 -0.00000000000E+00 -0.00000000000E+00 -0.74505805969E-08  0.93827000000E+00  0.93827000000E+00 0.  1.
     999902    2    1    2    0    0  0.45696951967E-02  0.17876814965E-01 -0.14247304509E-01  0.10206180221E+01  0.10203517525E+01 0.  0.
     999903    2    3    3    0    0  0.68318121464E-01 -0.94148554066E-01 -0.55199837726E-01  0.13028625522E+00  0.19904026237E-01 0.  0.
         14    1    1    2    0    0 -0.45696951967E-02 -0.17876814965E-01  0.14247304509E-01  0.23311977892E-01  0.00000000000E+00 0. -1.
     999901    1    3    3    0    0 -0.63748426267E-01  0.11202536903E+00  0.40952533216E-01  0.89033176689E+00  0.88000000000E+00 0.  1.
        -11    1    4    4    0    0  0.20849409530E-01 -0.42425548274E-01 -0.28337515479E-01  0.55117156391E-01  0.51100000000E-03 0. -1.
         11    1    4    4    0    0  0.47468711934E-01 -0.51723005791E-01 -0.26862322246E-01  0.75169098826E-01  0.51100000000E-03 0.  1.
</event>
<event>
 8    1  0.1163913E+005  0.1043930E+01  0.7957747E-01            NaN
         13   -1    0    0    0    0  0.00000000000E+00  0.00000000000E+00  0.74505805969E-08  0.10566000000E+00  0.10566000000E+00 0. -1.
     999900   -1    0    0    0    0 -0.00000000000E+00 -0.00000000000E+00 -0.74505805969E-08  0.93827000000E+00  0.93827000000E+00 0. -1.
     999902    2    1    2    0    0  0.17062506898E-01  0.23389910519E-02 -0.15586082309E-01  0.10207023014E+01  0.10204379756E+01 0.  0.
     999903    2    3    3    0    0 -0.93575367198E-01  0.81997504400E-01 -0.32180196192E-01  0.13004996600E+00  0.19937115007E-01 0.  0.
         14    1    1    2    0    0 -0.17062506898E-01 -0.23389910519E-02  0.15586082309E-01  0.23227698606E-01  0.00000000000E+00 0. -1.
     999901    1    3    3    0    0  0.11063787410E+00 -0.79658513348E-01  0.16594113883E-01  0.89065233540E+00  0.88000000000E+00 0.  1.
        -11    1    4    4    0    0 -0.40005665884E-01  0.47508212081E-01 -0.12403493550E-01  0.63337124115E-01  0.51100000000E-03 0. -1.
         11    1    4    4    0    0 -0.53569701314E-01  0.34489292319E-01 -0.19776702642E-01  0.66712841881E-01  0.51100000000E-03 0.  1.
</event>
<event>
 8    1  0.1163913E+005  0.1043930E+01  0.7957747E-01            NaN
         13   -1    0    0    0    0  0.00000000000E+00  0.00000000000E+00  0.74505805969E-08  0.10566000000E+00  0.10566000000E+00 0.  1.
     999900   -1    0    0    0    0 -0.00000000000E+00 -0.00000000000E+00 -0.74505805969E-08  0.93827000000E+00  0.93827000000E+00 0. -1.
     999902    2    1    2    0    0 -0.22298019637E-01 -0.16684042268E-02 -0.51719281493E-02  0.10209793117E+01  0.10207213238E+01 0.  0.
     999903    2    3    3    0    0  0.16327830019E-01 -0.75391444883E-01 -0.10488049496E+00  0.13144637736E+00  0.18104250986E-01 0.  0.
         14    1    1    2    0    0  0.22298019637E-01  0.16684042268E-02  0.51719281493E-02  0.22950688295E-01  0.00000000000E+00 0.  1.
     999901    1    3    3    0    0 -0.38625849657E-01  0.73723040656E-01  0.99708566812E-01  0.88953293434E+00  0.88000000000E+00 0. -1.
        -11    1    4    4    0    0  0.11412175528E-01 -0.23190127687E-01 -0.25501421710E-01  0.36312579124E-01  0.51100000000E-03 0. -1.
         11    1    4    4    0    0  0.49156544916E-02 -0.52201317196E-01 -0.79379073251E-01  0.95133798238E-01  0.51100000000E-03 0.  1.
</event>
<event>
 8    1  0.1163913E+005  0.1043930E+01  0.7957747E-01            NaN
         13   -1    0    0    0    0  0.00000000000E+00  0.00000000000E+00  0.74505805969E-08  0.10566000000E+00  0.10566000000E+00 0.  1.
     999900   -1    0    0    0    0 -0.00000000000E+00 -0.00000000000E+00 -0.74505805969E-08  0.93827000000E+00  0.93827000000E+00 0.  1.
     999902    2    1    2    0    0  0.19810663712E-01 -0.94239502462E-02  0.92157421369E-02  0.10201349766E+01  0.10198574250E+01 0.  0.
     999903    2    3    3    0    0  0.87472249081E-01  0.77065211853E-01  0.58164987943E-01  0.13196016614E+00  0.20973277929E-01 0.  0.
         14    1    1    2    0    0 -0.19810663712E-01  0.94239502462E-02 -0.92157421369E-02  0.23795023389E-01  0.00000000000E+00 0. -1.
     999901    1    3    3    0    0 -0.67661585369E-01 -0.86489162099E-01 -0.48949245806E-01  0.88817481047E+00  0.88000000000E+00 0.  1.
        -11    1    4    4    0    0  0.10322432098E-02  0.72308206177E-02  0.34253328313E-02  0.80835832930E-02  0.51100000000E-03 0. -1.
         11    1    4    4    0    0  0.86440005871E-01  0.69834391235E-01  0.54739655112E-01  0.12387658284E+00  0.51100000000E-03 0.  1.
</event>
<event>
 8    1  0.1163913E+005  0.1043930E+01  0.7957747E-01            NaN
         13   -1    0    0    0    0  0.00000000000E+00  0.00000000000E+00  0.74505805969E-08  0.10566000000E+00  0.10566000000E+00 0.  1.
     999900   -1    0    0    0    0 -0.00000000000E+00 -0.00000000000E+00 -0.74505805969E-08  0.93827000000E+00  0.93827000000E+00 0. -1.
     999902    2    1    2    0    0 -0.71195003127E-02  0.16426673766E-01  0.14930159718E-01  0.10206183599E+01  0.10203520980E+01 0.  0.
     999903    2    3    3    0    0  0.12337773080E+00 -0.32673557676E-01 -0.48186436414E-02  0.12942232349E+00  0.20911543744E-01 0.  0.
         14    1    1    2    0    0  0.71195003127E-02 -0.16426673766E-01 -0.14930159718E-01  0.23311640116E-01  0.00000000000E+00 0. -1.
     999901    1    3    3    0    0 -0.13049723111E+00  0.49100231442E-01  0.19748803359E-01  0.89119603640E+00  0.88000000000E+00 0. -1.
        -11    1    4    4    0    0  0.29247690053E-01 -0.81685168146E-02 -0.10109788566E-01  0.32009701439E-01  0.51100000000E-03 0.  1.
         11    1    4    4    0    0  0.94130040746E-01 -0.24505040861E-01  0.52911449249E-02  0.97412622047E-01  0.51100000000E-03 0. -1.
</event>
<event>
 8    1  0.1163913E+005  0.1043930E+01  0.7957747E-01            NaN
         13   -1    0    0    0    0  0.00000000000E+00  0.00000000000E+00  0.74505805969E-08  0.10566000000E+00  0.10566000000E+00 0. -1.
     999900   -1    0    0    0    0 -0.00000000000E+00 -0.00000000000E+00 -0.74505805969E-08  0.93827000000E+00  0.93827000000E+00 0.  1.
     999902    2    1    2    0    0  0.23023486954E-01 -0.16414276909E-01 -0.60038695747E-02  0.10150240164E+01  0.10146123388E+01 0.  0.
     999903    2    3    3    0    0  0.54226097718E-01 -0.51471282099E-01  0.10110700511E+00  0.12728794301E+00  0.19744148455E-01 0.  0.
         14    1    1    2    0    0 -0.23023486954E-01  0.16414276909E-01  0.60038695747E-02  0.28905983600E-01  0.00000000000E+00 0.  1.
     999901    1    3    3    0    0 -0.31202610764E-01  0.35057005190E-01 -0.10711087468E+00  0.88773607339E+00  0.88000000000E+00 0.  1.
        -11    1    4    4    0    0  0.88521626315E-02 -0.10102093875E-01  0.32751501070E-01  0.35402472050E-01  0.51100000000E-03 0. -1.
         11    1    4    4    0    0  0.45373935087E-01 -0.41369188224E-01  0.68355504037E-01  0.91885470956E-01  0.51100000000E-03 0.  1.
</event>
<event>
 8    1  0.1163913E+005  0.1043930E+01  0.7957747E-01            NaN
         13   -1    0    0    0    0  0.00000000000E+00  0.00000000000E+00  0.74505805969E-08  0.10566000000E+00  0.10566000000E+00 0. -1.
     999900   -1    0    0    0    0 -0.00000000000E+00 -0.00000000000E+00 -0.74505805969E-08  0.93827000000E+00  0.93827000000E+00 0. -1.
     999902    2    1    2    0    0 -0.40574421835E-02  0.22182015621E-01 -0.73099977144E-02  0.10202247111E+01  0.10199492735E+01 0.  0.
     999903    2    3    3    0    0  0.44833620958E-01  0.10897048994E+00 -0.58686125097E-01  0.13311587801E+00  0.19777625028E-01 0.  0.
         14    1    1    2    0    0  0.40574421835E-02 -0.22182015621E-01  0.73099977144E-02  0.23705288875E-01  0.00000000000E+00 0.  1.
     999901    1    3    3    0    0 -0.48891063141E-01 -0.86788474323E-01  0.51376127382E-01  0.88710883312E+00  0.88000000000E+00 0.  1.
        -11    1    4    4    0    0  0.32359196941E-01  0.80615855679E-01 -0.52565999388E-01  0.10153560571E+00  0.51100000000E-03 0.  1.
         11    1    4    4    0    0  0.12474424017E-01  0.28354634266E-01 -0.61201257089E-02  0.31580272301E-01  0.51100000000E-03 0. -1.
</event>
<event>
 8    1  0.1163913E+005  0.1043930E+01  0.7957747E-01            NaN
         13   -1    0    0    0    0  0.00000000000E+00  0.00000000000E+00  0.74505805969E-08  0.10566000000E+00  0.10566000000E+00 0. -1.
     999900   -1    0    0    0    0 -0.00000000000E+00 -0.00000000000E+00 -0.74505805969E-08  0.93827000000E+00  0.93827000000E+00 0. -1.
     999902    2    1    2    0    0 -0.20264427694E-01 -0.46220853780E-02  0.12784848699E-01  0.10195278882E+01  0.10192358176E+01 0.  0.
     999903    2    3    3    0    0  0.73755321434E-01  0.86095582088E-01  0.57597491642E-01  0.12875430229E+00  0.20196599244E-01 0.  0.
         14    1    1    2    0    0  0.20264427694E-01  0.46220853780E-02 -0.12784848699E-01  0.24402111779E-01  0.00000000000E+00 0.  1.
     999901    1    3    3    0    0 -0.94019749129E-01 -0.90717667466E-01 -0.44812642943E-01  0.89077358593E+00  0.88000000000E+00 0.  1.
        -11    1    4    4    0    0  0.26592027390E-01  0.20154939148E-01  0.23435223343E-01  0.40777791834E-01  0.51100000000E-03 0.  1.
         11    1    4    4    0    0  0.47163294045E-01  0.65940642940E-01  0.34162268299E-01  0.87976510460E-01  0.51100000000E-03 0. -1.
</event>
<event>
 8    1  0.1163913E+005  0.1043930E+01  0.7957747E-01            NaN
         13   -1    0    0    0    0  0.00000000000E+00  0.00000000000E+00  0.74505805969E-08  0.10566000000E+00  0.10566000000E+00 0.  1.
     999900   -1    0    0    0    0 -0.00000000000E+00 -0.00000000000E+00 -0.74505805969E-08  0.93827000000E+00  0.93827000000E+00 0.  1.
     999902    2    1    2    0    0  0.22819355257E-01  0.40860405217E-02 -0.59240844351E-02  0.10200027461E+01  0.10197220644E+01 0.  0.
     999903    2    3    3    0    0  0.85269960286E-01 -0.22745217257E-02  0.98177926623E-01  0.13164596897E+00  0.20386669499E-01 0.  0.
         14    1    1    2    0    0 -0.22819355257E-01 -0.40860405217E-02  0.59240844351E-02  0.23927253872E-01  0.00000000000E+00 0. -1.
     999901    1    3    3    0    0 -0.62450605029E-01  0.63605622475E-02 -0.10410201106E+00  0.88835677716E+00  0.88000000000E+00 0.  1.
        -11    1    4    4    0    0  0.28150489789E-01  0.82482534866E-02  0.28074981288E-01  0.40607258665E-01  0.51100000000E-03 0. -1.
         11    1    4    4    0    0  0.57119470497E-01 -0.10522775212E-01  0.70102945335E-01  0.91038710303E-01  0.51100000000E-03 0.  1.
</event>
<event>
 8    1  0.1163913E+005  0.1043930E+01  0.7957747E-01            NaN
         13   -1    0    0    0    0  0.00000000000E+00  0.00000000000E+00  0.74505805969E-08  0.10566000000E+00  0.10566000000E+00 0. -1.
     999900   -1    0    0    0    0 -0.00000000000E+00 -0.00000000000E+00 -0.74505805969E-08  0.93827000000E+00  0.93827000000E+00 0.  1.
     999902    2    1    2    0    0  0.21730013454E-01 -0.75779294842E-02  0.14282697422E-02  0.10208722799E+01  0.10206118525E+01 0.  0.
     999903    2    3    3    0    0  0.66051181286E-02 -0.13508120069E-01  0.12920453438E+00  0.13149569861E+00  0.19266814819E-01 0.  0.
         14    1    1    2    0    0 -0.21730013454E-01  0.75779294842E-02 -0.14282697422E-02  0.23057720061E-01  0.00000000000E+00 0.  1.
     999901    1    3    3    0    0  0.15124895325E-01  0.59301905853E-02 -0.12777626464E+00  0.88937658133E+00  0.88000000000E+00 0.  1.
        -11    1    4    4    0    0 -0.19381130625E-02 -0.80994752579E-02  0.18097352692E-01  0.19928198040E-01  0.51100000000E-03 0. -1.
         11    1    4    4    0    0  0.85432311911E-02 -0.54086448116E-02  0.11110718169E+00  0.11156750056E+00  0.51100000000E-03 0.  1.
</event>
<event>
 8    1  0.1163913E+005  0.1043930E+01  0.7957747E-01            NaN
         13   -1    0    0    0    0  0.00000000000E+00  0.00000000000E+00  0.74505805969E-08  0.10566000000E+00  0.10566000000E+00 0. -1.
     999900   -1    0    0    0    0 -0.00000000000E+00 -0.00000000000E+00 -0.74505805969E-08  0.93827000000E+00  0.93827000000E+00 0. -1.
     999902    2    1    2    0    0  0.11479739843E-01 -0.56374866070E-02 -0.18805322326E-01  0.10211878403E+01  0.10209345715E+01 0.  0.
     999903    2    3    3    0    0  0.10080308014E+00  0.17717379220E-01 -0.84116873971E-01  0.13395071994E+00  0.19798494727E-01 0.  0.
         14    1    1    2    0    0 -0.11479739843E-01  0.56374866070E-02  0.18805322326E-01  0.22742159746E-01  0.00000000000E+00 0. -1.
     999901    1    3    3    0    0 -0.89323340301E-01 -0.23354865827E-01  0.65311551645E-01  0.88723712031E+00  0.88000000000E+00 0.  1.
        -11    1    4    4    0    0  0.68500437074E-01  0.37715843615E-02 -0.61379825946E-01  0.92055846540E-01  0.51100000000E-03 0. -1.
         11    1    4    4    0    0  0.32302643070E-01  0.13945794859E-01 -0.22737048025E-01  0.41894873403E-01  0.51100000000E-03 0.  1.
</event>
<event>
 8    1  0.1163913E+005  0.1043930E+01  0.7957747E-01            NaN
         13   -1    0    0    0    0  0.00000000000E+00  0.00000000000E+00  0.74505805969E-08  0.10566000000E+00  0.10566000000E+00 0.  1.
     999900   -1    0    0    0    0 -0.00000000000E+00 -0.00000000000E+00 -0.74505805969E-08  0.93827000000E+00  0.93827000000E+00 0. -1.
     999902    2    1    2    0    0 -0.64893258345E-03  0.43268414944E-02 -0.23701615194E-01  0.10198279413E+01  0.10195430940E+01 0.  0.
     999903    2    3    3    0    0  0.40898201623E-01 -0.12115373413E+00 -0.12209756721E-01  0.12988209911E+00  0.19219555686E-01 0.  0.
         14    1    1    2    0    0  0.64893258345E-03 -0.43268414944E-02  0.23701615194E-01  0.24102058701E-01  0.00000000000E+00 0.  1.
     999901    1    3    3    0    0 -0.41547134207E-01  0.12548057562E+00 -0.11491858473E-01  0.88994584219E+00  0.88000000000E+00 0. -1.
        -11    1    4    4    0    0  0.97075226455E-02 -0.58640669618E-01 -0.59556798990E-02  0.59738558513E-01  0.51100000000E-03 0. -1.
         11    1    4    4    0    0  0.31190678978E-01 -0.62513064510E-01 -0.62540768220E-02  0.70143540596E-01  0.51100000000E-03 0.  1.
</event>
<event>
 8    1  0.1163913E+005  0.1043930E+01  0.7957747E-01            NaN
         13   -1    0    0    0    0  0.00000000000E+00  0.00000000000E+00  0.74505805969E-08  0.10566000000E+00  0.10566000000E+00 0. -1.
     999900   -1    0    0    0    0 -0.00000000000E+00 -0.00000000000E+00 -0.74505805969E-08  0.93827000000E+00  0.93827000000E+00 0. -1.
     999902    2    1    2    0    0  0.15664360305E-01 -0.66822130679E-02 -0.16659045242E-01  0.10201067352E+01  0.10198285166E+01 0.  0.
     999903    2    3    3    0    0 -0.10591415849E+00 -0.70885731243E-01  0.83704590409E-02  0.12907929231E+00  0.18676275204E-01 0.  0.
         14    1    1    2    0    0 -0.15664360305E-01  0.66822130679E-02  0.16659045242E-01  0.23823264756E-01  0.00000000000E+00 0. -1.
     999901    1    3    3    0    0  0.12157851880E+00  0.64203518175E-01 -0.25029504283E-01  0.89102744294E+00  0.88000000000E+00 0.  1.
        -11    1    4    4    0    0 -0.55803134520E-01 -0.42944299711E-01 -0.34368533000E-02  0.70500182847E-01  0.51100000000E-03 0. -1.
         11    1    4    4    0    0 -0.50111023972E-01 -0.27941431532E-01  0.11807312341E-01  0.58579109462E-01  0.51100000000E-03 0.  1.
</event>
<event>
 8    1  0.1163913E+005  0.1043930E+01  0.7957747E-01            NaN
         13   -1    0    0    0    0  0.00000000000E+00  0.00000000000E+00  0.74505805969E-08  0.10566000000E+00  0.10566000000E+00 0.  1.
     999900   -1    0    0    0    0 -0.00000000000E+00 -0.00000000000E+00 -0.74505805969E-08  0.93827000000E+00  0.93827000000E+00 0.  1.
     999902    2    1    2    0    0  0.12506992635E-01 -0.18788752774E-02 -0.19953611691E-01  0.10203058247E+01  0.10200322908E+01 0.  0.
     999903    2    3    3    0    0  0.12294393080E+00  0.17755326471E-01  0.35496727380E-01  0.13145456649E+00  0.24286285367E-01 0.  0.
         14    1    1    2    0    0 -0.12506992635E-01  0.18788752774E-02  0.19953611691E-01  0.23624175258E-01  0.00000000000E+00 0. -1.
     999901    1    3    3    0    0 -0.11043693817E+00 -0.19634201749E-01 -0.55450339071E-01  0.88885125825E+00  0.88000000000E+00 0.  1.
        -11    1    4    4    0    0  0.53477710669E-01 -0.37849926647E-02  0.18956171377E-01  0.56866415942E-01  0.51100000000E-03 0. -1.
         11    1    4    4    0    0  0.69466220136E-01  0.21540319136E-01  0.16540556003E-01  0.74588150549E-01  0.51100000000E-03 0.  1.
</event>
<event>
 8    1  0.1163913E+005  0.1043930E+01  0.7957747E-01            NaN
         13   -1    0    0    0    0  0.00000000000E+00  0.00000000000E+00  0.74505805969E-08  0.10566000000E+00  0.10566000000E+00 0. -1.
     999900   -1    0    0    0    0 -0.00000000000E+00 -0.00000000000E+00 -0.74505805969E-08  0.93827000000E+00  0.93827000000E+00 0.  1.
     999902    2    1    2    0    0 -0.42209808853E-02  0.62547938617E-03 -0.23626410813E-01  0.10199213517E+01  0.10196387343E+01 0.  0.
     999903    2    3    3    0    0 -0.11548800490E+00  0.24784638993E-01 -0.55650386165E-01  0.13200832072E+00  0.19428681253E-01 0.  0.
         14    1    1    2    0    0  0.42209808853E-02 -0.62547938617E-03  0.23626410813E-01  0.24008648275E-01  0.00000000000E+00 0. -1.
     999901    1    3    3    0    0  0.11126702401E+00 -0.24159159606E-01  0.32023975353E-01  0.88791303100E+00  0.88000000000E+00 0.  1.
        -11    1    4    4    0    0 -0.40134146587E-01 -0.22093674231E-03 -0.15384541157E-01  0.42985390110E-01  0.51100000000E-03 0.  1.
         11    1    4    4    0    0 -0.75353858308E-01  0.25005575735E-01 -0.40265845008E-01  0.89022930613E-01  0.51100000000E-03 0. -1.
</event>
<event>
 8    1  0.1163913E+005  0.1043930E+01  0.7957747E-01            NaN
         13   -1    0    0    0    0  0.00000000000E+00  0.00000000000E+00  0.74505805969E-08  0.10566000000E+00  0.10566000000E+00 0.  1.
     999900   -1    0    0    0    0 -0.00000000000E+00 -0.00000000000E+00 -0.74505805969E-08  0.93827000000E+00  0.93827000000E+00 0. -1.
     999902    2    1    2    0    0 -0.10577229353E-01  0.16071044077E-01 -0.11956758527E-01  0.10212778409E+01  0.10210265951E+01 0.  0.
     999903    2    3    3    0    0  0.87215844540E-01 -0.39483031907E-01 -0.86953119180E-01  0.13095531798E+00  0.20565432776E-01 0.  0.
         14    1    1    2    0    0  0.10577229353E-01 -0.16071044077E-01  0.11956758527E-01  0.22652159125E-01  0.00000000000E+00 0. -1.
     999901    1    3    3    0    0 -0.97793073893E-01  0.55554075984E-01  0.74996360653E-01  0.89032252289E+00  0.88000000000E+00 0.  1.
        -11    1    4    4    0    0  0.35351695088E-01 -0.52801117617E-02 -0.33665527081E-01  0.49104488191E-01  0.51100000000E-03 0.  1.
         11    1    4    4    0    0  0.51864149452E-01 -0.34202920145E-01 -0.53287592099E-01  0.81850829791E-01  0.51100000000E-03 0. -1.
</event>
<event>
 8    1  0.1163913E+005  0.1043930E+01  0.7957747E-01            NaN
         13   -1    0    0    0    0  0.00000000000E+00  0.00000000000E+00  0.74505805969E-08  0.10566000000E+00  0.10566000000E+00 0. -1.
     999900   -1    0    0    0    0 -0.00000000000E+00 -0.00000000000E+00 -0.74505805969E-08  0.93827000000E+00  0.93827000000E+00 0.  1.
     999902    2    1    2    0    0  0.24085452155E-02  0.11765611071E-01 -0.20697540982E-01  0.10200005433E+01  0.10197198093E+01 0.  0.
     999903    2    3    3    0    0  0.11579147420E+00 -0.48748653480E-01 -0.23243048877E-01  0.13066138170E+00  0.27350697134E-01 0.  0.
         14    1    1    2    0    0 -0.24085452155E-02 -0.11765611071E-01  0.20697540982E-01  0.23929456672E-01  0.00000000000E+00 0. -1.
     999901    1    3    3    0    0 -0.11338292898E+00  0.60514264551E-01  0.25455078953E-02  0.88933916163E+00  0.88000000000E+00 0. -1.
        -11    1    4    4    0    0  0.25169402877E-01 -0.14352422686E-01 -0.16845423287E-01  0.33518954113E-01  0.51100000000E-03 0.  1.
         11    1    4    4    0    0  0.90622071319E-01 -0.34396230794E-01 -0.63976255903E-02  0.97142427585E-01  0.51100000000E-03 0. -1.
</event>
<event>
 8    1  0.1163913E+005  0.1043930E+01  0.7957747E-01            NaN
         13   -1    0    0    0    0  0.00000000000E+00  0.00000000000E+00  0.74505805969E-08  0.10566000000E+00  0.10566000000E+00 0.  1.
     999900   -1    0    0    0    0 -0.00000000000E+00 -0.00000000000E+00 -0.74505805969E-08  0.93827000000E+00  0.93827000000E+00 0.  1.
     999902    2    1    2    0    0 -0.10804451745E-01  0.18501540381E-01 -0.10201611003E-01  0.10201999338E+01  0.10199239133E+01 0.  0.
     999903    2    3    3    0    0  0.54681270306E-01 -0.52433058359E-01 -0.10380914891E+00  0.12998508995E+00  0.19506852110E-01 0.  0.
         14    1    1    2    0    0  0.10804451745E-01 -0.18501540381E-01  0.10201611003E-01  0.23730066183E-01  0.00000000000E+00 0.  1.
     999901    1    3    3    0    0 -0.65485722051E-01  0.70934598740E-01  0.93607537912E-01  0.89021484387E+00  0.88000000000E+00 0.  1.
        -11    1    4    4    0    0  0.28351198861E-01 -0.14013944151E-01 -0.43457054557E-01  0.53749026217E-01  0.51100000000E-03 0. -1.
         11    1    4    4    0    0  0.26330071446E-01 -0.38419114208E-01 -0.60352094358E-01  0.76236063731E-01  0.51100000000E-03 0.  1.
</event>
<event>
 8    1  0.1163913E+005  0.1043930E+01  0.7957747E-01            NaN
         13   -1    0    0    0    0  0.00000000000E+00  0.00000000000E+00  0.74505805969E-08  0.10566000000E+00  0.10566000000E+00 0. -1.
     999900   -1    0    0    0    0 -0.00000000000E+00 -0.00000000000E+00 -0.74505805969E-08  0.93827000000E+00  0.93827000000E+00 0. -1.
     999902    2    1    2    0    0 -0.70413428988E-03 -0.28095782471E-02  0.23748249436E-01  0.10200057678E+01  0.10197251578E+01 0.  0.
     999903    2    3    3    0    0  0.58803716464E-01  0.47448893619E-01 -0.10168904452E+00  0.12770446610E+00  0.16077758285E-01 0.  0.
         14    1    1    2    0    0  0.70413428988E-03  0.28095782471E-02 -0.23748249436E-01  0.23924232198E-01  0.00000000000E+00 0.  1.
     999901    1    3    3    0    0 -0.59507850754E-01 -0.50258471866E-01  0.12543729396E+00  0.89230130170E+00  0.88000000000E+00 0. -1.
        -11    1    4    4    0    0  0.54131682503E-01  0.44573160584E-01 -0.85354344279E-01  0.11046551907E+00  0.51100000000E-03 0.  1.
         11    1    4    4    0    0  0.46720339611E-02  0.28757330349E-02 -0.16334700243E-01  0.17238947035E-01  0.51100000000E-03 0. -1.
</event>
<event>
 8    1  0.1163913E+005  0.1043930E+01  0.7957747E-01            NaN
         13   -1    0    0    0    0  0.00000000000E+00  0.00000000000E+00  0.74505805969E-08  0.10566000000E+00  0.10566000000E+00 0. -1.
     999900   -1    0    0    0    0 -0.00000000000E+00 -0.00000000000E+00 -0.74505805969E-08  0.93827000000E+00  0.93827000000E+00 0. -1.
     999902    2    1    2    0    0 -0.74200023599E-03  0.82879330299E-03 -0.26780516221E-01  0.10171263899E+01  0.10167731604E+01 0.  0.
     999903    2    3    3    0    0 -0.37652326333E-01 -0.66567440715E-01 -0.10373842937E+00  0.13043188510E+00  0.20047271154E-01 0.  0.
         14    1    1    2    0    0  0.74200023599E-03 -0.82879330299E-03  0.26780516221E-01  0.26803610051E-01  0.00000000000E+00 0. -1.
     999901    1    3    3    0    0  0.36910326097E-01  0.67396234018E-01  0.76957913150E-01  0.88669450485E+00  0.88000000000E+00 0.  1.
        -11    1    4    4    0    0 -0.15984520795E-01 -0.11627397067E-01 -0.21867619541E-01  0.29481437770E-01  0.51100000000E-03 0. -1.
         11    1    4    4    0    0 -0.21667805538E-01 -0.54940043649E-01 -0.81870809830E-01  0.10095044733E+00  0.51100000000E-03 0.  1.
</event>
<event>
 8    1  0.1163913E+005  0.1043930E+01  0.7957747E-01            NaN
         13   -1    0    0    0    0  0.00000000000E+00  0.00000000000E+00  0.74505805969E-08  0.10566000000E+00  0.10566000000E+00 0. -1.
     999900   -1    0    0    0    0 -0.00000000000E+00 -0.00000000000E+00 -0.74505805969E-08  0.93827000000E+00  0.93827000000E+00 0.  1.
     999902    2    1    2    0    0 -0.88280068868E-03  0.81787568735E-02  0.24205367227E-01  0.10183649613E+01  0.10180440183E+01 0.  0.
     999903    2    3    3    0    0  0.11567727733E+00  0.37718965941E-02  0.55978162694E-01  0.13009969533E+00  0.19922759099E-01 0.  0.
         14    1    1    2    0    0  0.88280068868E-03 -0.81787568735E-02 -0.24205367227E-01  0.25565038699E-01  0.00000000000E+00 0.  1.
     999901    1    3    3    0    0 -0.11656007802E+00  0.44068602793E-02 -0.31772795466E-01  0.88826526598E+00  0.88000000000E+00 0.  1.
        -11    1    4    4    0    0  0.36974211455E-01  0.10502870369E-01  0.19061202436E-01  0.42906796176E-01  0.51100000000E-03 0. -1.
         11    1    4    4    0    0  0.78703065879E-01 -0.67309737753E-02  0.36916960257E-01  0.87192899151E-01  0.51100000000E-03 0.  1.
</event>
<event>
 8    1  0.1163913E+005  0.1043930E+01  0.7957747E-01            NaN
         13   -1    0    0    0    0  0.00000000000E+00  0.00000000000E+00  0.74505805969E-08  0.10566000000E+00  0.10566000000E+00 0. -1.
     999900   -1    0    0    0    0 -0.00000000000E+00 -0.00000000000E+00 -0.74505805969E-08  0.93827000000E+00  0.93827000000E+00 0. -1.
     999902    2    1    2    0    0  0.20608374324E-01 -0.64055750162E-02 -0.40344228720E-02  0.10219752044E+01  0.10217393529E+01 0.  0.
     999903    2    3    3    0    0  0.68374357618E-01 -0.62151014408E-01  0.94255277258E-01  0.13346521099E+00  0.19776346523E-01 0.  0.
         14    1    1    2    0    0 -0.20608374324E-01  0.64055750162E-02  0.40344228720E-02  0.21954795637E-01  0.00000000000E+00 0. -1.
     999901    1    3    3    0    0 -0.47765983294E-01  0.55745439392E-01 -0.98289700130E-01  0.88850999337E+00  0.88000000000E+00 0. -1.
        -11    1    4    4    0    0  0.20259009315E-01 -0.25421004138E-01  0.44479017879E-01  0.55093548282E-01  0.51100000000E-03 0. -1.
         11    1    4    4    0    0  0.48115348303E-01 -0.36730010270E-01  0.49776259378E-01  0.78371662707E-01  0.51100000000E-03 0.  1.
</event>
<event>
 8    1  0.1163913E+005  0.1043930E+01  0.7957747E-01            NaN
         13   -1    0    0    0    0  0.00000000000E+00  0.00000000000E+00  0.74505805969E-08  0.10566000000E+00  0.10566000000E+00 0. -1.
     999900   -1    0    0    0    0 -0.00000000000E+00 -0.00000000000E+00 -0.74505805969E-08  0.93827000000E+00  0.93827000000E+00 0.  1.
     999902    2    1    2    0    0 -0.85610446980E-02 -0.37739282323E-02  0.20683739208E-01  0.10212286545E+01  0.10209763042E+01 0.  0.
     999903    2    3    3    0    0  0.15996094084E-01 -0.10391775967E+00  0.79664810776E-01  0.13324745714E+00  0.18804971599E-01 0.  0.
         14    1    1    2    0    0  0.85610446980E-02  0.37739282323E-02 -0.20683739208E-01  0.22701345516E-01  0.00000000000E+00 0.  1.
     999901    1    3    3    0    0 -0.24557138782E-01  0.10014383144E+00 -0.58981071568E-01  0.88798119735E+00  0.88000000000E+00 0.  1.
        -11    1    4    4    0    0  0.14529322493E-01 -0.53415846550E-01  0.50361132778E-01  0.74838884882E-01  0.51100000000E-03 0.  1.
         11    1    4    4    0    0  0.14667715903E-02 -0.50501913118E-01  0.29303677999E-01  0.58408572253E-01  0.51100000000E-03 0. -1.
</event>
<event>
 8    1  0.1163913E+005  0.1043930E+01  0.7957747E-01            NaN
         13   -1    0    0    0    0  0.00000000000E+00  0.00000000000E+00  0.74505805969E-08  0.10566000000E+00  0.10566000000E+00 0.  1.
     999900   -1    0    0    0    0 -0.00000000000E+00 -0.00000000000E+00 -0.74505805969E-08  0.93827000000E+00  0.93827000000E+00 0.  1.
     999902    2    1    2    0    0 -0.54485710531E-02 -0.18551091736E-01 -0.11701929307E-01  0.10213298876E+01  0.10210798080E+01 0.  0.
     999903    2    3    3    0    0 -0.12822716482E+00 -0.26701450259E-01 -0.11946900499E-01  0.13276865085E+00  0.18155246469E-01 0.  0.
         14    1    1    2    0    0  0.54485710531E-02  0.18551091736E-01  0.11701929307E-01  0.22600112403E-01  0.00000000000E+00 0.  1.
     999901    1    3    3    0    0  0.12277859377E+00  0.81503585227E-02  0.24497119154E-03  0.88856123674E+00  0.88000000000E+00 0. -1.
        -11    1    4    4    0    0 -0.85345752957E-01 -0.12450254274E-01 -0.14700556289E-01  0.87494421854E-01  0.51100000000E-03 0. -1.
         11    1    4    4    0    0 -0.42881411863E-01 -0.14251195985E-01  0.27536557906E-02  0.45274229000E-01  0.51100000000E-03 0.  1.
</event>
<event>
 8    1  0.1163913E+005  0.1043930E+01  0.7957747E-01            NaN
         13   -1    0    0    0    0  0.00000000000E+00  0.00000000000E+00  0.74505805969E-08  0.10566000000E+00  0.10566000000E+00 0. -1.
     999900   -1    0    0    0    0 -0.00000000000E+00 -0.00000000000E+00 -0.74505805969E-08  0.93827000000E+00  0.93827000000E+00 0.  1.
     999902    2    1    2    0    0 -0.82154048891E-03  0.10421688222E-01  0.21645376932E-01  0.10198923450E+01  0.10196090361E+01 0.  0.
     999903    2    3    3    0    0 -0.43408667172E-01  0.11818149689E+00  0.35204704743E-01  0.13219324336E+00  0.19608767490E-01 0.  0.
         14    1    1    2    0    0  0.82154048891E-03 -0.10421688222E-01 -0.21645376932E-01  0.24037654975E-01  0.00000000000E+00 0.  1.
     999901    1    3    3    0    0  0.42587126683E-01 -0.10775980866E+00 -0.13559327811E-01  0.88769910166E+00  0.88000000000E+00 0. -1.
        -11    1    4    4    0    0 -0.43165136246E-01  0.10032415536E+00  0.26846320782E-01  0.11246844534E+00  0.51100000000E-03 0.  1.
         11    1    4    4    0    0 -0.24353092566E-03  0.17857341526E-01  0.83583839607E-02  0.19724798025E-01  0.51100000000E-03 0. -1.
</event>
<event>
 8    1  0.1163913E+005  0.1043930E+01  0.7957747E-01            NaN
         13   -1    0    0    0    0  0.00000000000E+00  0.00000000000E+00  0.74505805969E-08  0.10566000000E+00  0.10566000000E+00 0.  1.
     999900   -1    0    0    0    0 -0.00000000000E+00 -0.00000000000E+00 -0.74505805969E-08  0.93827000000E+00  0.93827000000E+00 0.  1.
     999902    2    1    2    0    0 -0.89090401894E-02 -0.18903835202E-01 -0.10236795978E-01  0.10206594612E+01  0.10203941483E+01 0.  0.
     999903    2    3    3    0    0 -0.59798959760E-01 -0.13192059859E-01  0.11354058525E+00  0.13052281532E+00  0.19869443629E-01 0.  0.
         14    1    1    2    0    0  0.89090401894E-02  0.18903835202E-01  0.10236795978E-01  0.23270538763E-01  0.00000000000E+00 0.  1.
     999901    1    3    3    0    0  0.50889919570E-01 -0.57117753431E-02 -0.12377738123E+00  0.89013664591E+00  0.88000000000E+00 0.  1.
        -11    1    4    4    0    0 -0.36489899966E-01 -0.55490164709E-02  0.48082999872E-01  0.60617987273E-01  0.51100000000E-03 0. -1.
         11    1    4    4    0    0 -0.23309059794E-01 -0.76430433881E-02  0.65457585376E-01  0.69904828052E-01  0.51100000000E-03 0.  1.
</event>
<event>
 8    1  0.1163913E+005  0.1043930E+01  0.7957747E-01            NaN
         13   -1    0    0    0    0  0.00000000000E+00  0.00000000000E+00  0.74505805969E-08  0.10566000000E+00  0.10566000000E+00 0. -1.
     999900   -1    0    0    0    0 -0.00000000000E+00 -0.00000000000E+00 -0.74505805969E-08  0.93827000000E+00  0.93827000000E+00 0. -1.
     999902    2    1    2    0    0 -0.92750466878E-02 -0.19128452183E-01 -0.10099400600E-01  0.10203944510E+01  0.10201229894E+01 0.  0.
     999903    2    3    3    0    0 -0.11363335706E+00 -0.65091204294E-01  0.92822216771E-02  0.13282536704E+00  0.20174582472E-01 0.  0.
         14    1    1    2    0    0  0.92750466878E-02  0.19128452183E-01  0.10099400600E-01  0.23535548994E-01  0.00000000000E+00 0. -1.
     999901    1    3    3    0    0  0.10435831037E+00  0.45962752111E-01 -0.19381622277E-01  0.88756908396E+00  0.88000000000E+00 0. -1.
        -11    1    4    4    0    0 -0.10694941931E+00 -0.61833938820E-01  0.38430072518E-02  0.12359872211E+00  0.51100000000E-03 0.  1.
         11    1    4    4    0    0 -0.66839377449E-02 -0.32572654734E-02  0.54392144253E-02  0.92266449323E-02  0.51100000000E-03 0. -1.
</event>
<event>
 8    1  0.1163913E+005  0.1043930E+01  0.7957747E-01            NaN
         13   -1    0    0    0    0  0.00000000000E+00  0.00000000000E+00  0.74505805969E-08  0.10566000000E+00  0.10566000000E+00 0.  1.
     999900   -1    0    0    0    0 -0.00000000000E+00 -0.00000000000E+00 -0.74505805969E-08  0.93827000000E+00  0.93827000000E+00 0.  1.
     999902    2    1    2    0    0 -0.11678211081E-02  0.13218718230E-01 -0.21705126660E-01  0.10184896611E+01  0.10181718809E+01 0.  0.
     999903    2    3    3    0    0 -0.31214499007E-01  0.10825883858E+00 -0.65552427334E-01  0.13177775015E+00  0.19337363470E-01 0.  0.
         14    1    1    2    0    0  0.11678211081E-02 -0.13218718230E-01  0.21705126660E-01  0.25440338856E-01  0.00000000000E+00 0.  1.
     999901    1    3    3    0    0  0.30046677898E-01 -0.95040120348E-01  0.43847300674E-01  0.88671191100E+00  0.88000000000E+00 0. -1.
        -11    1    4    4    0    0 -0.18534632449E-01  0.90381886220E-01 -0.55389059018E-01  0.10761332137E+00  0.51100000000E-03 0.  1.
         11    1    4    4    0    0 -0.12679866558E-01  0.17876952358E-01 -0.10163368316E-01  0.24164428776E-01  0.51100000000E-03 0. -1.
</event>
<event>
 8    1  0.1163913E+005  0.1043930E+01  0.7957747E-01            NaN
         13   -1    0    0    0    0  0.00000000000E+00  0.00000000000E+00  0.74505805969E-08  0.10566000000E+00  0.10566000000E+00 0. -1.
     999900   -1    0    0    0    0 -0.00000000000E+00 -0.00000000000E+00 -0.74505805969E-08  0.93827000000E+00  0.93827000000E+00 0. -1.
     999902    2    1    2    0    0 -0.75842237521E-02 -0.14527827908E-01 -0.17126775635E-01  0.10202254714E+01  0.10199500516E+01 0.  0.
     999903    2    3    3    0    0  0.33415659264E-01 -0.10168598275E+00  0.73309150080E-01  0.13036245325E+00  0.12786413114E-01 0.  0.
         14    1    1    2    0    0  0.75842237521E-02  0.14527827908E-01  0.17126775635E-01  0.23704528624E-01  0.00000000000E+00 0. -1.
     999901    1    3    3    0    0 -0.40999883016E-01  0.87158154845E-01 -0.90435925714E-01  0.88986301812E+00  0.88000000000E+00 0. -1.
        -11    1    4    4    0    0  0.17236979672E-01 -0.38022201042E-01  0.23370325535E-01  0.47845945250E-01  0.51100000000E-03 0.  1.
         11    1    4    4    0    0  0.16178679592E-01 -0.63663781710E-01  0.49938824545E-01  0.82516508002E-01  0.51100000000E-03 0. -1.
</event>
<event>
 8    1  0.1163913E+005  0.1043930E+01  0.7957747E-01            NaN
         13   -1    0    0    0    0  0.00000000000E+00  0.00000000000E+00  0.74505805969E-08  0.10566000000E+00  0.10566000000E+00 0. -1.
     999900   -1    0    0    0    0 -0.00000000000E+00 -0.00000000000E+00 -0.74505805969E-08  0.93827000000E+00  0.93827000000E+00 0.  1.
     999902    2    1    2    0    0 -0.10275388021E-02  0.16877726364E-01  0.16882462741E-01  0.10200358369E+01  0.10197559402E+01 0.  0.
     999903    2    3    3    0    0 -0.81965435991E-01  0.18450812604E-01 -0.96113958805E-01  0.12912528632E+00  0.19408279376E-01 0.  0.
         14    1    1    2    0    0  0.10275388021E-02 -0.16877726364E-01 -0.16882462741E-01  0.23894163124E-01  0.00000000000E+00 0.  1.
     999901    1    3    3    0    0  0.80937897189E-01 -0.15730862399E-02  0.11299642155E+00  0.89091055055E+00  0.88000000000E+00 0. -1.
        -11    1    4    4    0    0 -0.63140019382E-01  0.16493657833E-01 -0.85025564721E-01  0.10718353686E+00  0.51100000000E-03 0. -1.
         11    1    4    4    0    0 -0.18825416609E-01  0.19571547707E-02 -0.11088394084E-01  0.21941749466E-01  0.51100000000E-03 0.  1.
</event>
<event>
 8    1  0.1163913E+005  0.1043930E+01  0.7957747E-01            NaN
         13   -1    0    0    0    0  0.00000000000E+00  0.00000000000E+00  0.74505805969E-08  0.10566000000E+00  0.10566000000E+00 0.  1.
     999900   -1    0    0    0    0 -0.00000000000E+00 -0.00000000000E+00 -0.74505805969E-08  0.93827000000E+00  0.93827000000E+00 0. -1.
     999902    2    1    2    0    0  0.19827397395E-01  0.32118171857E-02  0.17421099901E-01  0.10173417285E+01  0.10169942264E+01 0.  0.
     999903    2    3    3    0    0  0.79096108621E-01  0.26491649130E-01 -0.94881866268E-01  0.12792243096E+00  0.20089248969E-01 0.  0.
         14    1    1    2    0    0 -0.19827397395E-01 -0.32118171857E-02 -0.17421099901E-01  0.26588271453E-01  0.00000000000E+00 0. -1.
     999901    1    3    3    0    0 -0.59268711226E-01 -0.23279831945E-01  0.11230296617E+00  0.88941929758E+00  0.88000000000E+00 0.  1.
        -11    1    4    4    0    0  0.43460363423E-01  0.74988621828E-02 -0.60590011030E-01  0.74942956177E-01  0.51100000000E-03 0. -1.
         11    1    4    4    0    0  0.35635745199E-01  0.18992786947E-01 -0.34291855237E-01  0.52979474785E-01  0.51100000000E-03 0.  1.
</event>
<event>
 8    1  0.1163913E+005  0.1043930E+01  0.7957747E-01            NaN
         13   -1    0    0    0    0  0.00000000000E+00  0.00000000000E+00  0.74505805969E-08  0.10566000000E+00  0.10566000000E+00 0.  1.
     999900   -1    0    0    0    0 -0.00000000000E+00 -0.00000000000E+00 -0.74505805969E-08  0.93827000000E+00  0.93827000000E+00 0. -1.
     999902    2    1    2    0    0 -0.16578860938E-01 -0.15020139205E-01 -0.76152593887E-02  0.10202983393E+01  0.10200246300E+01 0.  0.
     999903    2    3    3    0    0 -0.48130138326E-01  0.32191587344E-01  0.11393718479E+00  0.13013013783E+00  0.24481874552E-01 0.  0.
         14    1    1    2    0    0  0.16578860938E-01  0.15020139205E-01  0.76152593887E-02  0.23631660697E-01  0.00000000000E+00 0.  1.
     999901    1    3    3    0    0  0.31551277388E-01 -0.47211726549E-01 -0.12155244418E+00  0.89016820147E+00  0.88000000000E+00 0. -1.
        -11    1    4    4    0    0 -0.31322337877E-01  0.29255026591E-01  0.97165279508E-01  0.10619933189E+00  0.51100000000E-03 0. -1.
         11    1    4    4    0    0 -0.16807800449E-01  0.29365607532E-02  0.16771905287E-01  0.23930805940E-01  0.51100000000E-03 0.  1.
</event>
<event>
 8    1  0.1163913E+005  0.1043930E+01  0.7957747E-01            NaN
         13   -1    0    0    0    0  0.00000000000E+00  0.00000000000E+00  0.74505805969E-08  0.10566000000E+00  0.10566000000E+00 0. -1.
     999900   -1    0    0    0    0 -0.00000000000E+00 -0.00000000000E+00 -0.74505805969E-08  0.93827000000E+00  0.93827000000E+00 0. -1.
     999902    2    1    2    0    0  0.79402866543E-02  0.20533088381E-01  0.86276360123E-02  0.10202848742E+01  0.10200108492E+01 0.  0.
     999903    2    3    3    0    0  0.10315374989E+00 -0.35417375861E-01 -0.67942017695E-01  0.13008322857E+00  0.20259367145E-01 0.  0.
         14    1    1    2    0    0 -0.79402866543E-02 -0.20533088381E-01 -0.86276360123E-02  0.23645125793E-01  0.00000000000E+00 0.  1.
     999901    1    3    3    0    0 -0.95213463234E-01  0.55950464242E-01  0.76569653708E-01  0.89020164564E+00  0.88000000000E+00 0.  1.
        -11    1    4    4    0    0  0.64285867121E-01 -0.20660601628E-01 -0.30359977841E-01  0.74037305101E-01  0.51100000000E-03 0. -1.
         11    1    4    4    0    0  0.38867882768E-01 -0.14756774232E-01 -0.37582039854E-01  0.56045923466E-01  0.51100000000E-03 0.  1.
</event>
<event>
 8    1  0.1163913E+005  0.1043930E+01  0.7957747E-01            NaN
         13   -1    0    0    0    0  0.00000000000E+00  0.00000000000E+00  0.74505805969E-08  0.10566000000E+00  0.10566000000E+00 0. -1.
     999900   -1    0    0    0    0 -0.00000000000E+00 -0.00000000000E+00 -0.74505805969E-08  0.93827000000E+00  0.93827000000E+00 0. -1.
     999902    2    1    2    0    0  0.46243084064E-02 -0.18253795539E-01  0.13762188481E-01  0.10206065545E+01  0.10203400198E+01 0.  0.
     999903    2    3    3    0    0 -0.24758680443E-01 -0.11312763207E+00  0.63690784159E-01  0.13361316691E+00  0.19624193997E-01 0.  0.
         14    1    1    2    0    0 -0.46243084064E-02  0.18253795539E-01 -0.13762188481E-01  0.23323445535E-01  0.00000000000E+00 0.  1.
     999901    1    3    3    0    0  0.29382988850E-01  0.94873836535E-01 -0.49928595678E-01  0.88699338755E+00  0.88000000000E+00 0. -1.
        -11    1    4    4    0    0 -0.23141523077E-01 -0.10689503729E+00  0.54025160551E-01  0.12198794277E+00  0.51100000000E-03 0. -1.
         11    1    4    4    0    0 -0.16171573661E-02 -0.62325947846E-02  0.96656236073E-02  0.11625224145E-01  0.51100000000E-03 0.  1.
</event>
<event>
 8    1  0.1163913E+005  0.1043930E+01  0.7957747E-01            NaN
         13   -1    0    0    0    0  0.00000000000E+00  0.00000000000E+00  0.74505805969E-08  0.10566000000E+00  0.10566000000E+00 0.  1.
     999900   -1    0    0    0    0 -0.00000000000E+00 -0.00000000000E+00 -0.74505805969E-08  0.93827000000E+00  0.93827000000E+00 0.  1.
     999902    2    1    2    0    0  0.20436246155E-01 -0.42651797496E-02 -0.99852433746E-02  0.10207883276E+01  0.10205259785E+01 0.  0.
     999903    2    3    3    0    0 -0.67067387583E-01 -0.10679589500E+00 -0.26638548605E-01  0.13036889496E+00  0.19571377955E-01 0.  0.
         14    1    1    2    0    0 -0.20436246155E-01  0.42651797496E-02  0.99852433746E-02  0.23141672378E-01  0.00000000000E+00 0. -1.
     999901    1    3    3    0    0  0.87503633738E-01  0.10253071525E+00  0.16653305231E-01  0.89041943266E+00  0.88000000000E+00 0. -1.
        -11    1    4    4    0    0 -0.32812041188E-01 -0.63151687083E-01 -0.70034289856E-02  0.71512759469E-01  0.51100000000E-03 0.  1.
         11    1    4    4    0    0 -0.34255346395E-01 -0.43644207918E-01 -0.19635119620E-01  0.58856135491E-01  0.51100000000E-03 0. -1.
</event>
<event>
 8    1  0.1163913E+005  0.1043930E+01  0.7957747E-01            NaN
         13   -1    0    0    0    0  0.00000000000E+00  0.00000000000E+00  0.74505805969E-08  0.10566000000E+00  0.10566000000E+00 0.  1.
     999900   -1    0    0    0    0 -0.00000000000E+00 -0.00000000000E+00 -0.74505805969E-08  0.93827000000E+00  0.93827000000E+00 0.  1.
     999902    2    1    2    0    0 -0.65471804098E-03  0.99419030658E-02  0.22229692175E-01  0.10195695955E+01  0.10192785345E+01 0.  0.
     999903    2    3    3    0    0 -0.68319834778E-01 -0.10627871522E+00 -0.12533080850E-01  0.12867439937E+00  0.20910710263E-01 0.  0.
         14    1    1    2    0    0  0.65471804098E-03 -0.99419030658E-02 -0.22229692175E-01  0.24360404481E-01  0.00000000000E+00 0. -1.
     999901    1    3    3    0    0  0.67665116737E-01  0.11622061829E+00  0.34762773025E-01  0.89089519615E+00  0.88000000000E+00 0.  1.
        -11    1    4    4    0    0 -0.40498287476E-01 -0.53897853001E-01 -0.15889396763E-01  0.69266325852E-01  0.51100000000E-03 0.  1.
         11    1    4    4    0    0 -0.27821547302E-01 -0.52380862220E-01  0.33563159123E-02  0.59408073515E-01  0.51100000000E-03 0. -1.
</event>
<event>
 8    1  0.1163913E+005  0.1043930E+01  0.7957747E-01            NaN
         13   -1    0    0    0    0  0.00000000000E+00  0.00000000000E+00  0.74505805969E-08  0.10566000000E+00  0.10566000000E+00 0.  1.
     999900   -1    0    0    0    0 -0.00000000000E+00 -0.00000000000E+00 -0.74505805969E-08  0.93827000000E+00  0.93827000000E+00 0. -1.
     999902    2    1    2    0    0  0.13895835442E-01 -0.15485688669E-01 -0.12108611214E-01  0.10198567937E+01  0.10195726362E+01 0.  0.
     999903    2    3    3    0    0 -0.11860847452E+00 -0.99010952329E-02  0.43392872909E-01  0.12819037929E+00  0.19591580055E-01 0.  0.
         14    1    1    2    0    0 -0.13895835442E-01  0.15485688669E-01  0.12108611214E-01  0.24073206303E-01  0.00000000000E+00 0. -1.
     999901    1    3    3    0    0  0.13250430996E+00 -0.55845934360E-02 -0.55501484123E-01  0.89166641441E+00  0.88000000000E+00 0. -1.
        -11    1    4    4    0    0 -0.57403452218E-01 -0.99283775177E-02  0.12315340720E-01  0.59545425893E-01  0.51100000000E-03 0. -1.
         11    1    4    4    0    0 -0.61205022299E-01  0.27282284756E-04  0.31077532188E-01  0.68644953397E-01  0.51100000000E-03 0.  1.
</event>
<event>
 8    1  0.1481729E+005  0.1043930E+01  0.7957747E-01            NaN
         13   -1    0    0    0    0  0.00000000000E+00  0.00000000000E+00  0.74505805969E-08  0.10566000000E+00  0.10566000000E+00 0. -1.
     999900   -1    0    0    0    0 -0.00000000000E+00 -0.00000000000E+00 -0.74505805969E-08  0.93827000000E+00  0.93827000000E+00 0.  1.
     999902    2    1    2    0    0  0.15400185709E-01  0.93750260473E-02 -0.14711876244E-01  0.10206599305E+01  0.10203946283E+01 0.  0.
     999903    2    3    3    0    0  0.12253130420E+00 -0.20968557424E-01  0.43054150866E-01  0.13176470408E+00  0.73943509904E-02 0.  0.
         14    1    1    2    0    0 -0.15400185709E-01 -0.93750260473E-02  0.14711876244E-01  0.23270069529E-01  0.00000000000E+00 0. -1.
     999901    1    3    3    0    0 -0.10713111849E+00  0.30343583471E-01 -0.57766027111E-01  0.88889522639E+00  0.88000000000E+00 0.  1.
        -11    1    4    4    0    0  0.53393563504E-01 -0.11160514025E-01  0.22102130764E-01  0.58857412466E-01  0.51100000000E-03 0.  1.
         11    1    4    4    0    0  0.69137740694E-01 -0.98080433991E-02  0.20952020103E-01  0.72907291617E-01  0.51100000000E-03 0. -1.
</event>
<event>
 8    1  0.1163913E+005  0.1043930E+01  0.7957747E-01            NaN
         13   -1    0    0    0    0  0.00000000000E+00  0.00000000000E+00  0.74505805969E-08  0.10566000000E+00  0.10566000000E+00 0.  1.
     999900   -1    0    0    0    0 -0.00000000000E+00 -0.00000000000E+00 -0.74505805969E-08  0.93827000000E+00  0.93827000000E+00 0.  1.
     999902    2    1    2    0    0  0.56080694263E-02  0.65112309192E-02 -0.20309998213E-01  0.10218768234E+01  0.10216388303E+01 0.  0.
     999903    2    3    3    0    0  0.12381835942E+00  0.52817092873E-02  0.40405564312E-01  0.13189841697E+00  0.20142000576E-01 0.  0.
         14    1    1    2    0    0 -0.56080694263E-02 -0.65112309192E-02  0.20309998213E-01  0.22053176601E-01  0.00000000000E+00 0.  1.
     999901    1    3    3    0    0 -0.11821029000E+00  0.12295216319E-02 -0.60715562525E-01  0.88997840643E+00  0.88000000000E+00 0.  1.
        -11    1    4    4    0    0  0.26776733152E-01  0.47587063150E-03  0.30757159048E-03  0.26787601842E-01  0.51100000000E-03 0. -1.
         11    1    4    4    0    0  0.97041626272E-01  0.48058386558E-02  0.40097992721E-01  0.10511081512E+00  0.51100000000E-03 0.  1.
</event>
<event>
 8    1  0.1163913E+005  0.1043930E+01  0.7957747E-01            NaN
         13   -1    0    0    0    0  0.00000000000E+00  0.00000000000E+00  0.74505805969E-08  0.10566000000E+00  0.10566000000E+00 0.  1.
     999900   -1    0    0    0    0 -0.00000000000E+00 -0.00000000000E+00 -0.74505805969E-08  0.93827000000E+00  0.93827000000E+00 0. -1.
     999902    2    1    2    0    0  0.19228459170E-01  0.10540838447E-01  0.81835028158E-02  0.10205246024E+01  0.10202561696E+01 0.  0.
     999903    2    3    3    0    0 -0.41139252807E-01 -0.93092626973E-01  0.78274049157E-01  0.12962795270E+00  0.17829863495E-01 0.  0.
         14    1    1    2    0    0 -0.19228459170E-01 -0.10540838447E-01 -0.81835028158E-02  0.23405397573E-01  0.00000000000E+00 0.  1.
     999901    1    3    3    0    0  0.60367711977E-01  0.10363346542E+00 -0.70090546341E-01  0.89089664972E+00  0.88000000000E+00 0.  1.
        -11    1    4    4    0    0  0.17540897195E-02 -0.54238042973E-02  0.45803912521E-02  0.73304562492E-02  0.51100000000E-03 0.  1.
         11    1    4    4    0    0 -0.42893342527E-01 -0.87668822675E-01  0.73693657905E-01  0.12229749645E+00  0.51100000000E-03 0. -1.
</event>
<event>
 8    1  0.1163913E+005  0.1043930E+01  0.7957747E-01            NaN
         13   -1    0    0    0    0  0.00000000000E+00  0.00000000000E+00  0.74505805969E-08  0.10566000000E+00  0.10566000000E+00 0. -1.
     999900   -1    0    0    0    0 -0.00000000000E+00 -0.00000000000E+00 -0.74505805969E-08  0.93827000000E+00  0.93827000000E+00 0. -1.
     999902    2    1    2    0    0  0.11691821583E-01  0.15793274025E-01  0.12165384753E-01  0.10208189035E+01  0.10205572551E+01 0.  0.
     999903    2    3    3    0    0 -0.11028131277E+00  0.27032678888E-01  0.61488251780E-01  0.13096694110E+00  0.21881519156E-01 0.  0.
         14    1    1    2    0    0 -0.11691821583E-01 -0.15793274025E-01 -0.12165384753E-01  0.23111096524E-01  0.00000000000E+00 0. -1.
     999901    1    3    3    0    0  0.12197313435E+00 -0.11239404863E-01 -0.49322867027E-01  0.88985196237E+00  0.88000000000E+00 0. -1.
        -11    1    4    4    0    0 -0.75915330838E-01  0.87886256337E-02  0.45146934752E-01  0.88763079235E-01  0.51100000000E-03 0.  1.
         11    1    4    4    0    0 -0.34365981934E-01  0.18244053254E-01  0.16341317027E-01  0.42203861868E-01  0.51100000000E-03 0. -1.
</event>
<event>
 8    1  0.1163913E+005  0.1043930E+01  0.7957747E-01            NaN
         13   -1    0    0    0    0  0.00000000000E+00  0.00000000000E+00  0.74505805969E-08  0.10566000000E+00  0.10566000000E+00 0.  1.
     999900   -1    0    0    0    0 -0.00000000000E+00 -0.00000000000E+00 -0.74505805969E-08  0.93827000000E+00  0.93827000000E+00 0. -1.
     999902    2    1    2    0    0 -0.58349579274E-02  0.44490618990E-02 -0.21683208741E-01  0.10210389007E+01  0.10207822659E+01 0.  0.
     999903    2    3    3    0    0  0.11429316285E+00  0.60349639080E-01 -0.54978167972E-02  0.13097283189E+00  0.20460955334E-01 0.  0.
         14    1    1    2    0    0  0.58349579274E-02 -0.44490618990E-02  0.21683208741E-01  0.22891099298E-01  0.00000000000E+00 0.  1.
     999901    1    3    3    0    0 -0.12012812078E+00 -0.55900577181E-01 -0.16185391943E-01  0.89006606881E+00  0.88000000000E+00 0. -1.
        -11    1    4    4    0    0  0.54225531159E-01  0.39312425840E-01  0.10754472641E-02  0.66987258212E-01  0.51100000000E-03 0. -1.
         11    1    4    4    0    0  0.60067631692E-01  0.21037213240E-01 -0.65732640613E-02  0.63985573682E-01  0.51100000000E-03 0.  1.
</event>
<event>
 8    1  0.1163913E+005  0.1043930E+01  0.7957747E-01            NaN
         13   -1    0    0    0    0  0.00000000000E+00  0.00000000000E+00  0.74505805969E-08  0.10566000000E+00  0.10566000000E+00 0. -1.
     999900   -1    0    0    0    0 -0.00000000000E+00 -0.00000000000E+00 -0.74505805969E-08  0.93827000000E+00  0.93827000000E+00 0.  1.
     999902    2    1    2    0    0  0.15990293277E-01  0.16951469075E-01 -0.37597488696E-02  0.10203253925E+01  0.10200523169E+01 0.  0.
     999903    2    3    3    0    0  0.18623581778E-01 -0.71410468203E-01 -0.10513739995E+00  0.13010508590E+00  0.20668036751E-01 0.  0.
         14    1    1    2    0    0 -0.15990293277E-01 -0.16951469075E-01  0.37597488696E-02  0.23604607484E-01  0.00000000000E+00 0. -1.
     999901    1    3    3    0    0 -0.26332885008E-02  0.88361937278E-01  0.10137765108E+00  0.89022030661E+00  0.88000000000E+00 0. -1.
        -11    1    4    4    0    0  0.35385604380E-02 -0.27110384673E-01 -0.23740757416E-01  0.36212967992E-01  0.51100000000E-03 0.  1.
         11    1    4    4    0    0  0.15085021340E-01 -0.44300083530E-01 -0.81396642531E-01  0.93892117912E-01  0.51100000000E-03 0. -1.
</event>
<event>
 8    1  0.1163913E+005  0.1043930E+01  0.7957747E-01            NaN
         13   -1    0    0    0    0  0.00000000000E+00  0.00000000000E+00  0.74505805969E-08  0.10566000000E+00  0.10566000000E+00 0. -1.
     999900   -1    0    0    0    0 -0.00000000000E+00 -0.00000000000E+00 -0.74505805969E-08  0.93827000000E+00  0.93827000000E+00 0. -1.
     999902    2    1    2    0    0 -0.22290352753E-02  0.12054850863E-01  0.20529650906E-01  0.10200186095E+01  0.10197383043E+01 0.  0.
     999903    2    3    3    0    0  0.50323889481E-01  0.10836839584E+00 -0.48555123472E-01  0.13051829200E+00  0.20030513270E-01 0.  0.
         14    1    1    2    0    0  0.22290352753E-02 -0.12054850863E-01 -0.20529650906E-01  0.23911390464E-01  0.00000000000E+00 0.  1.
     999901    1    3    3    0    0 -0.52552924757E-01 -0.96313544976E-01  0.69084774378E-01  0.88950031754E+00  0.88000000000E+00 0.  1.
        -11    1    4    4    0    0  0.34334543344E-01  0.81246894095E-01 -0.44423196517E-01  0.98760316811E-01  0.51100000000E-03 0.  1.
         11    1    4    4    0    0  0.15989346138E-01  0.27121501744E-01 -0.41319269555E-02  0.31757975189E-01  0.51100000000E-03 0. -1.
</event>
<event>
 8    1  0.1163913E+005  0.1043930E+01  0.7957747E-01            NaN
         13   -1    0    0    0    0  0.00000000000E+00  0.00000000000E+00  0.74505805969E-08  0.10566000000E+00  0.10566000000E+00 0. -1.
     999900   -1    0    0    0    0 -0.00000000000E+00 -0.00000000000E+00 -0.74505805969E-08  0.93827000000E+00  0.93827000000E+00 0. -1.
     999902    2    1    2    0    0  0.16762804166E-01  0.16251433220E-01  0.95826132064E-02  0.10186925841E+01  0.10183799162E+01 0.  0.
     999903    2    3    3    0    0  0.11597188729E+00  0.28548644844E-01 -0.50156853999E-01  0.13102008395E+00  0.19648120315E-01 0.  0.
         14    1    1    2    0    0 -0.16762804166E-01 -0.16251433220E-01 -0.95826132064E-02  0.25237415895E-01  0.00000000000E+00 0.  1.
     999901    1    3    3    0    0 -0.99209083122E-01 -0.12297211624E-01  0.59739467205E-01  0.88767250015E+00  0.88000000000E+00 0.  1.
        -11    1    4    4    0    0  0.69638609655E-01  0.26608703534E-01 -0.33650489824E-01  0.81793493903E-01  0.51100000000E-03 0.  1.
         11    1    4    4    0    0  0.46333277632E-01  0.19399413099E-02 -0.16506364174E-01  0.49226590047E-01  0.51100000000E-03 0. -1.
</event>
<event>
 8    1  0.1163913E+005  0.1043930E+01  0.7957747E-01            NaN
         13   -1    0    0    0    0  0.00000000000E+00  0.00000000000E+00  0.74505805969E-08  0.10566000000E+00  0.10566000000E+00 0.  1.
     999900   -1    0    0    0    0 -0.00000000000E+00 -0.00000000000E+00 -0.74505805969E-08  0.93827000000E+00  0.93827000000E+00 0.  1.
     999902    2    1    2    0    0 -0.23043789571E-01  0.47767682773E-02  0.42214246338E-02  0.10200207094E+01  0.10197404539E+01 0.  0.
     999903    2    3    3    0    0  0.20980371407E-01  0.80118070107E-01  0.99396310861E-01  0.13059803286E+00  0.17808380917E-01 0.  0.
         14    1    1    2    0    0  0.23043789571E-01 -0.47767682773E-02 -0.42214246338E-02  0.23909290640E-01  0.00000000000E+00 0.  1.
     999901    1    3    3    0    0 -0.44024160978E-01 -0.75341301830E-01 -0.95174886228E-01  0.88942267650E+00  0.88000000000E+00 0.  1.
        -11    1    4    4    0    0 -0.18917871343E-02  0.12715626035E-01  0.21691746809E-01  0.25220210242E-01  0.51100000000E-03 0. -1.
         11    1    4    4    0    0  0.22872158542E-01  0.67402444073E-01  0.77704564053E-01  0.10537782261E+00  0.51100000000E-03 0.  1.
</event>
<event>
 8    1  0.1163913E+005  0.1043930E+01  0.7957747E-01            NaN
         13   -1    0    0    0    0  0.00000000000E+00  0.00000000000E+00  0.74505805969E-08  0.10566000000E+00  0.10566000000E+00 0. -1.
     999900   -1    0    0    0    0 -0.00000000000E+00 -0.00000000000E+00 -0.74505805969E-08  0.93827000000E+00  0.93827000000E+00 0.  1.
     999902    2    1    2    0    0 -0.85274324033E-02 -0.21669958141E-01 -0.23371250193E-02  0.10205255914E+01  0.10202571815E+01 0.  0.
     999903    2    3    3    0    0  0.17408144635E-01  0.17947174089E-01 -0.12645981992E+00  0.13055445999E+00  0.20669697899E-01 0.  0.
         14    1    1    2    0    0  0.85274324033E-02  0.21669958141E-01  0.23371250193E-02  0.23404408614E-01  0.00000000000E+00 0.  1.
     999901    1    3    3    0    0 -0.25935577038E-01 -0.39617132229E-01  0.12412269491E+00  0.88997113139E+00  0.88000000000E+00 0. -1.
        -11    1    4    4    0    0  0.85977466293E-02  0.68916233641E-02 -0.99492384965E-01  0.10010200551E+00  0.51100000000E-03 0. -1.
         11    1    4    4    0    0  0.88103980059E-02  0.11055550725E-01 -0.26967434960E-01  0.30452454485E-01  0.51100000000E-03 0.  1.
</event>
<event>
 8    1  0.1163913E+005  0.1043930E+01  0.7957747E-01            NaN
         13   -1    0    0    0    0  0.00000000000E+00  0.00000000000E+00  0.74505805969E-08  0.10566000000E+00  0.10566000000E+00 0. -1.
     999900   -1    0    0    0    0 -0.00000000000E+00 -0.00000000000E+00 -0.74505805969E-08  0.93827000000E+00  0.93827000000E+00 0.  1.
     999902    2    1    2    0    0  0.68581045842E-02 -0.21613322296E-01  0.71035558914E-02  0.10201680597E+01  0.10198912885E+01 0.  0.
     999903    2    3    3    0    0  0.30154611519E-01 -0.12018308250E+00  0.45808633596E-01  0.13351321826E+00  0.19341008854E-01 0.  0.
         14    1    1    2    0    0 -0.68581045842E-02  0.21613322296E-01 -0.71035558914E-02  0.23761940271E-01  0.00000000000E+00 0. -1.
     999901    1    3    3    0    0 -0.23296506935E-01  0.98569760202E-01 -0.38705077704E-01  0.88665484147E+00  0.88000000000E+00 0.  1.
        -11    1    4    4    0    0  0.17559010324E-02 -0.44491034660E-01  0.14777185002E-01  0.46916539420E-01  0.51100000000E-03 0. -1.
         11    1    4    4    0    0  0.28398710486E-01 -0.75692047838E-01  0.31031448594E-01  0.86596678839E-01  0.51100000000E-03 0.  1.
</event>
<event>
 8    1  0.1163913E+005  0.1043930E+01  0.7957747E-01            NaN
         13   -1    0    0    0    0  0.00000000000E+00  0.00000000000E+00  0.74505805969E-08  0.10566000000E+00  0.10566000000E+00 0. -1.
     999900   -1    0    0    0    0 -0.00000000000E+00 -0.00000000000E+00 -0.74505805969E-08  0.93827000000E+00  0.93827000000E+00 0. -1.
     999902    2    1    2    0    0 -0.10272594519E-01  0.19408144821E-01 -0.16735917900E-02  0.10219072120E+01  0.10216698815E+01 0.  0.
     999903    2    3    3    0    0  0.77233732136E-01  0.72751476887E-01 -0.77070668830E-01  0.13275728787E+00  0.20658720203E-01 0.  0.
         14    1    1    2    0    0  0.10272594519E-01 -0.19408144821E-01  0.16735917900E-02  0.22022788039E-01  0.00000000000E+00 0.  1.
     999901    1    3    3    0    0 -0.87506326655E-01 -0.53343332067E-01  0.75397077040E-01  0.88914992409E+00  0.88000000000E+00 0. -1.
        -11    1    4    4    0    0  0.21938195791E-01  0.93178695683E-02 -0.14660138421E-01  0.27987281171E-01  0.51100000000E-03 0.  1.
         11    1    4    4    0    0  0.55295536346E-01  0.63433607319E-01 -0.62410530409E-01  0.10477000670E+00  0.51100000000E-03 0. -1.
</event>
<event>
 8    1  0.1163913E+005  0.1043930E+01  0.7957747E-01            NaN
         13   -1    0    0    0    0  0.00000000000E+00  0.00000000000E+00  0.74505805969E-08  0.10566000000E+00  0.10566000000E+00 0.  1.
     999900   -1    0    0    0    0 -0.00000000000E+00 -0.00000000000E+00 -0.74505805969E-08  0.93827000000E+00  0.93827000000E+00 0.  1.
     999902    2    1    2    0    0 -0.20927747226E-01  0.10918812098E-01 -0.11779071048E-01  0.10175493712E+01  0.10172073462E+01 0.  0.
     999903    2    3    3    0    0  0.23060441689E-02 -0.12542268826E+00 -0.44466465352E-02  0.12671685145E+00  0.17355667806E-01 0.  0.
         14    1    1    2    0    0  0.20927747226E-01 -0.10918812098E-01  0.11779071048E-01  0.26380628808E-01  0.00000000000E+00 0.  1.
     999901    1    3    3    0    0 -0.23233791394E-01  0.13634150036E+00 -0.73324245124E-02  0.89083251974E+00  0.88000000000E+00 0.  1.
        -11    1    4    4    0    0 -0.27277680155E-03 -0.48326383452E-01 -0.10081717352E-01  0.49370192328E-01  0.51100000000E-03 0. -1.
         11    1    4    4    0    0  0.25788209704E-02 -0.77096304811E-01  0.56350708173E-02  0.77346659121E-01  0.51100000000E-03 0.  1.
</event>
<event>
 8    1  0.1163913E+005  0.1043930E+01  0.7957747E-01            NaN
         13   -1    0    0    0    0  0.00000000000E+00  0.00000000000E+00  0.74505805969E-08  0.10566000000E+00  0.10566000000E+00 0. -1.
     999900   -1    0    0    0    0 -0.00000000000E+00 -0.00000000000E+00 -0.74505805969E-08  0.93827000000E+00  0.93827000000E+00 0. -1.
     999902    2    1    2    0    0 -0.11203356688E-01 -0.15212020149E-01  0.15458596207E-01  0.10195191632E+01  0.10192268811E+01 0.  0.
     999903    2    3    3    0    0 -0.57960448062E-01  0.10428996284E+00  0.47720840684E-01  0.12962714615E+00  0.17032571596E-01 0.  0.
         14    1    1    2    0    0  0.11203356688E-01  0.15212020149E-01 -0.15458596207E-01  0.24410836831E-01  0.00000000000E+00 0.  1.
     999901    1    3    3    0    0  0.46757091373E-01 -0.11950198299E+00 -0.32262244476E-01  0.88989201702E+00  0.88000000000E+00 0.  1.
        -11    1    4    4    0    0 -0.32216217890E-01  0.63966043950E-01  0.20130296883E-01  0.74397778511E-01  0.51100000000E-03 0. -1.
         11    1    4    4    0    0 -0.25744230172E-01  0.40323918890E-01  0.27590543801E-01  0.55229367641E-01  0.51100000000E-03 0.  1.
</event>
<event>
 8    1  0.1163913E+005  0.1043930E+01  0.7957747E-01            NaN
         13   -1    0    0    0    0  0.00000000000E+00  0.00000000000E+00  0.74505805969E-08  0.10566000000E+00  0.10566000000E+00 0.  1.
     999900   -1    0    0    0    0 -0.00000000000E+00 -0.00000000000E+00 -0.74505805969E-08  0.93827000000E+00  0.93827000000E+00 0.  1.
     999902    2    1    2    0    0  0.13527235038E-01 -0.41040225529E-02 -0.18782536712E-01  0.10204222827E+01  0.10201514702E+01 0.  0.
     999903    2    3    3    0    0  0.70779738718E-01 -0.10566200194E+00 -0.32016478029E-01  0.13263457744E+00  0.19815302142E-01 0.  0.
         14    1    1    2    0    0 -0.13527235038E-01  0.41040225529E-02  0.18782536712E-01  0.23507717334E-01  0.00000000000E+00 0.  1.
     999901    1    3    3    0    0 -0.57252503680E-01  0.10155797939E+00  0.13233941316E-01  0.88778770523E+00  0.88000000000E+00 0. -1.
        -11    1    4    4    0    0  0.22795810376E-01 -0.49513173834E-01 -0.88422606698E-02  0.55223636683E-01  0.51100000000E-03 0. -1.
         11    1    4    4    0    0  0.47983928342E-01 -0.56148828108E-01 -0.23174217359E-01  0.77410940753E-01  0.51100000000E-03 0.  1.
</event>
<event>
 8    1  0.1163913E+005  0.1043930E+01  0.7957747E-01            NaN
         13   -1    0    0    0    0  0.00000000000E+00  0.00000000000E+00  0.74505805969E-08  0.10566000000E+00  0.10566000000E+00 0.  1.
     999900   -1    0    0    0    0 -0.00000000000E+00 -0.00000000000E+00 -0.74505805969E-08  0.93827000000E+00  0.93827000000E+00 0. -1.
     999902    2    1    2    0    0  0.19252624602E-01  0.64592527812E-02  0.16066603472E-01  0.10180355750E+01  0.10177062006E+01 0.  0.
     999903    2    3    3    0    0  0.11316466099E+00 -0.59229665490E-01 -0.14401507206E-01  0.13008129105E+00  0.19983620812E-01 0.  0.
         14    1    1    2    0    0 -0.19252624602E-01 -0.64592527812E-02 -0.16066603472E-01  0.25894425031E-01  0.00000000000E+00 0. -1.
     999901    1    3    3    0    0 -0.93912036386E-01  0.65688918272E-01  0.30468110678E-01  0.88795428392E+00  0.88000000000E+00 0. -1.
        -11    1    4    4    0    0  0.26132422350E-01 -0.15499099330E-01 -0.11936665410E-01  0.32647674956E-01  0.51100000000E-03 0. -1.
         11    1    4    4    0    0  0.87032238638E-01 -0.43730566161E-01 -0.24648417963E-02  0.97433616094E-01  0.51100000000E-03 0.  1.
</event>
<event>
 8    1  0.1163913E+005  0.1043930E+01  0.7957747E-01            NaN
         13   -1    0    0    0    0  0.00000000000E+00  0.00000000000E+00  0.74505805969E-08  0.10566000000E+00  0.10566000000E+00 0. -1.
     999900   -1    0    0    0    0 -0.00000000000E+00 -0.00000000000E+00 -0.74505805969E-08  0.93827000000E+00  0.93827000000E+00 0.  1.
     999902    2    1    2    0    0 -0.59054105576E-02 -0.15413509099E-01  0.17384428331E-01  0.10199577559E+01  0.10196760051E+01 0.  0.
     999903    2    3    3    0    0 -0.11484921012E-01 -0.12381568913E+00  0.42448002386E-01  0.13293444942E+00  0.20186793951E-01 0.  0.
         14    1    1    2    0    0  0.59054105576E-02  0.15413509099E-01 -0.17384428331E-01  0.23972244055E-01  0.00000000000E+00 0.  1.
     999901    1    3    3    0    0  0.55795104544E-02  0.10840218003E+00 -0.25063574055E-01  0.88702330652E+00  0.88000000000E+00 0. -1.
        -11    1    4    4    0    0 -0.48693871310E-02 -0.64789919855E-01  0.11592564895E-01  0.66000707024E-01  0.51100000000E-03 0. -1.
         11    1    4    4    0    0 -0.66155338811E-02 -0.59025769279E-01  0.30855437492E-01  0.66933742397E-01  0.51100000000E-03 0.  1.
</event>
<event>
 8    1  0.1163913E+005  0.1043930E+01  0.7957747E-01            NaN
         13   -1    0    0    0    0  0.00000000000E+00  0.00000000000E+00  0.74505805969E-08  0.10566000000E+00  0.10566000000E+00 0. -1.
     999900   -1    0    0    0    0 -0.00000000000E+00 -0.00000000000E+00 -0.74505805969E-08  0.93827000000E+00  0.93827000000E+00 0.  1.
     999902    2    1    2    0    0  0.21474167401E-03 -0.13720813847E-01  0.19329992446E-01  0.10202244004E+01  0.10199489554E+01 0.  0.
     999903    2    3    3    0    0 -0.30083116983E-01  0.11491842761E+00 -0.44117018389E-01  0.12809686582E+00  0.18741845982E-01 0.  0.
         14    1    1    2    0    0 -0.21474167401E-03  0.13720813847E-01 -0.19329992446E-01  0.23705599646E-01  0.00000000000E+00 0. -1.
     999901    1    3    3    0    0  0.30297858657E-01 -0.12863924146E+00  0.63447010835E-01  0.89212753453E+00  0.88000000000E+00 0.  1.
        -11    1    4    4    0    0 -0.29493592082E-01  0.11274619089E+00 -0.39707756620E-01  0.12312003327E+00  0.51100000000E-03 0.  1.
         11    1    4    4    0    0 -0.58952490153E-03  0.21722367162E-02 -0.44092617683E-02  0.49768325572E-02  0.51100000000E-03 0. -1.
</event>
<event>
 8    1  0.1163913E+005  0.1043930E+01  0.7957747E-01            NaN
         13   -1    0    0    0    0  0.00000000000E+00  0.00000000000E+00  0.74505805969E-08  0.10566000000E+00  0.10566000000E+00 0. -1.
     999900   -1    0    0    0    0 -0.00000000000E+00 -0.00000000000E+00 -0.74505805969E-08  0.93827000000E+00  0.93827000000E+00 0.  1.
     999902    2    1    2    0    0 -0.15924281349E-01  0.13399268211E-02  0.11082755979E-01  0.10244824906E+01  0.10242978903E+01 0.  0.
     999903    2    3    3    0    0  0.94499959298E-01 -0.63728663012E-01 -0.62767547902E-01  0.13213653660E+00  0.22993791287E-01 0.  0.
         14    1    1    2    0    0  0.15924281349E-01 -0.13399268211E-02 -0.11082755979E-01  0.19447509364E-01  0.00000000000E+00 0.  1.
     999901    1    3    3    0    0 -0.11042424065E+00  0.65068589833E-01  0.73850303881E-01  0.89234595404E+00  0.88000000000E+00 0. -1.
        -11    1    4    4    0    0  0.50972099052E-01 -0.47851523229E-01 -0.39097000788E-01  0.80104679943E-01  0.51100000000E-03 0. -1.
         11    1    4    4    0    0  0.43527860246E-01 -0.15877139783E-01 -0.23670547114E-01  0.52031856655E-01  0.51100000000E-03 0.  1.
</event>
<event>
 8    1  0.1163913E+005  0.1043930E+01  0.7957747E-01            NaN
         13   -1    0    0    0    0  0.00000000000E+00  0.00000000000E+00  0.74505805969E-08  0.10566000000E+00  0.10566000000E+00 0.  1.
     999900   -1    0    0    0    0 -0.00000000000E+00 -0.00000000000E+00 -0.74505805969E-08  0.93827000000E+00  0.93827000000E+00 0. -1.
     999902    2    1    2    0    0 -0.22261754801E-01  0.40139117219E-03 -0.58975657489E-02  0.10208968039E+01  0.10206369365E+01 0.  0.
     999903    2    3    3    0    0 -0.11673072932E+00  0.53642124559E-01  0.29976050593E-01  0.13351533056E+00  0.20597067520E-01 0.  0.
         14    1    1    2    0    0  0.22261754801E-01 -0.40139117219E-03  0.58975657489E-02  0.23033196118E-01  0.00000000000E+00 0.  1.
     999901    1    3    3    0    0  0.94468974524E-01 -0.53240733387E-01 -0.35873616342E-01  0.88738147332E+00  0.88000000000E+00 0. -1.
        -11    1    4    4    0    0 -0.50423859503E-01  0.30952621974E-01  0.61245730353E-02  0.59484467974E-01  0.51100000000E-03 0. -1.
         11    1    4    4    0    0 -0.66306869821E-01  0.22689502585E-01  0.23851477558E-01  0.74030862590E-01  0.51100000000E-03 0.  1.
</event>
<event>
 8    1  0.1163913E+005  0.1043930E+01  0.7957747E-01            NaN
         13   -1    0    0    0    0  0.00000000000E+00  0.00000000000E+00  0.74505805969E-08  0.10566000000E+00  0.10566000000E+00 0. -1.
     999900   -1    0    0    0    0 -0.00000000000E+00 -0.00000000000E+00 -0.74505805969E-08  0.93827000000E+00  0.93827000000E+00 0. -1.
     999902    2    1    2    0    0 -0.83056664885E-02  0.86312852331E-02 -0.19801581328E-01  0.10207872732E+01  0.10205248999E+01 0.  0.
     999903    2    3    3    0    0 -0.85241531068E-01  0.92139138748E-01  0.34764766361E-01  0.13181585906E+00  0.20275409051E-01 0.  0.
         14    1    1    2    0    0  0.83056664885E-02 -0.86312852331E-02  0.19801581328E-01  0.23142726798E-01  0.00000000000E+00 0. -1.
     999901    1    3    3    0    0  0.76935864579E-01 -0.83507853515E-01 -0.54566347688E-01  0.88897141414E+00  0.88000000000E+00 0. -1.
        -11    1    4    4    0    0 -0.75610708279E-01  0.86783099001E-01  0.26722011613E-01  0.11816349904E+00  0.51100000000E-03 0.  1.
         11    1    4    4    0    0 -0.96308227890E-02  0.53560397468E-02  0.80427547482E-02  0.13652360027E-01  0.51100000000E-03 0. -1.
</event>
<event>
 8    1  0.1163913E+005  0.1043930E+01  0.7957747E-01            NaN
         13   -1    0    0    0    0  0.00000000000E+00  0.00000000000E+00  0.74505805969E-08  0.10566000000E+00  0.10566000000E+00 0.  1.
     999900   -1    0    0    0    0 -0.00000000000E+00 -0.00000000000E+00 -0.74505805969E-08  0.93827000000E+00  0.93827000000E+00 0.  1.
     999902    2    1    2    0    0  0.90218420356E-02  0.20109765822E-01 -0.92252640451E-02  0.10200364483E+01  0.10197565661E+01 0.  0.
     999903    2    3    3    0    0 -0.40013481298E-01  0.11408534792E+00 -0.50842399131E-01  0.13269893706E+00  0.20186952499E-01 0.  0.
         14    1    1    2    0    0 -0.90218420356E-02 -0.20109765822E-01  0.92252640451E-02  0.23893551679E-01  0.00000000000E+00 0.  1.
     999901    1    3    3    0    0  0.49035323333E-01 -0.93975582096E-01  0.41617135086E-01  0.88733751126E+00  0.88000000000E+00 0.  1.
        -11    1    4    4    0    0 -0.35279448224E-01  0.91919741875E-01 -0.32977473197E-01  0.10383474020E+00  0.51100000000E-03 0.  1.
         11    1    4    4    0    0 -0.47340330740E-02  0.22165606044E-01 -0.17864925934E-01  0.28864196854E-01  0.51100000000E-03 0. -1.
</event>
<event>
 8    1  0.1163913E+005  0.1043930E+01  0.7957747E-01            NaN
         13   -1    0    0    0    0  0.00000000000E+00  0.00000000000E+00  0.74505805969E-08  0.10566000000E+00  0.10566000000E+00 0. -1.
     999900   -1    0    0    0    0 -0.00000000000E+00 -0.00000000000E+00 -0.74505805969E-08  0.93827000000E+00  0.93827000000E+00 0.  1.
     999902    2    1    2    0    0 -0.11065685788E-01 -0.24425895100E-02  0.20836841923E-01  0.10202110281E+01  0.10199352687E+01 0.  0.
     999903    2    3    3    0    0  0.11923368924E+00  0.39941629400E-01 -0.19779905106E-01  0.12868196562E+00  0.18862587884E-01 0.  0.
         14    1    1    2    0    0  0.11065685788E-01  0.24425895100E-02 -0.20836841923E-01  0.23718971875E-01  0.00000000000E+00 0.  1.
     999901    1    3    3    0    0 -0.13029937503E+00 -0.42384218910E-01  0.40616747029E-01  0.89152906250E+00  0.88000000000E+00 0.  1.
        -11    1    4    4    0    0  0.31783350586E-01  0.24061491180E-02 -0.26783306272E-02  0.31990709652E-01  0.51100000000E-03 0. -1.
         11    1    4    4    0    0  0.87450338654E-01  0.37535480282E-01 -0.17101574479E-01  0.96691255972E-01  0.51100000000E-03 0.  1.
</event>
<event>
 8    1  0.1163913E+005  0.1043930E+01  0.7957747E-01            NaN
         13   -1    0    0    0    0  0.00000000000E+00  0.00000000000E+00  0.74505805969E-08  0.10566000000E+00  0.10566000000E+00 0.  1.
     999900   -1    0    0    0    0 -0.00000000000E+00 -0.00000000000E+00 -0.74505805969E-08  0.93827000000E+00  0.93827000000E+00 0. -1.
     999902    2    1    2    0    0 -0.76553257726E-02 -0.16727348719E-01 -0.16309609605E-01  0.10193452166E+01  0.10190487030E+01 0.  0.
     999903    2    3    3    0    0 -0.28495238984E-01  0.47582991840E-01 -0.11682655619E+00  0.13104696805E+00  0.21183574930E-01 0.  0.
         14    1    1    2    0    0  0.76553257726E-02  0.16727348719E-01  0.16309609605E-01  0.24584783369E-01  0.00000000000E+00 0.  1.
     999901    1    3    3    0    0  0.20839913211E-01 -0.64310340559E-01  0.10051694658E+00  0.88829824858E+00  0.88000000000E+00 0.  1.
        -11    1    4    4    0    0 -0.31001802861E-02  0.21961130034E-01 -0.57245308710E-01  0.61393719878E-01  0.51100000000E-03 0.  1.
         11    1    4    4    0    0 -0.25395058698E-01  0.25621861806E-01 -0.59581247477E-01  0.69653248169E-01  0.51100000000E-03 0. -1.
</event>
<event>
 8    1  0.1163913E+005  0.1043930E+01  0.7957747E-01            NaN
         13   -1    0    0    0    0  0.00000000000E+00  0.00000000000E+00  0.74505805969E-08  0.10566000000E+00  0.10566000000E+00 0. -1.
     999900   -1    0    0    0    0 -0.00000000000E+00 -0.00000000000E+00 -0.74505805969E-08  0.93827000000E+00  0.93827000000E+00 0. -1.
     999902    2    1    2    0    0 -0.15881561904E-01  0.15728675967E-01  0.33988676062E-03  0.10215753410E+01  0.10213307234E+01 0.  0.
     999903    2    3    3    0    0  0.81654449474E-01 -0.65394090617E-01  0.73259834940E-01  0.12949266791E+00  0.21389516619E-01 0.  0.
         14    1    1    2    0    0  0.15881561904E-01 -0.15728675967E-01 -0.33988676062E-03  0.22354659004E-01  0.00000000000E+00 0. -1.
     999901    1    3    3    0    0 -0.97536011378E-01  0.81122766583E-01 -0.72919948179E-01  0.89208267308E+00  0.88000000000E+00 0. -1.
        -11    1    4    4    0    0  0.51600356973E-01 -0.28009435959E-01  0.37629913452E-01  0.69738058833E-01  0.51100000000E-03 0. -1.
         11    1    4    4    0    0  0.30054092501E-01 -0.37384654658E-01  0.35629921488E-01  0.59754609079E-01  0.51100000000E-03 0.  1.
</event>
<event>
 8    1  0.1163913E+005  0.1043930E+01  0.7957747E-01            NaN
         13   -1    0    0    0    0  0.00000000000E+00  0.00000000000E+00  0.74505805969E-08  0.10566000000E+00  0.10566000000E+00 0.  1.
     999900   -1    0    0    0    0 -0.00000000000E+00 -0.00000000000E+00 -0.74505805969E-08  0.93827000000E+00  0.93827000000E+00 0.  1.
     999902    2    1    2    0    0 -0.16369002833E-01  0.14580385053E-02  0.30802117668E-01  0.10090181026E+01  0.10084139481E+01 0.  0.
     999903    2    3    3    0    0  0.71252927298E-01 -0.17721033992E-02 -0.90102114865E-01  0.11643428582E+00  0.18932295500E-01 0.  0.
         14    1    1    2    0    0  0.16369002833E-01 -0.14580385053E-02 -0.30802117668E-01  0.34911897440E-01  0.00000000000E+00 0. -1.
     999901    1    3    3    0    0 -0.87621930131E-01  0.32301419044E-02  0.12090423253E+00  0.89258381674E+00  0.88000000000E+00 0. -1.
        -11    1    4    4    0    0  0.29179792072E-01 -0.14802428992E-03 -0.22755550839E-01  0.37007545062E-01  0.51100000000E-03 0.  1.
         11    1    4    4    0    0  0.42073135226E-01 -0.16240791092E-02 -0.67346564026E-01  0.79426740761E-01  0.51100000000E-03 0. -1.
</event>
<event>
 8    1  0.1163913E+005  0.1043930E+01  0.7957747E-01            NaN
         13   -1    0    0    0    0  0.00000000000E+00  0.00000000000E+00  0.74505805969E-08  0.10566000000E+00  0.10566000000E+00 0. -1.
     999900   -1    0    0    0    0 -0.00000000000E+00 -0.00000000000E+00 -0.74505805969E-08  0.93827000000E+00  0.93827000000E+00 0. -1.
     999902    2    1    2    0    0  0.26189207936E-01 -0.14989441465E-01  0.59522481066E-03  0.10137486770E+01  0.10132992982E+01 0.  0.
     999903    2    3    3    0    0 -0.66002342281E-01  0.86484405230E-01 -0.50256328724E-01  0.12168247763E+00  0.21096569648E-01 0.  0.
         14    1    1    2    0    0 -0.26189207936E-01  0.14989441465E-01 -0.59522481066E-03  0.30181323038E-01  0.00000000000E+00 0.  1.
     999901    1    3    3    0    0  0.92191550217E-01 -0.10147384669E+00  0.50851553534E-01  0.89206619933E+00  0.88000000000E+00 0.  1.
        -11    1    4    4    0    0 -0.13052421676E-01  0.70915997722E-02 -0.11005553412E-01  0.18494318745E-01  0.51100000000E-03 0.  1.
         11    1    4    4    0    0 -0.52949920604E-01  0.79392805458E-01 -0.39250775311E-01  0.10318815888E+00  0.51100000000E-03 0. -1.
</event>
<event>
 8    1  0.1163913E+005  0.1043930E+01  0.7957747E-01            NaN
         13   -1    0    0    0    0  0.00000000000E+00  0.00000000000E+00  0.74505805969E-08  0.10566000000E+00  0.10566000000E+00 0.  1.
     999900   -1    0    0    0    0 -0.00000000000E+00 -0.00000000000E+00 -0.74505805969E-08  0.93827000000E+00  0.93827000000E+00 0.  1.
     999902    2    1    2    0    0  0.51331099252E-02  0.13158472547E-01 -0.20322105744E-01  0.10191816223E+01  0.10188811005E+01 0.  0.
     999903    2    3    3    0    0  0.14248292272E-01 -0.12546877401E+00 -0.65052419668E-02  0.12817572682E+00  0.21006467764E-01 0.  0.
         14    1    1    2    0    0 -0.51331099252E-02 -0.13158472547E-01  0.20322105744E-01  0.24748377707E-01  0.00000000000E+00 0.  1.
     999901    1    3    3    0    0 -0.91151823469E-02  0.13862724656E+00 -0.13816863777E-01  0.89100589547E+00  0.88000000000E+00 0. -1.
        -11    1    4    4    0    0  0.82226206137E-02 -0.66819286655E-01  0.70004954437E-02  0.67688231003E-01  0.51100000000E-03 0.  1.
         11    1    4    4    0    0  0.60256716584E-02 -0.58649487359E-01 -0.13505737410E-01  0.60487495819E-01  0.51100000000E-03 0. -1.
</event>
<event>
 8    1  0.1163913E+005  0.1043930E+01  0.7957747E-01            NaN
         13   -1    0    0    0    0  0.00000000000E+00  0.00000000000E+00  0.74505805969E-08  0.10566000000E+00  0.10566000000E+00 0. -1.
     999900   -1    0    0    0    0 -0.00000000000E+00 -0.00000000000E+00 -0.74505805969E-08  0.93827000000E+00  0.93827000000E+00 0. -1.
     999902    2    1    2    0    0  0.14856448154E-02  0.19044529308E-02 -0.23967142799E-01  0.10198414547E+01  0.10195569306E+01 0.  0.
     999903    2    3    3    0    0  0.23757189505E-01  0.56674067960E-02 -0.12944530298E+00  0.13325484087E+00  0.20105785165E-01 0.  0.
         14    1    1    2    0    0 -0.14856448154E-02 -0.19044529308E-02  0.23967142799E-01  0.24088545316E-01  0.00000000000E+00 0. -1.
     999901    1    3    3    0    0 -0.22271544689E-01 -0.37629538652E-02  0.10547816018E+00  0.88658661382E+00  0.88000000000E+00 0.  1.
        -11    1    4    4    0    0  0.12086309838E-01 -0.42825172252E-02 -0.29954438041E-01  0.32587548521E-01  0.51100000000E-03 0.  1.
         11    1    4    4    0    0  0.11670879667E-01  0.99499240212E-02 -0.99490864942E-01  0.10066729235E+00  0.51100000000E-03 0. -1.
</event>
<event>
 8    1  0.1741694E+005  0.1043930E+01  0.7957747E-01            NaN
         13   -1    0    0    0    0  0.00000000000E+00  0.00000000000E+00  0.74505805969E-08  0.10566000000E+00  0.10566000000E+00 0.  1.
     999900   -1    0    0    0    0 -0.00000000000E+00 -0.00000000000E+00 -0.74505805969E-08  0.93827000000E+00  0.93827000000E+00 0. -1.
     999902    2    1    2    0    0  0.32077019421E-02  0.16523991139E-01 -0.16037601348E-01  0.10206805636E+01  0.10204157372E+01 0.  0.
     999903    2    3    3    0    0 -0.48894558532E-01  0.11599223117E+00 -0.38358275922E-01  0.13326477109E+00  0.21053891259E-01 0.  0.
         14    1    1    2    0    0 -0.32077019421E-02 -0.16523991139E-01  0.16037601348E-01  0.23249436378E-01  0.00000000000E+00 0.  1.
     999901    1    3    3    0    0  0.52102260474E-01 -0.99468240027E-01  0.22320674574E-01  0.88741579253E+00  0.88000000000E+00 0. -1.
        -11    1    4    4    0    0 -0.26477081951E-01  0.50813030207E-01 -0.76604023042E-02  0.57809538935E-01  0.51100000000E-03 0. -1.
         11    1    4    4    0    0 -0.22417476581E-01  0.65179200959E-01 -0.30697873618E-01  0.75455232155E-01  0.51100000000E-03 0.  1.
</event>
<event>
 8    1  0.1163913E+005  0.1043930E+01  0.7957747E-01            NaN
         13   -1    0    0    0    0  0.00000000000E+00  0.00000000000E+00  0.74505805969E-08  0.10566000000E+00  0.10566000000E+00 0.  1.
     999900   -1    0    0    0    0 -0.00000000000E+00 -0.00000000000E+00 -0.74505805969E-08  0.93827000000E+00  0.93827000000E+00 0.  1.
     999902    2    1    2    0    0  0.23420359908E-01 -0.49566480204E-03  0.20202181694E-02  0.10204174454E+01  0.10201465202E+01 0.  0.
     999903    2    3    3    0    0  0.88779080015E-01  0.81823897095E-01 -0.50054557833E-01  0.13263365706E+00  0.22568851125E-01 0.  0.
         14    1    1    2    0    0 -0.23420359908E-01  0.49566480204E-03 -0.20202181694E-02  0.23512554589E-01  0.00000000000E+00 0. -1.
     999901    1    3    3    0    0 -0.65358720107E-01 -0.82319561897E-01  0.52074776002E-01  0.88778378835E+00  0.88000000000E+00 0. -1.
        -11    1    4    4    0    0  0.48338234030E-01  0.59026557735E-01 -0.28462660246E-01  0.81431588075E-01  0.51100000000E-03 0.  1.
         11    1    4    4    0    0  0.40440845986E-01  0.22797339360E-01 -0.21591897587E-01  0.51202068985E-01  0.51100000000E-03 0. -1.
</event>
<event>
 8    1  0.1163913E+005  0.1043930E+01  0.7957747E-01            NaN
         13   -1    0    0    0    0  0.00000000000E+00  0.00000000000E+00  0.74505805969E-08  0.10566000000E+00  0.10566000000E+00 0.  1.
     999900   -1    0    0    0    0 -0.00000000000E+00 -0.00000000000E+00 -0.74505805969E-08  0.93827000000E+00  0.93827000000E+00 0.  1.
     999902    2    1    2    0    0  0.21904880473E-01 -0.57612834531E-02  0.53988183098E-02  0.10206455972E+01  0.10203799643E+01 0.  0.
     999903    2    3    3    0    0  0.44776968283E-01 -0.11723480881E+00  0.37979045703E-01  0.13272051561E+00  0.20575472445E-01 0.  0.
         14    1    1    2    0    0 -0.21904880473E-01  0.57612834531E-02 -0.53988183098E-02  0.23284402821E-01  0.00000000000E+00 0. -1.
     999901    1    3    3    0    0 -0.22872087810E-01  0.11147352536E+00 -0.32580227393E-01  0.88792508157E+00  0.88000000000E+00 0.  1.
        -11    1    4    4    0    0  0.19767079002E-01 -0.76974839971E-01  0.28160577018E-01  0.84315731746E-01  0.51100000000E-03 0. -1.
         11    1    4    4    0    0  0.25009889281E-01 -0.40259968841E-01  0.98184686850E-02  0.48404783867E-01  0.51100000000E-03 0.  1.
</event>
<event>
 8    1  0.1163913E+005  0.1043930E+01  0.7957747E-01            NaN
         13   -1    0    0    0    0  0.00000000000E+00  0.00000000000E+00  0.74505805969E-08  0.10566000000E+00  0.10566000000E+00 0. -1.
     999900   -1    0    0    0    0 -0.00000000000E+00 -0.00000000000E+00 -0.74505805969E-08  0.93827000000E+00  0.93827000000E+00 0.  1.
     999902    2    1    2    0    0  0.68552813872E-02 -0.22714661359E-01 -0.40269944940E-02  0.10198641028E+01  0.10195801198E+01 0.  0.
     999903    2    3    3    0    0  0.12881684567E+00 -0.15560856145E-01  0.42193038449E-02  0.13138573979E+00  0.20211138567E-01 0.  0.
         14    1    1    2    0    0 -0.68552813872E-02  0.22714661359E-01  0.40269944940E-02  0.24065897204E-01  0.00000000000E+00 0.  1.
     999901    1    3    3    0    0 -0.12196156429E+00 -0.71538052141E-02 -0.82462983390E-02  0.88847836301E+00  0.88000000000E+00 0.  1.
        -11    1    4    4    0    0  0.10138225712E+00 -0.46108384630E-02 -0.36274129703E-03  0.10148898754E+00  0.51100000000E-03 0. -1.
         11    1    4    4    0    0  0.27434588555E-01 -0.10950017682E-01  0.45820451420E-02  0.29896752250E-01  0.51100000000E-03 0.  1.
</event>
<event>
 8    1  0.1163913E+005  0.1043930E+01  0.7957747E-01            NaN
         13   -1    0    0    0    0  0.00000000000E+00  0.00000000000E+00  0.74505805969E-08  0.10566000000E+00  0.10566000000E+00 0. -1.
     999900   -1    0    0    0    0 -0.00000000000E+00 -0.00000000000E+00 -0.74505805969E-08  0.93827000000E+00  0.93827000000E+00 0. -1.
     999902    2    1    2    0    0 -0.31177302361E-02  0.19307733703E-01 -0.13776202076E-01  0.10200073629E+01  0.10197267908E+01 0.  0.
     999903    2    3    3    0    0  0.94337522536E-01 -0.69495865215E-01 -0.51170780507E-01  0.12939972764E+00  0.19914750695E-01 0.  0.
         14    1    1    2    0    0  0.31177302361E-02 -0.19307733703E-01  0.13776202076E-01  0.23922637108E-01  0.00000000000E+00 0. -1.
     999901    1    3    3    0    0 -0.97455252772E-01  0.88803598918E-01  0.37394578431E-01  0.89060763525E+00  0.88000000000E+00 0.  1.
        -11    1    4    4    0    0  0.72719276012E-01 -0.50054212302E-01 -0.47028199577E-01  0.10002714606E+00  0.51100000000E-03 0.  1.
         11    1    4    4    0    0  0.21618246524E-01 -0.19441652913E-01 -0.41425809305E-02  0.29372581578E-01  0.51100000000E-03 0. -1.
</event>
<event>
 8    1  0.1163913E+005  0.1043930E+01  0.7957747E-01            NaN
         13   -1    0    0    0    0  0.00000000000E+00  0.00000000000E+00  0.74505805969E-08  0.10566000000E+00  0.10566000000E+00 0.  1.
     999900   -1    0    0    0    0 -0.00000000000E+00 -0.00000000000E+00 -0.74505805969E-08  0.93827000000E+00  0.93827000000E+00 0. -1.
     999902    2    1    2    0    0 -0.38313971969E-02 -0.13237260461E-01  0.19173238530E-01  0.10203181863E+01  0.10200449420E+01 0.  0.
     999903    2    3    3    0    0 -0.77260994450E-01  0.46443779767E-01  0.94300852292E-01  0.13206265403E+00  0.20533092895E-01 0.  0.
         14    1    1    2    0    0  0.38313971969E-02  0.13237260461E-01 -0.19173238530E-01  0.23611813669E-01  0.00000000000E+00 0. -1.
     999901    1    3    3    0    0  0.73429597253E-01 -0.59681040228E-01 -0.75127613762E-01  0.88825553230E+00  0.88000000000E+00 0. -1.
        -11    1    4    4    0    0 -0.56349756341E-01  0.28378782980E-01  0.76610241630E-01  0.99247370780E-01  0.51100000000E-03 0.  1.
         11    1    4    4    0    0 -0.20911238108E-01  0.18064996786E-01  0.17690610662E-01  0.32815283249E-01  0.51100000000E-03 0. -1.
</event>
<event>
 8    1  0.1163913E+005  0.1043930E+01  0.7957747E-01            NaN
         13   -1    0    0    0    0  0.00000000000E+00  0.00000000000E+00  0.74505805969E-08  0.10566000000E+00  0.10566000000E+00 0.  1.
     999900   -1    0    0    0    0 -0.00000000000E+00 -0.00000000000E+00 -0.74505805969E-08  0.93827000000E+00  0.93827000000E+00 0. -1.
     999902    2    1    2    0    0  0.10309837467E-01  0.68698700903E-02  0.19742608762E-01  0.10206220944E+01  0.10203559188E+01 0.  0.
     999903    2    3    3    0    0 -0.15451701631E-01  0.10627874143E+00 -0.70485018672E-01  0.13006788191E+00  0.20386026664E-01 0.  0.
         14    1    1    2    0    0 -0.10309837467E-01 -0.68698700903E-02 -0.19742608762E-01  0.23307905620E-01  0.00000000000E+00 0. -1.
     999901    1    3    3    0    0  0.25761539098E-01 -0.99408871343E-01  0.90227627434E-01  0.89055421247E+00  0.88000000000E+00 0.  1.
        -11    1    4    4    0    0 -0.42199628684E-02  0.82924224222E-01 -0.49093661868E-01  0.96460788957E-01  0.51100000000E-03 0. -1.
         11    1    4    4    0    0 -0.11231738763E-01  0.23354517211E-01 -0.21391356805E-01  0.33607092952E-01  0.51100000000E-03 0.  1.
</event>
<event>
 8    1  0.1163913E+005  0.1043930E+01  0.7957747E-01            NaN
         13   -1    0    0    0    0  0.00000000000E+00  0.00000000000E+00  0.74505805969E-08  0.10566000000E+00  0.10566000000E+00 0. -1.
     999900   -1    0    0    0    0 -0.00000000000E+00 -0.00000000000E+00 -0.74505805969E-08  0.93827000000E+00  0.93827000000E+00 0.  1.
     999902    2    1    2    0    0 -0.21526782275E-01 -0.11286494897E-01 -0.67252585776E-02  0.10187106339E+01  0.10183984187E+01 0.  0.
     999903    2    3    3    0    0  0.92860141257E-01 -0.20000144696E-01  0.80689417138E-01  0.12696985237E+00  0.24239425524E-01 0.  0.
         14    1    1    2    0    0  0.21526782275E-01  0.11286494897E-01  0.67252585776E-02  0.25219366073E-01  0.00000000000E+00 0. -1.
     999901    1    3    3    0    0 -0.11438692353E+00  0.87136497985E-02 -0.87414675716E-01  0.89174078156E+00  0.88000000000E+00 0.  1.
        -11    1    4    4    0    0  0.52003334642E-01 -0.11633788005E-02  0.52324133026E-01  0.73781950924E-01  0.51100000000E-03 0.  1.
         11    1    4    4    0    0  0.40856806615E-01 -0.18836765895E-01  0.28365284112E-01  0.53187901443E-01  0.51100000000E-03 0. -1.
</event>
<event>
 8    1  0.1163913E+005  0.1043930E+01  0.7957747E-01            NaN
         13   -1    0    0    0    0  0.00000000000E+00  0.00000000000E+00  0.74505805969E-08  0.10566000000E+00  0.10566000000E+00 0. -1.
     999900   -1    0    0    0    0 -0.00000000000E+00 -0.00000000000E+00 -0.74505805969E-08  0.93827000000E+00  0.93827000000E+00 0. -1.
     999902    2    1    2    0    0  0.14340169079E-01 -0.19657209395E-01  0.16031976284E-02  0.10195452389E+01  0.10192535885E+01 0.  0.
     999903    2    3    3    0    0 -0.67716002430E-02 -0.74701551320E-01  0.10595202142E+00  0.13142122539E+00  0.20482463249E-01 0.  0.
         14    1    1    2    0    0 -0.14340169079E-01  0.19657209395E-01 -0.16031976284E-02  0.24384761083E-01  0.00000000000E+00 0.  1.
     999901    1    3    3    0    0  0.21111769322E-01  0.55044341925E-01 -0.10434882379E+00  0.88812401353E+00  0.88000000000E+00 0. -1.
        -11    1    4    4    0    0  0.49669887288E-02 -0.55334985746E-02  0.79844981209E-02  0.10922633142E-01  0.51100000000E-03 0.  1.
         11    1    4    4    0    0 -0.11738588972E-01 -0.69168052746E-01  0.97967523295E-01  0.12049859225E+00  0.51100000000E-03 0. -1.
</event>
<event>
 8    1  0.1163913E+005  0.1043930E+01  0.7957747E-01            NaN
         13   -1    0    0    0    0  0.00000000000E+00  0.00000000000E+00  0.74505805969E-08  0.10566000000E+00  0.10566000000E+00 0.  1.
     999900   -1    0    0    0    0 -0.00000000000E+00 -0.00000000000E+00 -0.74505805969E-08  0.93827000000E+00  0.93827000000E+00 0.  1.
     999902    2    1    2    0    0 -0.11536928294E-02 -0.27021051483E-01  0.77017129350E-02  0.10158091072E+01  0.10154197938E+01 0.  0.
     999903    2    3    3    0    0  0.49649322406E-01  0.10256498573E+00  0.44491493285E-01  0.12411018079E+00  0.20957396958E-01 0.  0.
         14    1    1    2    0    0  0.11536928294E-02  0.27021051483E-01 -0.77017129350E-02  0.28120892812E-01  0.00000000000E+00 0. -1.
     999901    1    3    3    0    0 -0.50803015236E-01 -0.12958603722E+00 -0.36789780350E-01  0.89169892640E+00  0.88000000000E+00 0.  1.
        -11    1    4    4    0    0  0.37153929338E-01  0.71426730725E-01  0.41061072593E-01  0.90379561467E-01  0.51100000000E-03 0.  1.
         11    1    4    4    0    0  0.12495393068E-01  0.31138255009E-01  0.34304206927E-02  0.33730619325E-01  0.51100000000E-03 0. -1.
</event>
<event>
 8    1  0.1163913E+005  0.1043930E+01  0.7957747E-01            NaN
         13   -1    0    0    0    0  0.00000000000E+00  0.00000000000E+00  0.74505805969E-08  0.10566000000E+00  0.10566000000E+00 0.  1.
     999900   -1    0    0    0    0 -0.00000000000E+00 -0.00000000000E+00 -0.74505805969E-08  0.93827000000E+00  0.93827000000E+00 0.  1.
     999902    2    1    2    0    0 -0.32861991259E-02  0.42121200691E-03 -0.14889416350E-01  0.10286764351E+01  0.10285633363E+01 0.  0.
     999903    2    3    3    0    0  0.11569443385E+00  0.15346569367E-01  0.68376446387E-01  0.13664932716E+00  0.19415998005E-01 0.  0.
         14    1    1    2    0    0  0.32861991259E-02 -0.42121200691E-03  0.14889416350E-01  0.15253564943E-01  0.00000000000E+00 0.  1.
     999901    1    3    3    0    0 -0.11898063298E+00 -0.14925357360E-01 -0.83265862737E-01  0.89202710789E+00  0.88000000000E+00 0. -1.
        -11    1    4    4    0    0  0.96797773231E-01  0.19461053373E-01  0.53929616682E-01  0.11250424960E+00  0.51100000000E-03 0. -1.
         11    1    4    4    0    0  0.18896660621E-01 -0.41144840057E-02  0.14446829705E-01  0.24145077568E-01  0.51100000000E-03 0.  1.
</event>
<event>
 8    1  0.1163913E+005  0.1043930E+01  0.7957747E-01            NaN
         13   -1    0    0    0    0  0.00000000000E+00  0.00000000000E+00  0.74505805969E-08  0.10566000000E+00  0.10566000000E+00 0.  1.
     999900   -1    0    0    0    0 -0.00000000000E+00 -0.00000000000E+00 -0.74505805969E-08  0.93827000000E+00  0.93827000000E+00 0.  1.
     999902    2    1    2    0    0  0.13286976434E-01 -0.80061801821E-03 -0.16637461463E-01  0.10226229623E+01  0.10224009650E+01 0.  0.
     999903    2    3    3    0    0  0.78781084534E-01 -0.38804490516E-01 -0.99452485597E-01  0.13549720979E+00  0.27503621689E-01 0.  0.
         14    1    1    2    0    0 -0.13286976434E-01  0.80061801821E-03  0.16637461463E-01  0.21307037709E-01  0.00000000000E+00 0. -1.
     999901    1    3    3    0    0 -0.65494108100E-01  0.38003872498E-01  0.82815024134E-01  0.88712575250E+00  0.88000000000E+00 0.  1.
        -11    1    4    4    0    0  0.64220510891E-01 -0.27397441948E-01 -0.60557027297E-01  0.92424609929E-01  0.51100000000E-03 0.  1.
         11    1    4    4    0    0  0.14560573644E-01 -0.11407048568E-01 -0.38895458300E-01  0.43072599866E-01  0.51100000000E-03 0. -1.
</event>
<event>
 8    1  0.1163913E+005  0.1043930E+01  0.7957747E-01            NaN
         13   -1    0    0    0    0  0.00000000000E+00  0.00000000000E+00  0.74505805969E-08  0.10566000000E+00  0.10566000000E+00 0.  1.
     999900   -1    0    0    0    0 -0.00000000000E+00 -0.00000000000E+00 -0.74505805969E-08  0.93827000000E+00  0.93827000000E+00 0. -1.
     999902    2    1    2    0    0 -0.83759157959E-02  0.19422311207E-01 -0.15804566275E-01  0.10175260902E+01  0.10171834533E+01 0.  0.
     999903    2    3    3    0    0  0.24514212441E-01 -0.54229411456E-01  0.10759821662E+00  0.12526234913E+00  0.23906154239E-01 0.  0.
         14    1    1    2    0    0  0.83759157959E-02 -0.19422311207E-01  0.15804566275E-01  0.26403909809E-01  0.00000000000E+00 0.  1.
     999901    1    3    3    0    0 -0.32890128236E-01  0.73651722663E-01 -0.12340278290E+00  0.89226374106E+00  0.88000000000E+00 0. -1.
        -11    1    4    4    0    0  0.10068879400E-01 -0.42518116595E-01  0.60559826774E-01  0.74678821034E-01  0.51100000000E-03 0. -1.
         11    1    4    4    0    0  0.14445333041E-01 -0.11711294861E-01  0.47038389850E-01  0.50583528096E-01  0.51100000000E-03 0.  1.
</event>
<event>
 8    1  0.1163913E+005  0.1043930E+01  0.7957747E-01            NaN
         13   -1    0    0    0    0  0.00000000000E+00  0.00000000000E+00  0.74505805969E-08  0.10566000000E+00  0.10566000000E+00 0. -1.
     999900   -1    0    0    0    0 -0.00000000000E+00 -0.00000000000E+00 -0.74505805969E-08  0.93827000000E+00  0.93827000000E+00 0.  1.
     999902    2    1    2    0    0  0.26169244194E-02 -0.23080674293E-01 -0.41896475051E-02  0.10203266323E+01  0.10200535857E+01 0.  0.
     999903    2    3    3    0    0 -0.98181880784E-01 -0.51608928131E-01 -0.68438887359E-01  0.13178725491E+00  0.19515021826E-01 0.  0.
         14    1    1    2    0    0 -0.26169244194E-02  0.23080674293E-01  0.41896475051E-02  0.23603367672E-01  0.00000000000E+00 0. -1.
     999901    1    3    3    0    0  0.10079880520E+00  0.28528253838E-01  0.64249239854E-01  0.88853937742E+00  0.88000000000E+00 0. -1.
        -11    1    4    4    0    0 -0.47770872904E-01 -0.21943080934E-01 -0.21541449765E-01  0.56814173213E-01  0.51100000000E-03 0.  1.
         11    1    4    4    0    0 -0.50411007880E-01 -0.29665847198E-01 -0.46897437594E-01  0.74973081699E-01  0.51100000000E-03 0. -1.
</event>
<event>
 8    1  0.1163913E+005  0.1043930E+01  0.7957747E-01            NaN
         13   -1    0    0    0    0  0.00000000000E+00  0.00000000000E+00  0.74505805969E-08  0.10566000000E+00  0.10566000000E+00 0.  1.
     999900   -1    0    0    0    0 -0.00000000000E+00 -0.00000000000E+00 -0.74505805969E-08  0.93827000000E+00  0.93827000000E+00 0.  1.
     999902    2    1    2    0    0  0.89477150068E-03 -0.22500278928E-01  0.16112657679E-02  0.10213543639E+01  0.10211048317E+01 0.  0.
     999903    2    3    3    0    0 -0.98182959499E-02  0.11179743152E+00 -0.59466232696E-01  0.12900851970E+00  0.22625222514E-01 0.  0.
         14    1    1    2    0    0 -0.89477150068E-03  0.22500278928E-01 -0.16112657679E-02  0.22575636099E-01  0.00000000000E+00 0. -1.
     999901    1    3    3    0    0  0.10713067451E-01 -0.13429771045E+00  0.61077498464E-01  0.89234584420E+00  0.88000000000E+00 0. -1.
        -11    1    4    4    0    0  0.60599382211E-02  0.13277130167E-01 -0.93254859673E-02  0.17327170751E-01  0.51100000000E-03 0.  1.
         11    1    4    4    0    0 -0.15878234171E-01  0.98520301355E-01 -0.50140746728E-01  0.11168134895E+00  0.51100000000E-03 0. -1.
</event>
<event>
 8    1  0.1163913E+005  0.1043930E+01  0.7957747E-01            NaN
         13   -1    0    0    0    0  0.00000000000E+00  0.00000000000E+00  0.74505805969E-08  0.10566000000E+00  0.10566000000E+00 0. -1.
     999900   -1    0    0    0    0 -0.00000000000E+00 -0.00000000000E+00 -0.74505805969E-08  0.93827000000E+00  0.93827000000E+00 0.  1.
     999902    2    1    2    0    0 -0.17410655856E-01 -0.91138971762E-02 -0.13383342455E-01  0.10201537952E+01  0.10198766876E+01 0.  0.
     999903    2    3    3    0    0 -0.67492528034E-01 -0.26174555158E-01 -0.11004602148E+00  0.13328123757E+00  0.20332554382E-01 0.  0.
         14    1    1    2    0    0  0.17410655856E-01  0.91138971762E-02  0.13383342455E-01  0.23776204792E-01  0.00000000000E+00 0. -1.
     999901    1    3    3    0    0  0.50081872178E-01  0.17060657982E-01  0.96662679022E-01  0.88687255764E+00  0.88000000000E+00 0. -1.
        -11    1    4    4    0    0 -0.33443734286E-01 -0.21694832048E-01 -0.48326135771E-01  0.62648428712E-01  0.51100000000E-03 0. -1.
         11    1    4    4    0    0 -0.34048793748E-01 -0.44797231101E-02 -0.61719885706E-01  0.70632808860E-01  0.51100000000E-03 0.  1.
</event>
<event>
 8    1  0.1163913E+005  0.1043930E+01  0.7957747E-01            NaN
         13   -1    0    0    0    0  0.00000000000E+00  0.00000000000E+00  0.74505805969E-08  0.10566000000E+00  0.10566000000E+00 0. -1.
     999900   -1    0    0    0    0 -0.00000000000E+00 -0.00000000000E+00 -0.74505805969E-08  0.93827000000E+00  0.93827000000E+00 0. -1.
     999902    2    1    2    0    0  0.13423692799E-02 -0.24316043258E-01 -0.32143929086E-02  0.10193657122E+01  0.10190696987E+01 0.  0.
     999903    2    3    3    0    0 -0.13221207443E-01 -0.12641215366E+00  0.32508779899E-01  0.13262343924E+00  0.19424802346E-01 0.  0.
         14    1    1    2    0    0 -0.13423692799E-02  0.24316043258E-01  0.32143929086E-02  0.24564287834E-01  0.00000000000E+00 0. -1.
     999901    1    3    3    0    0  0.14563576723E-01  0.10209611040E+00 -0.35723172808E-01  0.88674227293E+00  0.88000000000E+00 0.  1.
        -11    1    4    4    0    0 -0.13823453381E-01 -0.45284719865E-01  0.95175229520E-02  0.48297392070E-01  0.51100000000E-03 0. -1.
         11    1    4    4    0    0  0.60224593813E-03 -0.81127433791E-01  0.22991256947E-01  0.84326047166E-01  0.51100000000E-03 0.  1.
</event>
<event>
 8    1  0.1163913E+005  0.1043930E+01  0.7957747E-01            NaN
         13   -1    0    0    0    0  0.00000000000E+00  0.00000000000E+00  0.74505805969E-08  0.10566000000E+00  0.10566000000E+00 0. -1.
     999900   -1    0    0    0    0 -0.00000000000E+00 -0.00000000000E+00 -0.74505805969E-08  0.93827000000E+00  0.93827000000E+00 0. -1.
     999902    2    1    2    0    0 -0.16528333788E-01 -0.18522582980E-01 -0.50111813180E-02  0.10186044430E+01  0.10182895598E+01 0.  0.
     999903    2    3    3    0    0  0.28071040390E-01 -0.63607157044E-01 -0.10843027827E+00  0.13028173555E+00  0.19553813836E-01 0.  0.
         14    1    1    2    0    0  0.16528333788E-01  0.18522582980E-01  0.50111813180E-02  0.25325556978E-01  0.00000000000E+00 0. -1.
     999901    1    3    3    0    0 -0.44599374178E-01  0.45084574064E-01  0.10341909696E+00  0.88832270747E+00  0.88000000000E+00 0.  1.
        -11    1    4    4    0    0  0.13109208810E-01 -0.15162026022E-01 -0.19839963308E-01  0.28206801552E-01  0.51100000000E-03 0.  1.
         11    1    4    4    0    0  0.14961831581E-01 -0.48445131022E-01 -0.88590314966E-01  0.10207493400E+00  0.51100000000E-03 0. -1.
</event>
<event>
 8    1  0.1163913E+005  0.1043930E+01  0.7957747E-01            NaN
         13   -1    0    0    0    0  0.00000000000E+00  0.00000000000E+00  0.74505805969E-08  0.10566000000E+00  0.10566000000E+00 0.  1.
     999900   -1    0    0    0    0 -0.00000000000E+00 -0.00000000000E+00 -0.74505805969E-08  0.93827000000E+00  0.93827000000E+00 0.  1.
     999902    2    1    2    0    0 -0.10862622652E-01 -0.17584473623E-01 -0.83176411149E-02  0.10216501114E+01  0.10214071454E+01 0.  0.
     999903    2    3    3    0    0  0.43709472798E-02  0.12321745168E+00 -0.35852047349E-01  0.12990161132E+00  0.19682828687E-01 0.  0.
         14    1    1    2    0    0  0.10862622652E-01  0.17584473623E-01  0.83176411149E-02  0.22279888626E-01  0.00000000000E+00 0. -1.
     999901    1    3    3    0    0 -0.15233569932E-01 -0.14080192530E+00  0.27534406234E-01  0.89174850005E+00  0.88000000000E+00 0.  1.
        -11    1    4    4    0    0 -0.29442639759E-02  0.88527107521E-01 -0.18770057358E-01  0.90544429042E-01  0.51100000000E-03 0. -1.
         11    1    4    4    0    0  0.73152112556E-02  0.34690344161E-01 -0.17081989991E-01  0.39357182277E-01  0.51100000000E-03 0.  1.
</event>
<event>
 8    1  0.1163913E+005  0.1043930E+01  0.7957747E-01            NaN
         13   -1    0    0    0    0  0.00000000000E+00  0.00000000000E+00  0.74505805969E-08  0.10566000000E+00  0.10566000000E+00 0.  1.
     999900   -1    0    0    0    0 -0.00000000000E+00 -0.00000000000E+00 -0.74505805969E-08  0.93827000000E+00  0.93827000000E+00 0.  1.
     999902    2    1    2    0    0 -0.21959766401E-01  0.51325713257E-02 -0.69581672581E-02  0.10203293492E+01  0.10200563661E+01 0.  0.
     999903    2    3    3    0    0 -0.90317163325E-01  0.64244128701E-01 -0.71557926161E-01  0.13334567468E+00  0.19391598596E-01 0.  0.
         14    1    1    2    0    0  0.21959766401E-01 -0.51325713257E-02  0.69581672581E-02  0.23600650847E-01  0.00000000000E+00 0. -1.
     999901    1    3    3    0    0  0.68357396923E-01 -0.59111557375E-01  0.64599758903E-01  0.88698367447E+00  0.88000000000E+00 0. -1.
        -11    1    4    4    0    0 -0.36645103027E-01  0.23038383721E-01 -0.17322527323E-01  0.46625762987E-01  0.51100000000E-03 0. -1.
         11    1    4    4    0    0 -0.53672060298E-01  0.41205744980E-01 -0.54235398838E-01  0.86719911694E-01  0.51100000000E-03 0.  1.
</event>
<event>
 8    1  0.1163913E+005  0.1043930E+01  0.7957747E-01            NaN
         13   -1    0    0    0    0  0.00000000000E+00  0.00000000000E+00  0.74505805969E-08  0.10566000000E+00  0.10566000000E+00 0. -1.
     999900   -1    0    0    0    0 -0.00000000000E+00 -0.00000000000E+00 -0.74505805969E-08  0.93827000000E+00  0.93827000000E+00 0. -1.
     999902    2    1    2    0    0 -0.19515146758E-01  0.11953848671E-01  0.80625020205E-02  0.10196660475E+01  0.10193773144E+01 0.  0.
     999903    2    3    3    0    0  0.11918368069E+00 -0.35733278162E-01 -0.16910945660E-01  0.12717789640E+00  0.20164829250E-01 0.  0.
         14    1    1    2    0    0  0.19515146758E-01 -0.11953848671E-01 -0.80625020205E-02  0.24263952478E-01  0.00000000000E+00 0.  1.
     999901    1    3    3    0    0 -0.13869882745E+00  0.47687126833E-01  0.24973447681E-01  0.89248815112E+00  0.88000000000E+00 0.  1.
        -11    1    4    4    0    0  0.68850669215E-01 -0.29625779149E-01 -0.14969822660E-01  0.76435974208E-01  0.51100000000E-03 0.  1.
         11    1    4    4    0    0  0.50333011475E-01 -0.61074990123E-02 -0.19411230003E-02  0.50741922193E-01  0.51100000000E-03 0. -1.
</event>
<event>
 8    1  0.1163913E+005  0.1043930E+01  0.7957747E-01            NaN
         13   -1    0    0    0    0  0.00000000000E+00  0.00000000000E+00  0.74505805969E-08  0.10566000000E+00  0.10566000000E+00 0.  1.
     999900   -1    0    0    0    0 -0.00000000000E+00 -0.00000000000E+00 -0.74505805969E-08  0.93827000000E+00  0.93827000000E+00 0. -1.
     999902    2    1    2    0    0 -0.21931907945E-02  0.10758837541E-01 -0.19785984914E-01  0.10213015252E+01  0.10210508105E+01 0.  0.
     999903    2    3    3    0    0 -0.12341405218E-01 -0.12611902441E+00  0.20539164444E-01  0.12974970228E+00  0.18836384057E-01 0.  0.
         14    1    1    2    0    0  0.21931907945E-02 -0.10758837541E-01  0.19785984914E-01  0.22628474763E-01  0.00000000000E+00 0.  1.
     999901    1    3    3    0    0  0.10148214424E-01  0.13687786195E+00 -0.40325149358E-01  0.89155182296E+00  0.88000000000E+00 0. -1.
        -11    1    4    4    0    0  0.20896102615E-02 -0.30899845896E-01  0.11413080681E-01  0.33010399559E-01  0.51100000000E-03 0.  1.
         11    1    4    4    0    0 -0.14431015480E-01 -0.95219178515E-01  0.91260837627E-02  0.96739302720E-01  0.51100000000E-03 0. -1.
</event>
<event>
 8    1  0.1163913E+005  0.1043930E+01  0.7957747E-01            NaN
         13   -1    0    0    0    0  0.00000000000E+00  0.00000000000E+00  0.74505805969E-08  0.10566000000E+00  0.10566000000E+00 0. -1.
     999900   -1    0    0    0    0 -0.00000000000E+00 -0.00000000000E+00 -0.74505805969E-08  0.93827000000E+00  0.93827000000E+00 0. -1.
     999902    2    1    2    0    0  0.11925941102E-01  0.93564212014E-02 -0.17800313731E-01  0.10205500544E+01  0.10202822117E+01 0.  0.
     999903    2    3    3    0    0 -0.56922609686E-01 -0.11415613336E+00  0.37224920683E-02  0.12900156704E+00  0.18861099526E-01 0.  0.
         14    1    1    2    0    0 -0.11925941102E-01 -0.93564212014E-02  0.17800313731E-01  0.23379945632E-01  0.00000000000E+00 0. -1.
     999901    1    3    3    0    0  0.68848550788E-01  0.12351255456E+00 -0.21522805799E-01  0.89154848732E+00  0.88000000000E+00 0.  1.
        -11    1    4    4    0    0 -0.54469470814E-01 -0.10467943251E+00 -0.12486371537E-02  0.11801070739E+00  0.51100000000E-03 0. -1.
         11    1    4    4    0    0 -0.24531388719E-02 -0.94767008466E-02  0.49711292221E-02  0.10990859657E-01  0.51100000000E-03 0.  1.
</event>
<event>
 8    1  0.1163913E+005  0.1043930E+01  0.7957747E-01            NaN
         13   -1    0    0    0    0  0.00000000000E+00  0.00000000000E+00  0.74505805969E-08  0.10566000000E+00  0.10566000000E+00 0.  1.
     999900   -1    0    0    0    0 -0.00000000000E+00 -0.00000000000E+00 -0.74505805969E-08  0.93827000000E+00  0.93827000000E+00 0. -1.
     999902    2    1    2    0    0  0.74090063639E-03 -0.89371511547E-02  0.22409936997E-01  0.10197923348E+01  0.10195066352E+01 0.  0.
     999903    2    3    3    0    0 -0.12094661510E+00 -0.26734246940E-01 -0.32739576385E-01  0.12953054358E+00  0.19065104064E-01 0.  0.
         14    1    1    2    0    0 -0.74090063639E-03  0.89371511547E-02 -0.22409936997E-01  0.24137665188E-01  0.00000000000E+00 0. -1.
     999901    1    3    3    0    0  0.12168751574E+00  0.17797095785E-01  0.55149513383E-01  0.89026179123E+00  0.88000000000E+00 0.  1.
        -11    1    4    4    0    0 -0.81819907158E-02  0.24380799576E-03 -0.69472254099E-02  0.10748463905E-01  0.51100000000E-03 0. -1.
         11    1    4    4    0    0 -0.11276462439E+00 -0.26978054936E-01 -0.25792350975E-01  0.11878207967E+00  0.51100000000E-03 0.  1.
</event>
<event>
 8    1  0.1163913E+005  0.1043930E+01  0.7957747E-01            NaN
         13   -1    0    0    0    0  0.00000000000E+00  0.00000000000E+00  0.74505805969E-08  0.10566000000E+00  0.10566000000E+00 0. -1.
     999900   -1    0    0    0    0 -0.00000000000E+00 -0.00000000000E+00 -0.74505805969E-08  0.93827000000E+00  0.93827000000E+00 0.  1.
     999902    2    1    2    0    0 -0.94721308142E-03 -0.23779435765E-01  0.11271518459E-02  0.10201050289E+01  0.10198267699E+01 0.  0.
     999903    2    3    3    0    0  0.33515402989E-01 -0.70075519036E-01 -0.10483654712E+00  0.13187121690E+00  0.19116893819E-01 0.  0.
         14    1    1    2    0    0  0.94721308142E-03  0.23779435765E-01 -0.11271518459E-02  0.23824971127E-01  0.00000000000E+00 0. -1.
     999901    1    3    3    0    0 -0.34462616070E-01  0.46296083271E-01  0.10596369897E+00  0.88823381197E+00  0.88000000000E+00 0. -1.
        -11    1    4    4    0    0  0.28817307268E-01 -0.46406358847E-01 -0.61437738348E-01  0.82212189813E-01  0.51100000000E-03 0.  1.
         11    1    4    4    0    0  0.46980957203E-02 -0.23669160189E-01 -0.43398808772E-01  0.49659027087E-01  0.51100000000E-03 0. -1.
</event>
<event>
 8    1  0.1163913E+005  0.1043930E+01  0.7957747E-01            NaN
         13   -1    0    0    0    0  0.00000000000E+00  0.00000000000E+00  0.74505805969E-08  0.10566000000E+00  0.10566000000E+00 0. -1.
     999900   -1    0    0    0    0 -0.00000000000E+00 -0.00000000000E+00 -0.74505805969E-08  0.93827000000E+00  0.93827000000E+00 0.  1.
     999902    2    1    2    0    0 -0.16170544948E-02 -0.22713460756E-01 -0.35892197121E-02  0.10208779141E+01  0.10206176154E+01 0.  0.
     999903    2    3    3    0    0 -0.76986639379E-01 -0.36351225193E-01  0.98438396555E-01  0.13167816299E+00  0.20016654987E-01 0.  0.
         14    1    1    2    0    0  0.16170544948E-02  0.22713460756E-01  0.35892197121E-02  0.23052085869E-01  0.00000000000E+00 0.  1.
     999901    1    3    3    0    0  0.75369584885E-01  0.13637764437E-01 -0.10202761627E+00  0.88919975114E+00  0.88000000000E+00 0.  1.
        -11    1    4    4    0    0 -0.54421067648E-01 -0.22799994574E-01  0.53781545091E-01  0.79838637700E-01  0.51100000000E-03 0. -1.
         11    1    4    4    0    0 -0.22565571732E-01 -0.13551230619E-01  0.44656851464E-01  0.51839525292E-01  0.51100000000E-03 0.  1.
</event>
<event>
 8    1  0.1163913E+005  0.1043930E+01  0.7957747E-01            NaN
         13   -1    0    0    0    0  0.00000000000E+00  0.00000000000E+00  0.74505805969E-08  0.10566000000E+00  0.10566000000E+00 0.  1.
     999900   -1    0    0    0    0 -0.00000000000E+00 -0.00000000000E+00 -0.74505805969E-08  0.93827000000E+00  0.93827000000E+00 0.  1.
     999902    2    1    2    0    0  0.10528298650E-01 -0.12411603882E-01  0.16635858888E-01  0.10206567367E+01  0.10203913609E+01 0.  0.
     999903    2    3    3    0    0  0.16900549219E-01 -0.11162066600E+00  0.68520419751E-01  0.13354059367E+00  0.19830294831E-01 0.  0.
         14    1    1    2    0    0 -0.10528298650E-01  0.12411603882E-01 -0.16635858888E-01  0.23273263293E-01  0.00000000000E+00 0. -1.
     999901    1    3    3    0    0 -0.63722505683E-02  0.99209062115E-01 -0.51884560863E-01  0.88711614304E+00  0.88000000000E+00 0. -1.
        -11    1    4    4    0    0  0.21454692636E-01 -0.90665934043E-01  0.55633792908E-01  0.10851725884E+00  0.51100000000E-03 0.  1.
         11    1    4    4    0    0 -0.45541434172E-02 -0.20954731954E-01  0.12886626843E-01  0.25023334828E-01  0.51100000000E-03 0. -1.
</event>
<event>
 8    1  0.1163913E+005  0.1043930E+01  0.7957747E-01            NaN
         13   -1    0    0    0    0  0.00000000000E+00  0.00000000000E+00  0.74505805969E-08  0.10566000000E+00  0.10566000000E+00 0.  1.
     999900   -1    0    0    0    0 -0.00000000000E+00 -0.00000000000E+00 -0.74505805969E-08  0.93827000000E+00  0.93827000000E+00 0.  1.
     999902    2    1    2    0    0 -0.49798431819E-02 -0.86352173906E-02 -0.23606648079E-01  0.10183050190E+01  0.10179825500E+01 0.  0.
     999903    2    3    3    0    0  0.68650073477E-01 -0.10252841539E+00 -0.36369724967E-01  0.13016077769E+00  0.19853528731E-01 0.  0.
         14    1    1    2    0    0  0.49798431819E-02  0.86352173906E-02  0.23606648079E-01  0.25624980995E-01  0.00000000000E+00 0.  1.
     999901    1    3    3    0    0 -0.73629916659E-01  0.93893197997E-01  0.12763076888E-01  0.88814424132E+00  0.88000000000E+00 0.  1.
        -11    1    4    4    0    0  0.48211688486E-01 -0.66901305090E-01 -0.33417470225E-01  0.88978311776E-01  0.51100000000E-03 0.  1.
         11    1    4    4    0    0  0.20438384992E-01 -0.35627110298E-01 -0.29522547416E-02  0.41182465909E-01  0.51100000000E-03 0. -1.
</event>
<event>
 8    1  0.1163913E+005  0.1043930E+01  0.7957747E-01            NaN
         13   -1    0    0    0    0  0.00000000000E+00  0.00000000000E+00  0.74505805969E-08  0.10566000000E+00  0.10566000000E+00 0.  1.
     999900   -1    0    0    0    0 -0.00000000000E+00 -0.00000000000E+00 -0.74505805969E-08  0.93827000000E+00  0.93827000000E+00 0.  1.
     999902    2    1    2    0    0 -0.16274628450E-01 -0.15075751514E-01  0.10068818072E-01  0.10195676743E+01  0.10192765668E+01 0.  0.
     999903    2    3    3    0    0 -0.63723021974E-01  0.11052892152E+00  0.98097427534E-02  0.12938345123E+00  0.19146288817E-01 0.  0.
         14    1    1    2    0    0  0.16274628450E-01  0.15075751514E-01 -0.10068818072E-01  0.24362325674E-01  0.00000000000E+00 0.  1.
     999901    1    3    3    0    0  0.47448393524E-01 -0.12560467304E+00  0.25907531894E-03  0.89018422310E+00  0.88000000000E+00 0.  1.
        -11    1    4    4    0    0 -0.55395827434E-01  0.95247865529E-01  0.17559664139E-02  0.11020071744E+00  0.51100000000E-03 0. -1.
         11    1    4    4    0    0 -0.83271945399E-02  0.15281055995E-01  0.80537763395E-02  0.19182733787E-01  0.51100000000E-03 0.  1.
</event>
<event>
 8    1  0.1163913E+005  0.1043930E+01  0.7957747E-01            NaN
         13   -1    0    0    0    0  0.00000000000E+00  0.00000000000E+00  0.74505805969E-08  0.10566000000E+00  0.10566000000E+00 0. -1.
     999900   -1    0    0    0    0 -0.00000000000E+00 -0.00000000000E+00 -0.74505805969E-08  0.93827000000E+00  0.93827000000E+00 0. -1.
     999902    2    1    2    0    0 -0.14902803654E-01  0.76163005945E-02 -0.18421543325E-01  0.10190411501E+01  0.10187371647E+01 0.  0.
     999903    2    3    3    0    0  0.25426909226E-01  0.53069079624E-01 -0.11601083350E+00  0.13156376422E+00  0.19688972589E-01 0.  0.
         14    1    1    2    0    0  0.14902803654E-01 -0.76163005945E-02  0.18421543325E-01  0.24888849913E-01  0.00000000000E+00 0. -1.
     999901    1    3    3    0    0 -0.40329712880E-01 -0.45452779029E-01  0.97589290178E-01  0.88747738586E+00  0.88000000000E+00 0. -1.
        -11    1    4    4    0    0  0.20636962986E-01  0.42416649438E-01 -0.10654527329E+00  0.11652129750E+00  0.51100000000E-03 0. -1.
         11    1    4    4    0    0  0.47899462407E-02  0.10652430186E-01 -0.94655602163E-02  0.15042466721E-01  0.51100000000E-03 0.  1.
</event>
<event>
 8    1  0.1163913E+005  0.1043930E+01  0.7957747E-01            NaN
         13   -1    0    0    0    0  0.00000000000E+00  0.00000000000E+00  0.74505805969E-08  0.10566000000E+00  0.10566000000E+00 0. -1.
     999900   -1    0    0    0    0 -0.00000000000E+00 -0.00000000000E+00 -0.74505805969E-08  0.93827000000E+00  0.93827000000E+00 0.  1.
     999902    2    1    2    0    0  0.18819859525E-01 -0.80114107099E-02  0.11568476398E-01  0.10204310753E+01  0.10201604678E+01 0.  0.
     999903    2    3    3    0    0  0.10851538416E+00  0.70790338030E-01 -0.15081303908E-01  0.13196880066E+00  0.20036418357E-01 0.  0.
         14    1    1    2    0    0 -0.18819859525E-01  0.80114107099E-02 -0.11568476398E-01  0.23498924662E-01  0.00000000000E+00 0.  1.
     999901    1    3    3    0    0 -0.89695524637E-01 -0.78801748740E-01  0.26649780306E-01  0.88846227468E+00  0.88000000000E+00 0. -1.
        -11    1    4    4    0    0  0.53643524468E-01  0.45276057756E-01 -0.30235215702E-02  0.70263446591E-01  0.51100000000E-03 0. -1.
         11    1    4    4    0    0  0.54871859695E-01  0.25514280274E-01 -0.12057782338E-01  0.61705354064E-01  0.51100000000E-03 0.  1.
</event>
<event>
 8    1  0.1163913E+005  0.1043930E+01  0.7957747E-01            NaN
         13   -1    0    0    0    0  0.00000000000E+00  0.00000000000E+00  0.74505805969E-08  0.10566000000E+00  0.10566000000E+00 0.  1.
     999900   -1    0    0    0    0 -0.00000000000E+00 -0.00000000000E+00 -0.74505805969E-08  0.93827000000E+00  0.93827000000E+00 0.  1.
     999902    2    1    2    0    0  0.23038612069E-01  0.10598882280E-02 -0.81332876808E-03  0.10208526840E+01  0.10205918087E+01 0.  0.
     999903    2    3    3    0    0  0.92305037856E-01 -0.93059109622E-01  0.11307424043E-01  0.13304463261E+00  0.19819145571E-01 0.  0.
         14    1    1    2    0    0 -0.23038612069E-01 -0.10598882280E-02  0.81332876808E-03  0.23077315979E-01  0.00000000000E+00 0.  1.
     999901    1    3    3    0    0 -0.69266425788E-01  0.94118997850E-01 -0.12120752812E-01  0.88780805141E+00  0.88000000000E+00 0. -1.
        -11    1    4    4    0    0  0.68751551406E-01 -0.73008640938E-01  0.16624935975E-01  0.10165474455E+00  0.51100000000E-03 0.  1.
         11    1    4    4    0    0  0.23553486450E-01 -0.20050468684E-01 -0.53175119320E-02  0.31389888062E-01  0.51100000000E-03 0. -1.
</event>
<event>
 8    1  0.1163913E+005  0.1043930E+01  0.7957747E-01            NaN
         13   -1    0    0    0    0  0.00000000000E+00  0.00000000000E+00  0.74505805969E-08  0.10566000000E+00  0.10566000000E+00 0. -1.
     999900   -1    0    0    0    0 -0.00000000000E+00 -0.00000000000E+00 -0.74505805969E-08  0.93827000000E+00  0.93827000000E+00 0.  1.
     999902    2    1    2    0    0 -0.25010124208E-02  0.16992840638E-01 -0.16638692765E-01  0.10200164517E+01  0.10197360952E+01 0.  0.
     999903    2    3    3    0    0 -0.24045284949E-01  0.30541062645E-01  0.12096152465E+00  0.12896003942E+00  0.22092285664E-01 0.  0.
         14    1    1    2    0    0  0.25010124208E-02 -0.16992840638E-01  0.16638692765E-01  0.23913548315E-01  0.00000000000E+00 0. -1.
     999901    1    3    3    0    0  0.21544272528E-01 -0.13548222007E-01 -0.13760021742E+00  0.89105641226E+00  0.88000000000E+00 0.  1.
        -11    1    4    4    0    0 -0.72124405912E-02  0.25177956981E-01  0.59574845318E-01  0.65079736729E-01  0.51100000000E-03 0. -1.
         11    1    4    4    0    0 -0.16832844357E-01  0.53631056640E-02  0.61386679336E-01  0.63880302695E-01  0.51100000000E-03 0.  1.
</event>
<event>
 8    1  0.1163913E+005  0.1043930E+01  0.7957747E-01            NaN
         13   -1    0    0    0    0  0.00000000000E+00  0.00000000000E+00  0.74505805969E-08  0.10566000000E+00  0.10566000000E+00 0. -1.
     999900   -1    0    0    0    0 -0.00000000000E+00 -0.00000000000E+00 -0.74505805969E-08  0.93827000000E+00  0.93827000000E+00 0.  1.
     999902    2    1    2    0    0  0.14530850720E-01 -0.53118114278E-02 -0.18260222110E-01  0.10199968290E+01  0.10197160068E+01 0.  0.
     999903    2    3    3    0    0 -0.96591611872E-02 -0.11375384631E+00  0.57993812314E-01  0.12973871508E+00  0.20871391389E-01 0.  0.
         14    1    1    2    0    0 -0.14530850720E-01  0.53118114278E-02  0.18260222110E-01  0.23933171014E-01  0.00000000000E+00 0. -1.
     999901    1    3    3    0    0  0.24190011907E-01  0.10844203488E+00 -0.76254034424E-01  0.89025811390E+00  0.88000000000E+00 0.  1.
        -11    1    4    4    0    0  0.42547750287E-02 -0.69381557923E-01  0.36330439488E-01  0.78435104671E-01  0.51100000000E-03 0. -1.
         11    1    4    4    0    0 -0.13913936216E-01 -0.44372288390E-01  0.21663372826E-01  0.51303610411E-01  0.51100000000E-03 0.  1.
</event>
<event>
 8    1  0.1163913E+005  0.1043930E+01  0.7957747E-01            NaN
         13   -1    0    0    0    0  0.00000000000E+00  0.00000000000E+00  0.74505805969E-08  0.10566000000E+00  0.10566000000E+00 0.  1.
     999900   -1    0    0    0    0 -0.00000000000E+00 -0.00000000000E+00 -0.74505805969E-08  0.93827000000E+00  0.93827000000E+00 0. -1.
     999902    2    1    2    0    0 -0.11330914547E-03  0.24401480449E-01 -0.42596300922E-02  0.10191592605E+01  0.10188581887E+01 0.  0.
     999903    2    3    3    0    0 -0.18054934757E-01 -0.24863723946E-01  0.12207604737E+00  0.12859221322E+00  0.26252819292E-01 0.  0.
         14    1    1    2    0    0  0.11330914547E-03 -0.24401480449E-01  0.42596300922E-02  0.24770739504E-01  0.00000000000E+00 0.  1.
     999901    1    3    3    0    0  0.17941625611E-01  0.49265204394E-01 -0.12633567747E+00  0.89056704728E+00  0.88000000000E+00 0. -1.
        -11    1    4    4    0    0 -0.17782951214E-01 -0.14256020016E-01  0.41768433313E-01  0.47584982956E-01  0.51100000000E-03 0. -1.
         11    1    4    4    0    0 -0.27198354270E-03 -0.10607703930E-01  0.80307614061E-01  0.81007230263E-01  0.51100000000E-03 0.  1.
</event>
<event>
 8    1  0.1163913E+005  0.1043930E+01  0.7957747E-01            NaN
         13   -1    0    0    0    0  0.00000000000E+00  0.00000000000E+00  0.74505805969E-08  0.10566000000E+00  0.10566000000E+00 0.  1.
     999900   -1    0    0    0    0 -0.00000000000E+00 -0.00000000000E+00 -0.74505805969E-08  0.93827000000E+00  0.93827000000E+00 0.  1.
     999902    2    1    2    0    0  0.98281877743E-02 -0.21270888006E-02 -0.21030362180E-01  0.10206191889E+01  0.10203529462E+01 0.  0.
     999903    2    3    3    0    0 -0.11128002497E+00  0.44690439288E-01  0.42708639537E-01  0.12881105903E+00  0.19692173939E-01 0.  0.
         14    1    1    2    0    0 -0.98281877743E-02  0.21270888006E-02  0.21030362180E-01  0.23310811121E-01  0.00000000000E+00 0.  1.
     999901    1    3    3    0    0  0.12110821275E+00 -0.46817528089E-01 -0.63739001716E-01  0.89180812985E+00  0.88000000000E+00 0.  1.
        -11    1    4    4    0    0 -0.87180417558E-01  0.31685965816E-01  0.24570196880E-01  0.95960311229E-01  0.51100000000E-03 0.  1.
         11    1    4    4    0    0 -0.24099607416E-01  0.13004473472E-01  0.18138442657E-01  0.32850747798E-01  0.51100000000E-03 0. -1.
</event>
<event>
 8    1  0.1163913E+005  0.1043930E+01  0.7957747E-01            NaN
         13   -1    0    0    0    0  0.00000000000E+00  0.00000000000E+00  0.74505805969E-08  0.10566000000E+00  0.10566000000E+00 0.  1.
     999900   -1    0    0    0    0 -0.00000000000E+00 -0.00000000000E+00 -0.74505805969E-08  0.93827000000E+00  0.93827000000E+00 0. -1.
     999902    2    1    2    0    0 -0.19281309776E-01  0.13441478108E-01 -0.25273131673E-02  0.10202904240E+01  0.10200165292E+01 0.  0.
     999903    2    3    3    0    0  0.95394363182E-01  0.57699014489E-01 -0.62933911712E-01  0.12969612995E+00  0.20764105571E-01 0.  0.
         14    1    1    2    0    0  0.19281309776E-01 -0.13441478108E-01  0.25273131673E-02  0.23639575975E-01  0.00000000000E+00 0.  1.
     999901    1    3    3    0    0 -0.11467567296E+00 -0.44257536381E-01  0.60406598545E-01  0.89059429408E+00  0.88000000000E+00 0.  1.
        -11    1    4    4    0    0  0.58764188884E-01  0.30072660349E-01 -0.26610192278E-01  0.71175545306E-01  0.51100000000E-03 0. -1.
         11    1    4    4    0    0  0.36630174298E-01  0.27626354141E-01 -0.36323719435E-01  0.58520584642E-01  0.51100000000E-03 0.  1.
</event>
<event>
 8    1  0.1163913E+005  0.1043930E+01  0.7957747E-01            NaN
         13   -1    0    0    0    0  0.00000000000E+00  0.00000000000E+00  0.74505805969E-08  0.10566000000E+00  0.10566000000E+00 0. -1.
     999900   -1    0    0    0    0 -0.00000000000E+00 -0.00000000000E+00 -0.74505805969E-08  0.93827000000E+00  0.93827000000E+00 0.  1.
     999902    2    1    2    0    0 -0.10492630844E-01  0.98702214520E-02  0.18392063951E-01  0.10205679669E+01  0.10203005393E+01 0.  0.
     999903    2    3    3    0    0 -0.51575747174E-01 -0.91881523370E-01 -0.72168346146E-01  0.12914078094E+00  0.19151999428E-01 0.  0.
         14    1    1    2    0    0  0.10492630844E-01 -0.98702214520E-02 -0.18392063951E-01  0.23362033086E-01  0.00000000000E+00 0.  1.
     999901    1    3    3    0    0  0.41083116330E-01  0.10175174482E+00  0.90560410098E-01  0.89142718598E+00  0.88000000000E+00 0. -1.
        -11    1    4    4    0    0 -0.34888519568E-01 -0.76648735688E-01 -0.60585832428E-01  0.10374556228E+00  0.51100000000E-03 0.  1.
         11    1    4    4    0    0 -0.16687227605E-01 -0.15232787682E-01 -0.11582513718E-01  0.25395218659E-01  0.51100000000E-03 0. -1.
</event>
<event>
 8    1  0.1163913E+005  0.1043930E+01  0.7957747E-01            NaN
         13   -1    0    0    0    0  0.00000000000E+00  0.00000000000E+00  0.74505805969E-08  0.10566000000E+00  0.10566000000E+00 0.  1.
     999900   -1    0    0    0    0 -0.00000000000E+00 -0.00000000000E+00 -0.74505805969E-08  0.93827000000E+00  0.93827000000E+00 0. -1.
     999902    2    1    2    0    0  0.13238239666E-01  0.17299094317E-01  0.87625673060E-02  0.10204503867E+01  0.10201802289E+01 0.  0.
     999903    2    3    3    0    0 -0.83605909055E-01  0.21106223120E-01 -0.94080751557E-01  0.12917600047E+00  0.19995764532E-01 0.  0.
         14    1    1    2    0    0 -0.13238239666E-01 -0.17299094317E-01 -0.87625673060E-02  0.23479613273E-01  0.00000000000E+00 0.  1.
     999901    1    3    3    0    0  0.96844148721E-01 -0.38071288031E-02  0.10284331886E+00  0.89127438626E+00  0.88000000000E+00 0.  1.
        -11    1    4    4    0    0 -0.41320515814E-01  0.16671742320E-01 -0.36520580424E-01  0.57613765149E-01  0.51100000000E-03 0.  1.
         11    1    4    4    0    0 -0.42285393241E-01  0.44344808001E-02 -0.57560171134E-01  0.71562235316E-01  0.51100000000E-03 0. -1.
</event>
<event>
 8    1  0.1163913E+005  0.1043930E+01  0.7957747E-01            NaN
         13   -1    0    0    0    0  0.00000000000E+00  0.00000000000E+00  0.74505805969E-08  0.10566000000E+00  0.10566000000E+00 0.  1.
     999900   -1    0    0    0    0 -0.00000000000E+00 -0.00000000000E+00 -0.74505805969E-08  0.93827000000E+00  0.93827000000E+00 0.  1.
     999902    2    1    2    0    0 -0.82389063605E-02  0.15620587509E-02 -0.21726503911E-01  0.10206413638E+01  0.10203756332E+01 0.  0.
     999903    2    3    3    0    0  0.76764473489E-01  0.10327027971E+00 -0.11039819832E-02  0.13047541002E+00  0.21565685306E-01 0.  0.
         14    1    1    2    0    0  0.82389063605E-02 -0.15620587509E-02  0.21726503911E-01  0.23288636237E-01  0.00000000000E+00 0.  1.
     999901    1    3    3    0    0 -0.85003379850E-01 -0.10170822095E+00 -0.20622521928E-01  0.89016595374E+00  0.88000000000E+00 0.  1.
        -11    1    4    4    0    0  0.73410761554E-01  0.88780161517E-01  0.22375677868E-02  0.11522293531E+00  0.51100000000E-03 0. -1.
         11    1    4    4    0    0  0.33537119353E-02  0.14490118188E-01 -0.33415497700E-02  0.15252474708E-01  0.51100000000E-03 0.  1.
</event>
<event>
 8    1  0.1163913E+005  0.1043930E+01  0.7957747E-01            NaN
         13   -1    0    0    0    0  0.00000000000E+00  0.00000000000E+00  0.74505805969E-08  0.10566000000E+00  0.10566000000E+00 0. -1.
     999900   -1    0    0    0    0 -0.00000000000E+00 -0.00000000000E+00 -0.74505805969E-08  0.93827000000E+00  0.93827000000E+00 0. -1.
     999902    2    1    2    0    0  0.17574516572E-01 -0.38701973018E-02  0.13837006473E-01  0.10212296738E+01  0.10209773464E+01 0.  0.
     999903    2    3    3    0    0  0.80042773374E-01  0.79587443983E-01  0.68163893243E-01  0.13341276049E+00  0.20288950444E-01 0.  0.
         14    1    1    2    0    0 -0.17574516572E-01  0.38701973018E-02 -0.13837006473E-01  0.22700326166E-01  0.00000000000E+00 0. -1.
     999901    1    3    3    0    0 -0.62468256801E-01 -0.83457641285E-01 -0.54326886770E-01  0.88781691335E+00  0.88000000000E+00 0. -1.
        -11    1    4    4    0    0  0.60192442239E-01  0.53459513306E-01  0.38766756508E-01  0.89354195182E-01  0.51100000000E-03 0. -1.
         11    1    4    4    0    0  0.19850331135E-01  0.26127930677E-01  0.29397136735E-01  0.44058565306E-01  0.51100000000E-03 0.  1.
</event>
<event>
 8    1  0.1163913E+005  0.1043930E+01  0.7957747E-01            NaN
         13   -1    0    0    0    0  0.00000000000E+00  0.00000000000E+00  0.74505805969E-08  0.10566000000E+00  0.10566000000E+00 0. -1.
     999900   -1    0    0    0    0 -0.00000000000E+00 -0.00000000000E+00 -0.74505805969E-08  0.93827000000E+00  0.93827000000E+00 0.  1.
     999902    2    1    2    0    0  0.19798502932E-01 -0.74058293767E-02 -0.86298593955E-02  0.10210979721E+01  0.10208426750E+01 0.  0.
     999903    2    3    3    0    0  0.57472645119E-01  0.94068051992E-01 -0.70715780413E-01  0.13229487171E+00  0.18689787004E-01 0.  0.
         14    1    1    2    0    0 -0.19798502932E-01  0.74058293767E-02  0.86298593955E-02  0.22832027950E-01  0.00000000000E+00 0. -1.
     999901    1    3    3    0    0 -0.37674142187E-01 -0.10147388137E+00  0.62085921018E-01  0.88880310034E+00  0.88000000000E+00 0.  1.
        -11    1    4    4    0    0  0.58399797592E-01  0.88312394688E-01 -0.65849246591E-01  0.12468359881E+00  0.51100000000E-03 0. -1.
         11    1    4    4    0    0 -0.92715247244E-03  0.57556573043E-02 -0.48665338218E-02  0.76112728995E-02  0.51100000000E-03 0.  1.
</event>
<event>
 8    1  0.1163913E+005  0.1043930E+01  0.7957747E-01            NaN
         13   -1    0    0    0    0  0.00000000000E+00  0.00000000000E+00  0.74505805969E-08  0.10566000000E+00  0.10566000000E+00 0.  1.
     999900   -1    0    0    0    0 -0.00000000000E+00 -0.00000000000E+00 -0.74505805969E-08  0.93827000000E+00  0.93827000000E+00 0. -1.
     999902    2    1    2    0    0 -0.13071896284E-01 -0.61801423183E-02  0.18810777751E-01  0.10202041915E+01  0.10199282711E+01 0.  0.
     999903    2    3    3    0    0 -0.11627353040E+00 -0.55214348499E-01  0.25081633197E-01  0.13279546134E+00  0.20913825013E-01 0.  0.
         14    1    1    2    0    0  0.13071896284E-01  0.61801423183E-02 -0.18810777751E-01  0.23725808546E-01  0.00000000000E+00 0. -1.
     999901    1    3    3    0    0  0.10320163411E+00  0.49034206181E-01 -0.62708554458E-02  0.88740873012E+00  0.88000000000E+00 0. -1.
        -11    1    4    4    0    0 -0.42303074172E-01 -0.98400151556E-02  0.49979110838E-02  0.43722033563E-01  0.51100000000E-03 0.  1.
         11    1    4    4    0    0 -0.73970456226E-01 -0.45374333344E-01  0.20083722113E-01  0.89073427775E-01  0.51100000000E-03 0. -1.
</event>
<event>
 8    1  0.1163913E+005  0.1043930E+01  0.7957747E-01            NaN
         13   -1    0    0    0    0  0.00000000000E+00  0.00000000000E+00  0.74505805969E-08  0.10566000000E+00  0.10566000000E+00 0. -1.
     999900   -1    0    0    0    0 -0.00000000000E+00 -0.00000000000E+00 -0.74505805969E-08  0.93827000000E+00  0.93827000000E+00 0.  1.
     999902    2    1    2    0    0 -0.20563754906E-01  0.10024456516E-01 -0.63482687220E-02  0.10201885118E+01  0.10199122224E+01 0.  0.
     999903    2    3    3    0    0 -0.12796952024E+00 -0.22317646186E-01 -0.18176807405E-01  0.13298959144E+00  0.21944467675E-01 0.  0.
         14    1    1    2    0    0  0.20563754906E-01 -0.10024456516E-01  0.63482687220E-02  0.23741488160E-01  0.00000000000E+00 0. -1.
     999901    1    3    3    0    0  0.10740576534E+00  0.32342102702E-01  0.11828538683E-01  0.88719892040E+00  0.88000000000E+00 0.  1.
        -11    1    4    4    0    0 -0.17787213903E-01 -0.11024014430E-01 -0.15788068859E-02  0.20992084812E-01  0.51100000000E-03 0. -1.
         11    1    4    4    0    0 -0.11018230634E+00 -0.11293631756E-01 -0.16598000520E-01  0.11199750663E+00  0.51100000000E-03 0.  1.
</event>
<event>
 8    1  0.1163913E+005  0.1043930E+01  0.7957747E-01            NaN
         13   -1    0    0    0    0  0.00000000000E+00  0.00000000000E+00  0.74505805969E-08  0.10566000000E+00  0.10566000000E+00 0. -1.
     999900   -1    0    0    0    0 -0.00000000000E+00 -0.00000000000E+00 -0.74505805969E-08  0.93827000000E+00  0.93827000000E+00 0.  1.
     999902    2    1    2    0    0 -0.19979151681E-01 -0.10221691582E-01  0.12043766362E-01  0.10184603752E+01  0.10181418536E+01 0.  0.
     999903    2    3    3    0    0 -0.42088616122E-01 -0.23018923686E-01  0.12120943470E+00  0.13134722528E+00  0.16094846191E-01 0.  0.
         14    1    1    2    0    0  0.19979151681E-01  0.10221691582E-01 -0.12043766362E-01  0.25469624828E-01  0.00000000000E+00 0.  1.
     999901    1    3    3    0    0  0.22109464441E-01  0.12797232105E-01 -0.10916566834E+00  0.88711314989E+00  0.88000000000E+00 0.  1.
        -11    1    4    4    0    0 -0.84380443117E-02 -0.10874102611E-01  0.22821397388E-01  0.26655656044E-01  0.51100000000E-03 0. -1.
         11    1    4    4    0    0 -0.33650571810E-01 -0.12144821075E-01  0.98388037312E-01  0.10469156924E+00  0.51100000000E-03 0.  1.
</event>
<event>
 8    1  0.1163913E+005  0.1043930E+01  0.7957747E-01            NaN
         13   -1    0    0    0    0  0.00000000000E+00  0.00000000000E+00  0.74505805969E-08  0.10566000000E+00  0.10566000000E+00 0. -1.
     999900   -1    0    0    0    0 -0.00000000000E+00 -0.00000000000E+00 -0.74505805969E-08  0.93827000000E+00  0.93827000000E+00 0. -1.
     999902    2    1    2    0    0 -0.21337599724E-01 -0.11231622055E-02  0.97217889150E-02  0.10204551659E+01  0.10201851194E+01 0.  0.
     999903    2    3    3    0    0  0.22479052021E-03  0.93210212541E-01  0.90615082192E-01  0.13146278847E+00  0.19574917106E-01 0.  0.
         14    1    1    2    0    0  0.21337599724E-01  0.11231622055E-02 -0.97217889150E-02  0.23474834079E-01  0.00000000000E+00 0. -1.
     999901    1    3    3    0    0 -0.21562390244E-01 -0.94333374746E-01 -0.80893293277E-01  0.88899237745E+00  0.88000000000E+00 0.  1.
        -11    1    4    4    0    0 -0.58159902247E-02  0.64921890834E-01  0.71680960121E-01  0.96887041531E-01  0.51100000000E-03 0. -1.
         11    1    4    4    0    0  0.60407807449E-02  0.28288321707E-01  0.18934122072E-01  0.34575746942E-01  0.51100000000E-03 0.  1.
</event>
<event>
 7    1  0.1204841E+005  0.1043930E+01  0.7957747E-01            NaN
         13   -1    0    0    0    0  0.00000000000E+00  0.00000000000E+00  0.74505805969E-08  0.10566000000E+00  0.10566000000E+00 0.  1.
     999900   -1    0    0    0    0 -0.00000000000E+00 -0.00000000000E+00 -0.74505805969E-08  0.93827000000E+00  0.93827000000E+00 0.  1.
     999903    2    1    2    0    0  0.18750697560E-01  0.10359242494E+00 -0.40335194146E-01  0.11422324684E+00  0.18358732774E-01 0.  0.
         14    1    1    2    0    0  0.21504982365E-03 -0.15359118569E-01  0.42391566621E-01  0.45088731300E-01  0.00000000000E+00 0.  1.
     999901    1    1    2    0    0 -0.18965747384E-01 -0.88233306369E-01 -0.20563724757E-02  0.88461802186E+00  0.88000000000E+00 0. -1.
        -11    1    3    3    0    0  0.16751047704E-01  0.59313907686E-01 -0.16100178012E-01  0.63704113660E-01  0.51100000000E-03 0.  1.
         11    1    3    3    0    0  0.19996498563E-02  0.44278517252E-01 -0.24235016133E-01  0.50519133183E-01  0.51100000000E-03 0. -1.
</event>
<event>
 8    1  0.1163913E+005  0.1043930E+01  0.7957747E-01            NaN
         13   -1    0    0    0    0  0.00000000000E+00  0.00000000000E+00  0.74505805969E-08  0.10566000000E+00  0.10566000000E+00 0. -1.
     999900   -1    0    0    0    0 -0.00000000000E+00 -0.00000000000E+00 -0.74505805969E-08  0.93827000000E+00  0.93827000000E+00 0. -1.
     999902    2    1    2    0    0 -0.23041408348E-01 -0.38488000348E-02 -0.51904602985E-02  0.10199996712E+01  0.10197189164E+01 0.  0.
     999903    2    3    3    0    0 -0.37399475407E-01 -0.11131556898E+00 -0.56560294928E-01  0.13185884875E+00  0.19945234360E-01 0.  0.
         14    1    1    2    0    0  0.23041408348E-01  0.38488000348E-02  0.51904602985E-02  0.23930328842E-01  0.00000000000E+00 0.  1.
     999901    1    3    3    0    0  0.14358067058E-01  0.10746676894E+00  0.51369834630E-01  0.88814082241E+00  0.88000000000E+00 0.  1.
        -11    1    4    4    0    0 -0.18128368967E-01 -0.30421613703E-01 -0.11274057343E-01  0.37168236865E-01  0.51100000000E-03 0. -1.
         11    1    4    4    0    0 -0.19271106440E-01 -0.80893955276E-01 -0.45286237586E-01  0.94690611885E-01  0.51100000000E-03 0.  1.
</event>
<event>
 8    1  0.1163913E+005  0.1043930E+01  0.7957747E-01            NaN
         13   -1    0    0    0    0  0.00000000000E+00  0.00000000000E+00  0.74505805969E-08  0.10566000000E+00  0.10566000000E+00 0. -1.
     999900   -1    0    0    0    0 -0.00000000000E+00 -0.00000000000E+00 -0.74505805969E-08  0.93827000000E+00  0.93827000000E+00 0.  1.
     999902    2    1    2    0    0  0.16566273827E-01 -0.25031740991E-02 -0.17550617869E-01  0.10196662102E+01  0.10193774810E+01 0.  0.
     999903    2    3    3    0    0 -0.75613976371E-01  0.28929679470E-01 -0.10023931329E+00  0.13044034283E+00  0.20306731188E-01 0.  0.
         14    1    1    2    0    0 -0.16566273827E-01  0.25031740991E-02  0.17550617869E-01  0.24263789825E-01  0.00000000000E+00 0. -1.
     999901    1    3    3    0    0  0.92180250198E-01 -0.31432853569E-01  0.82688695420E-01  0.88922586735E+00  0.88000000000E+00 0. -1.
        -11    1    4    4    0    0 -0.39630739211E-01  0.24243337699E-01 -0.47714830614E-01  0.66598056239E-01  0.51100000000E-03 0. -1.
         11    1    4    4    0    0 -0.35983237159E-01  0.46863417708E-02 -0.52524482674E-01  0.63842286589E-01  0.51100000000E-03 0.  1.
</event>
<event>
 7    1  0.2342896E+005  0.1043930E+01  0.7957747E-01            NaN
         13   -1    0    0    0    0  0.00000000000E+00  0.00000000000E+00  0.74505805969E-08  0.10566000000E+00  0.10566000000E+00 0. -1.
     999900   -1    0    0    0    0 -0.00000000000E+00 -0.00000000000E+00 -0.74505805969E-08  0.93827000000E+00  0.93827000000E+00 0.  1.
     999903    2    1    2    0    0 -0.10613917577E-02 -0.99449792883E-01 -0.33672575492E-01  0.10688594871E+00  0.19984389765E-01 0.  0.
         14    1    1    2    0    0  0.28039997384E-01  0.42800173418E-01 -0.15433754910E-01  0.53444336356E-01  0.00000000000E+00 0. -1.
     999901    1    1    2    0    0 -0.26978605627E-01  0.56649619464E-01  0.49106330402E-01  0.88359971493E+00  0.88000000000E+00 0. -1.
        -11    1    3    3    0    0 -0.97791732398E-02 -0.37139771688E-01 -0.15245438008E-01  0.41324077380E-01  0.51100000000E-03 0.  1.
         11    1    3    3    0    0  0.87177814821E-02 -0.62310021195E-01 -0.18427137485E-01  0.65561871329E-01  0.51100000000E-03 0. -1.
</event>
<event>
 8    1  0.1163913E+005  0.1043930E+01  0.7957747E-01            NaN
         13   -1    0    0    0    0  0.00000000000E+00  0.00000000000E+00  0.74505805969E-08  0.10566000000E+00  0.10566000000E+00 0.  1.
     999900   -1    0    0    0    0 -0.00000000000E+00 -0.00000000000E+00 -0.74505805969E-08  0.93827000000E+00  0.93827000000E+00 0.  1.
     999902    2    1    2    0    0 -0.20627762940E-02  0.11799220929E-01 -0.21057356432E-01  0.10197042096E+01  0.10194163949E+01 0.  0.
     999903    2    3    3    0    0  0.10870566397E+00 -0.62259294375E-01  0.21139048621E-01  0.12867399258E+00  0.20420476846E-01 0.  0.
         14    1    1    2    0    0  0.20627762940E-02 -0.11799220929E-01  0.21057356432E-01  0.24225790400E-01  0.00000000000E+00 0.  1.
     999901    1    3    3    0    0 -0.11076844026E+00  0.74058515304E-01 -0.42196405053E-01  0.89103021702E+00  0.88000000000E+00 0.  1.
        -11    1    4    4    0    0  0.52414200356E-01 -0.39765931648E-01  0.52387759729E-02  0.66002148552E-01  0.51100000000E-03 0.  1.
         11    1    4    4    0    0  0.56291463612E-01 -0.22493362727E-01  0.15900272648E-01  0.62671844027E-01  0.51100000000E-03 0. -1.
</event>
<event>
 8    1  0.1163913E+005  0.1043930E+01  0.7957747E-01            NaN
         13   -1    0    0    0    0  0.00000000000E+00  0.00000000000E+00  0.74505805969E-08  0.10566000000E+00  0.10566000000E+00 0.  1.
     999900   -1    0    0    0    0 -0.00000000000E+00 -0.00000000000E+00 -0.74505805969E-08  0.93827000000E+00  0.93827000000E+00 0.  1.
     999902    2    1    2    0    0  0.21357164810E-01 -0.74571245569E-02  0.13283340600E-02  0.10212694248E+01  0.10210179903E+01 0.  0.
     999903    2    3    3    0    0  0.76972628041E-01 -0.10742114341E+00 -0.68836500106E-02  0.13382741462E+00  0.19957573661E-01 0.  0.
         14    1    1    2    0    0 -0.21357164810E-01  0.74571245569E-02 -0.13283340600E-02  0.22660575164E-01  0.00000000000E+00 0.  1.
     999901    1    3    3    0    0 -0.55615463231E-01  0.99964018856E-01  0.82119840705E-02  0.88744201022E+00  0.88000000000E+00 0.  1.
        -11    1    4    4    0    0  0.60099814005E-01 -0.89743551325E-01  0.14001696026E-02  0.10801904575E+00  0.51100000000E-03 0. -1.
         11    1    4    4    0    0  0.16872814036E-01 -0.17677592088E-01 -0.82838196132E-02  0.25808368873E-01  0.51100000000E-03 0.  1.
</event>
<event>
 8    1  0.1163913E+005  0.1043930E+01  0.7957747E-01            NaN
         13   -1    0    0    0    0  0.00000000000E+00  0.00000000000E+00  0.74505805969E-08  0.10566000000E+00  0.10566000000E+00 0.  1.
     999900   -1    0    0    0    0 -0.00000000000E+00 -0.00000000000E+00 -0.74505805969E-08  0.93827000000E+00  0.93827000000E+00 0. -1.
     999902    2    1    2    0    0 -0.11122706290E-01  0.19539652623E-01  0.65559533296E-02  0.10205100695E+01  0.10202412993E+01 0.  0.
     999903    2    3    3    0    0 -0.10640093791E+00 -0.32519182707E-01  0.68327151470E-01  0.13168852124E+00  0.17164211808E-01 0.  0.
         14    1    1    2    0    0  0.11122706290E-01 -0.19539652623E-01 -0.65559533296E-02  0.23419930485E-01  0.00000000000E+00 0.  1.
     999901    1    3    3    0    0  0.95278231618E-01  0.52058835330E-01 -0.61771198140E-01  0.88882154827E+00  0.88000000000E+00 0. -1.
        -11    1    4    4    0    0 -0.33360104259E-01 -0.11433016322E-01  0.12700395206E-01  0.37485618279E-01  0.51100000000E-03 0. -1.
         11    1    4    4    0    0 -0.73040833650E-01 -0.21086166384E-01  0.55626756264E-01  0.94202902962E-01  0.51100000000E-03 0.  1.
</event>
<event>
 8    1  0.1163913E+005  0.1043930E+01  0.7957747E-01            NaN
         13   -1    0    0    0    0  0.00000000000E+00  0.00000000000E+00  0.74505805969E-08  0.10566000000E+00  0.10566000000E+00 0. -1.
     999900   -1    0    0    0    0 -0.00000000000E+00 -0.00000000000E+00 -0.74505805969E-08  0.93827000000E+00  0.93827000000E+00 0.  1.
     999902    2    1    2    0    0 -0.50382080325E-02 -0.12754674263E-01 -0.19501985150E-01  0.10200890126E+01  0.10198103750E+01 0.  0.
     999903    2    3    3    0    0 -0.50793905201E-01  0.11403185888E+00 -0.29240087176E-01  0.12977264217E+00  0.20066646749E-01 0.  0.
         14    1    1    2    0    0  0.50382080325E-02  0.12754674263E-01  0.19501985150E-01  0.23840987407E-01  0.00000000000E+00 0. -1.
     999901    1    3    3    0    0  0.45755697168E-01 -0.12678653315E+00  0.97381020254E-02  0.89031637042E+00  0.88000000000E+00 0.  1.
        -11    1    4    4    0    0 -0.43170683294E-01  0.74476866218E-01 -0.17995119913E-01  0.87946557405E-01  0.51100000000E-03 0. -1.
         11    1    4    4    0    0 -0.76232219065E-02  0.39554992666E-01 -0.11244967263E-01  0.41826084765E-01  0.51100000000E-03 0.  1.
</event>
<event>
 8    1  0.1163913E+005  0.1043930E+01  0.7957747E-01            NaN
         13   -1    0    0    0    0  0.00000000000E+00  0.00000000000E+00  0.74505805969E-08  0.10566000000E+00  0.10566000000E+00 0.  1.
     999900   -1    0    0    0    0 -0.00000000000E+00 -0.00000000000E+00 -0.74505805969E-08  0.93827000000E+00  0.93827000000E+00 0. -1.
     999902    2    1    2    0    0 -0.90028656610E-02 -0.18461155159E-01 -0.95512018458E-02  0.10212784814E+01  0.10210272500E+01 0.  0.
     999903    2    3    3    0    0  0.86339158861E-01  0.68072087053E-01  0.64337295040E-01  0.12884494679E+00  0.19325459705E-01 0.  0.
         14    1    1    2    0    0  0.90028656610E-02  0.18461155159E-01  0.95512018458E-02  0.22651518639E-01  0.00000000000E+00 0.  1.
     999901    1    3    3    0    0 -0.95342024522E-01 -0.86533242212E-01 -0.73888496886E-01  0.89243353457E+00  0.88000000000E+00 0. -1.
        -11    1    4    4    0    0  0.55522734057E-01  0.49065163679E-01  0.52264301922E-01  0.90675149078E-01  0.51100000000E-03 0.  1.
         11    1    4    4    0    0  0.30816424804E-01  0.19006923373E-01  0.12072993119E-01  0.38169797716E-01  0.51100000000E-03 0. -1.
</event>
<event>
 8    1  0.1163913E+005  0.1043930E+01  0.7957747E-01            NaN
         13   -1    0    0    0    0  0.00000000000E+00  0.00000000000E+00  0.74505805969E-08  0.10566000000E+00  0.10566000000E+00 0.  1.
     999900   -1    0    0    0    0 -0.00000000000E+00 -0.00000000000E+00 -0.74505805969E-08  0.93827000000E+00  0.93827000000E+00 0.  1.
     999902    2    1    2    0    0  0.19916060454E-01  0.16965174341E-02  0.13505905447E-01  0.10198066272E+01  0.10195212698E+01 0.  0.
     999903    2    3    3    0    0 -0.10983384105E+00  0.11938572336E-01 -0.58785992828E-01  0.12730113407E+00  0.23319168788E-01 0.  0.
         14    1    1    2    0    0 -0.19916060454E-01 -0.16965174341E-02 -0.13505905447E-01  0.24123372843E-01  0.00000000000E+00 0. -1.
     999901    1    3    3    0    0  0.12974990151E+00 -0.10242054902E-01  0.72291898275E-01  0.89250549308E+00  0.88000000000E+00 0.  1.
        -11    1    4    4    0    0 -0.63598805778E-01  0.13421895984E-01 -0.44896328678E-01  0.78999347073E-01  0.51100000000E-03 0. -1.
         11    1    4    4    0    0 -0.46235035277E-01 -0.14833236484E-02 -0.13889664150E-01  0.48301786999E-01  0.51100000000E-03 0.  1.
</event>
<event>
 8    1  0.1163913E+005  0.1043930E+01  0.7957747E-01            NaN
         13   -1    0    0    0    0  0.00000000000E+00  0.00000000000E+00  0.74505805969E-08  0.10566000000E+00  0.10566000000E+00 0.  1.
     999900   -1    0    0    0    0 -0.00000000000E+00 -0.00000000000E+00 -0.74505805969E-08  0.93827000000E+00  0.93827000000E+00 0.  1.
     999902    2    1    2    0    0  0.71736510158E-02  0.39332674778E-02 -0.20292106202E-01  0.10220507533E+01  0.10218165397E+01 0.  0.
     999903    2    3    3    0    0 -0.86927546707E-01 -0.89040778247E-01  0.34251463866E-01  0.13049357082E+00  0.19254887231E-01 0.  0.
         14    1    1    2    0    0 -0.71736510158E-02 -0.39332674778E-02  0.20292106202E-01  0.21879246698E-01  0.00000000000E+00 0.  1.
     999901    1    3    3    0    0  0.94101197723E-01  0.92974045724E-01 -0.54543570068E-01  0.89155718248E+00  0.88000000000E+00 0.  1.
        -11    1    4    4    0    0 -0.71070904592E-01 -0.61081754109E-01  0.27218263784E-01  0.97586623924E-01  0.51100000000E-03 0.  1.
         11    1    4    4    0    0 -0.15856642116E-01 -0.27959024138E-01  0.70332000818E-02  0.32906946900E-01  0.51100000000E-03 0. -1.
</event>
<event>
 8    1  0.1163913E+005  0.1043930E+01  0.7957747E-01            NaN
         13   -1    0    0    0    0  0.00000000000E+00  0.00000000000E+00  0.74505805969E-08  0.10566000000E+00  0.10566000000E+00 0. -1.
     999900   -1    0    0    0    0 -0.00000000000E+00 -0.00000000000E+00 -0.74505805969E-08  0.93827000000E+00  0.93827000000E+00 0.  1.
     999902    2    1    2    0    0 -0.12893423089E-01  0.19758467878E-01 -0.22202084740E-02  0.10202326006E+01  0.10199573484E+01 0.  0.
     999903    2    3    3    0    0  0.87930506291E-01  0.72268594079E-01  0.60952765960E-01  0.13067450651E+00  0.20151013552E-01 0.  0.
         14    1    1    2    0    0  0.12893423089E-01 -0.19758467878E-01  0.22202084740E-02  0.23697399383E-01  0.00000000000E+00 0.  1.
     999901    1    3    3    0    0 -0.10082392938E+00 -0.52510126201E-01 -0.63172974434E-01  0.88955809411E+00  0.88000000000E+00 0.  1.
        -11    1    4    4    0    0  0.22049074826E-01  0.88837778789E-02  0.17034825956E-01  0.29249438053E-01  0.51100000000E-03 0. -1.
         11    1    4    4    0    0  0.65881431465E-01  0.63384816200E-01  0.43917940004E-01  0.10142506846E+00  0.51100000000E-03 0.  1.
</event>
<event>
 8    1  0.1163913E+005  0.1043930E+01  0.7957747E-01            NaN
         13   -1    0    0    0    0  0.00000000000E+00  0.00000000000E+00  0.74505805969E-08  0.10566000000E+00  0.10566000000E+00 0. -1.
     999900   -1    0    0    0    0 -0.00000000000E+00 -0.00000000000E+00 -0.74505805969E-08  0.93827000000E+00  0.93827000000E+00 0.  1.
     999902    2    1    2    0    0  0.15416689826E-01  0.16495918275E-01 -0.27389336572E-02  0.10211859590E+01  0.10209326478E+01 0.  0.
     999903    2    3    3    0    0  0.30426041466E-01  0.11889270885E+00 -0.49469831567E-01  0.13388997668E+00  0.20446060826E-01 0.  0.
         14    1    1    2    0    0 -0.15416689826E-01 -0.16495918275E-01  0.27389336572E-02  0.22744041033E-01  0.00000000000E+00 0. -1.
     999901    1    3    3    0    0 -0.15009351639E-01 -0.10239679058E+00  0.46730897910E-01  0.88729598228E+00  0.88000000000E+00 0. -1.
        -11    1    4    4    0    0  0.13314322543E-01  0.88774697851E-01 -0.35261859470E-01  0.96446244186E-01  0.51100000000E-03 0. -1.
         11    1    4    4    0    0  0.17111718923E-01  0.30118011002E-01 -0.14207972097E-01  0.37443732497E-01  0.51100000000E-03 0.  1.
</event>
<event>
 8    1  0.1163913E+005  0.1043930E+01  0.7957747E-01            NaN
         13   -1    0    0    0    0  0.00000000000E+00  0.00000000000E+00  0.74505805969E-08  0.10566000000E+00  0.10566000000E+00 0. -1.
     999900   -1    0    0    0    0 -0.00000000000E+00 -0.00000000000E+00 -0.74505805969E-08  0.93827000000E+00  0.93827000000E+00 0. -1.
     999902    2    1    2    0    0  0.17957001105E-01  0.13095334588E-01  0.66065370314E-02  0.10207440558E+01  0.10204806904E+01 0.  0.
     999903    2    3    3    0    0  0.68376836279E-01 -0.38514348884E-01  0.10461658266E+00  0.13236818476E+00  0.20444073996E-01 0.  0.
         14    1    1    2    0    0 -0.17957001105E-01 -0.13095334588E-01 -0.66065370314E-02  0.23185944194E-01  0.00000000000E+00 0.  1.
     999901    1    3    3    0    0 -0.50419835175E-01  0.51609683471E-01 -0.98010045624E-01  0.88837587104E+00  0.88000000000E+00 0. -1.
        -11    1    4    4    0    0  0.51122359653E-01 -0.33218785691E-01  0.91892947121E-01  0.11027945516E+00  0.51100000000E-03 0.  1.
         11    1    4    4    0    0  0.17254476627E-01 -0.52955631925E-02  0.12723635534E-01  0.22088729602E-01  0.51100000000E-03 0. -1.
</event>
<event>
 8    1  0.1163913E+005  0.1043930E+01  0.7957747E-01            NaN
         13   -1    0    0    0    0  0.00000000000E+00  0.00000000000E+00  0.74505805969E-08  0.10566000000E+00  0.10566000000E+00 0. -1.
     999900   -1    0    0    0    0 -0.00000000000E+00 -0.00000000000E+00 -0.74505805969E-08  0.93827000000E+00  0.93827000000E+00 0. -1.
     999902    2    1    2    0    0  0.21894676094E-01  0.25390252406E-02  0.77922325954E-02  0.10205517541E+01  0.10202839509E+01 0.  0.
     999903    2    3    3    0    0 -0.48614264127E-01  0.46868593207E-01  0.11031193979E+00  0.13069394999E+00  0.18766267543E-01 0.  0.
         14    1    1    2    0    0 -0.21894676094E-01 -0.25390252406E-02 -0.77922325954E-02  0.23378245855E-01  0.00000000000E+00 0. -1.
     999901    1    3    3    0    0  0.70508940221E-01 -0.44329567966E-01 -0.10251970720E+00  0.88985780415E+00  0.88000000000E+00 0. -1.
        -11    1    4    4    0    0 -0.44182170281E-01  0.32599103430E-01  0.90817801485E-01  0.10612681048E+00  0.51100000000E-03 0. -1.
         11    1    4    4    0    0 -0.44320938459E-02  0.14269489777E-01  0.19494138310E-01  0.24567139512E-01  0.51100000000E-03 0.  1.
</event>
<event>
 8    1  0.1163913E+005  0.1043930E+01  0.7957747E-01            NaN
         13   -1    0    0    0    0  0.00000000000E+00  0.00000000000E+00  0.74505805969E-08  0.10566000000E+00  0.10566000000E+00 0.  1.
     999900   -1    0    0    0    0 -0.00000000000E+00 -0.00000000000E+00 -0.74505805969E-08  0.93827000000E+00  0.93827000000E+00 0.  1.
     999902    2    1    2    0    0 -0.15415489106E-01  0.79730410803E-02  0.15138244888E-01  0.10209001683E+01  0.10206403777E+01 0.  0.
     999903    2    3    3    0    0 -0.11624800656E+00  0.53575370672E-01 -0.29168033452E-01  0.13286311092E+00  0.20442913102E-01 0.  0.
         14    1    1    2    0    0  0.15415489106E-01 -0.79730410803E-02 -0.15138244888E-01  0.23029831670E-01  0.00000000000E+00 0. -1.
     999901    1    3    3    0    0  0.10083251745E+00 -0.45602329592E-01  0.44306278340E-01  0.88803705741E+00  0.88000000000E+00 0. -1.
        -11    1    4    4    0    0 -0.70273632764E-01  0.22217301283E-01 -0.12404296428E-01  0.74740348066E-01  0.51100000000E-03 0. -1.
         11    1    4    4    0    0 -0.45974373792E-01  0.31358069389E-01 -0.16763737024E-01  0.58122762851E-01  0.51100000000E-03 0.  1.
</event>
<event>
 8    1  0.1163913E+005  0.1043930E+01  0.7957747E-01            NaN
         13   -1    0    0    0    0  0.00000000000E+00  0.00000000000E+00  0.74505805969E-08  0.10566000000E+00  0.10566000000E+00 0.  1.
     999900   -1    0    0    0    0 -0.00000000000E+00 -0.00000000000E+00 -0.74505805969E-08  0.93827000000E+00  0.93827000000E+00 0. -1.
     999902    2    1    2    0    0  0.52530948957E-02 -0.13285554124E-01 -0.15845024861E-01  0.10225953857E+01  0.10223728073E+01 0.  0.
     999903    2    3    3    0    0  0.18026538276E-01 -0.11044402564E+00 -0.73392796177E-01  0.13528784295E+00  0.19835801921E-01 0.  0.
         14    1    1    2    0    0 -0.52530948957E-02  0.13285554124E-01  0.15845024861E-01  0.21334614297E-01  0.00000000000E+00 0.  1.
     999901    1    3    3    0    0 -0.12773443380E-01  0.97158471514E-01  0.57547771316E-01  0.88730754275E+00  0.88000000000E+00 0.  1.
        -11    1    4    4    0    0 -0.87078003240E-03 -0.46747574508E-01 -0.36281233483E-01  0.59183469012E-01  0.51100000000E-03 0.  1.
         11    1    4    4    0    0  0.18897318308E-01 -0.63696451130E-01 -0.37111562694E-01  0.76104373937E-01  0.51100000000E-03 0. -1.
</event>
<event>
 8    1  0.1163913E+005  0.1043930E+01  0.7957747E-01            NaN
         13   -1    0    0    0    0  0.00000000000E+00  0.00000000000E+00  0.74505805969E-08  0.10566000000E+00  0.10566000000E+00 0.  1.
     999900   -1    0    0    0    0 -0.00000000000E+00 -0.00000000000E+00 -0.74505805969E-08  0.93827000000E+00  0.93827000000E+00 0.  1.
     999902    2    1    2    0    0  0.89389084855E-02  0.22330102061E-01 -0.72152053430E-02  0.10188183148E+01  0.10185087933E+01 0.  0.
     999903    2    3    3    0    0 -0.19520391949E-01  0.88357084293E-01  0.91573973445E-01  0.13037653510E+00  0.20596801808E-01 0.  0.
         14    1    1    2    0    0 -0.89389084855E-02 -0.22330102061E-01  0.72152053430E-02  0.25111685151E-01  0.00000000000E+00 0. -1.
     999901    1    3    3    0    0  0.28459300434E-01 -0.66026982232E-01 -0.98789178788E-01  0.88844177975E+00  0.88000000000E+00 0.  1.
        -11    1    4    4    0    0 -0.54095831504E-03  0.48549288074E-01  0.44360637038E-01  0.65768178078E-01  0.51100000000E-03 0.  1.
         11    1    4    4    0    0 -0.18979433634E-01  0.39807796220E-01  0.47213336408E-01  0.64608357019E-01  0.51100000000E-03 0. -1.
</event>
<event>
 8    1  0.1163913E+005  0.1043930E+01  0.7957747E-01            NaN
         13   -1    0    0    0    0  0.00000000000E+00  0.00000000000E+00  0.74505805969E-08  0.10566000000E+00  0.10566000000E+00 0.  1.
     999900   -1    0    0    0    0 -0.00000000000E+00 -0.00000000000E+00 -0.74505805969E-08  0.93827000000E+00  0.93827000000E+00 0.  1.
     999902    2    1    2    0    0 -0.19243957044E-01  0.11568055864E-01 -0.43551754720E-03  0.10214724962E+01  0.10212255976E+01 0.  0.
     999903    2    3    3    0    0  0.35963434176E-01 -0.89775959234E-01 -0.84488620658E-01  0.12996624861E+00  0.19995181982E-01 0.  0.
         14    1    1    2    0    0  0.19243957044E-01 -0.11568055864E-01  0.43551754720E-03  0.22457503750E-01  0.00000000000E+00 0. -1.
     999901    1    3    3    0    0 -0.55207391219E-01  0.10134401510E+00  0.84053103111E-01  0.89150624764E+00  0.88000000000E+00 0. -1.
        -11    1    4    4    0    0  0.11284536211E-01 -0.24393438669E-01 -0.35896748368E-01  0.44846608255E-01  0.51100000000E-03 0.  1.
         11    1    4    4    0    0  0.24678897964E-01 -0.65382520565E-01 -0.48591872290E-01  0.85119640353E-01  0.51100000000E-03 0. -1.
</event>
<event>
 8    1  0.1163913E+005  0.1043930E+01  0.7957747E-01            NaN
         13   -1    0    0    0    0  0.00000000000E+00  0.00000000000E+00  0.74505805969E-08  0.10566000000E+00  0.10566000000E+00 0. -1.
     999900   -1    0    0    0    0 -0.00000000000E+00 -0.00000000000E+00 -0.74505805969E-08  0.93827000000E+00  0.93827000000E+00 0. -1.
     999902    2    1    2    0    0  0.21699394921E-01 -0.23966463646E-02  0.26127168833E-02  0.10219428687E+01  0.10217063144E+01 0.  0.
     999903    2    3    3    0    0  0.11743401532E+00 -0.61853825303E-01 -0.11428658221E-01  0.13464504164E+00  0.19545571144E-01 0.  0.
         14    1    1    2    0    0 -0.21699394921E-01  0.23966463646E-02 -0.26127168833E-02  0.21987131310E-01  0.00000000000E+00 0.  1.
     999901    1    3    3    0    0 -0.95734620398E-01  0.59457178939E-01  0.14041375104E-01  0.88729782705E+00  0.88000000000E+00 0. -1.
        -11    1    4    4    0    0  0.85122147828E-01 -0.37355199839E-01 -0.14016170793E-01  0.94010133339E-01  0.51100000000E-03 0. -1.
         11    1    4    4    0    0  0.32311867491E-01 -0.24498625464E-01  0.25875125724E-02  0.40634908302E-01  0.51100000000E-03 0.  1.
</event>
<event>
 8    1  0.1163913E+005  0.1043930E+01  0.7957747E-01            NaN
         13   -1    0    0    0    0  0.00000000000E+00  0.00000000000E+00  0.74505805969E-08  0.10566000000E+00  0.10566000000E+00 0. -1.
     999900   -1    0    0    0    0 -0.00000000000E+00 -0.00000000000E+00 -0.74505805969E-08  0.93827000000E+00  0.93827000000E+00 0. -1.
     999902    2    1    2    0    0  0.38201595329E-02  0.16875525068E-01  0.16042281323E-01  0.10203348362E+01  0.10200619815E+01 0.  0.
     999903    2    3    3    0    0 -0.40599574368E-01  0.10859306733E+00 -0.58709605467E-01  0.13130555383E+00  0.18802951386E-01 0.  0.
         14    1    1    2    0    0 -0.38201595329E-02 -0.16875525068E-01 -0.16042281323E-01  0.23595163810E-01  0.00000000000E+00 0. -1.
     999901    1    3    3    0    0  0.44419733901E-01 -0.91717542262E-01  0.74751886790E-01  0.88902928236E+00  0.88000000000E+00 0.  1.
        -11    1    4    4    0    0 -0.18317170741E-01  0.43059241022E-01 -0.33854323608E-01  0.57758058566E-01  0.51100000000E-03 0. -1.
         11    1    4    4    0    0 -0.22282403627E-01  0.65533826308E-01 -0.24855281859E-01  0.73547495262E-01  0.51100000000E-03 0.  1.
</event>
<event>
 8    1  0.1163913E+005  0.1043930E+01  0.7957747E-01            NaN
         13   -1    0    0    0    0  0.00000000000E+00  0.00000000000E+00  0.74505805969E-08  0.10566000000E+00  0.10566000000E+00 0.  1.
     999900   -1    0    0    0    0 -0.00000000000E+00 -0.00000000000E+00 -0.74505805969E-08  0.93827000000E+00  0.93827000000E+00 0.  1.
     999902    2    1    2    0    0  0.22349360128E-01  0.25966380692E-01  0.74721148411E-02  0.10088646421E+01  0.10082550703E+01 0.  0.
     999903    2    3    3    0    0 -0.37649797698E-01 -0.48507764552E-01 -0.98552730802E-01  0.11735605261E+00  0.17008581549E-01 0.  0.
         14    1    1    2    0    0 -0.22349360128E-01 -0.25966380692E-01 -0.74721148411E-02  0.35065357898E-01  0.00000000000E+00 0. -1.
     999901    1    3    3    0    0  0.59999157826E-01  0.74474145244E-01  0.10602484564E+00  0.89150858949E+00  0.88000000000E+00 0. -1.
        -11    1    4    4    0    0 -0.14506787253E-01 -0.26418303948E-01 -0.60843265850E-01  0.67900940937E-01  0.51100000000E-03 0. -1.
         11    1    4    4    0    0 -0.23143010445E-01 -0.22089460604E-01 -0.37709464952E-01  0.49455111669E-01  0.51100000000E-03 0.  1.
</event>
<event>
 8    1  0.1163913E+005  0.1043930E+01  0.7957747E-01            NaN
         13   -1    0    0    0    0  0.00000000000E+00  0.00000000000E+00  0.74505805969E-08  0.10566000000E+00  0.10566000000E+00 0.  1.
     999900   -1    0    0    0    0 -0.00000000000E+00 -0.00000000000E+00 -0.74505805969E-08  0.93827000000E+00  0.93827000000E+00 0. -1.
     999902    2    1    2    0    0 -0.21874652104E-01 -0.58769654842E-02  0.49990832489E-02  0.10207345271E+01  0.10204709427E+01 0.  0.
     999903    2    3    3    0    0 -0.99948472493E-01 -0.14188881073E-01 -0.83803903900E-01  0.13278713011E+00  0.20452533164E-01 0.  0.
         14    1    1    2    0    0  0.21874652104E-01  0.58769654842E-02 -0.49990832489E-02  0.23195472862E-01  0.00000000000E+00 0.  1.
     999901    1    3    3    0    0  0.78073820389E-01  0.83119155887E-02  0.88802987149E-01  0.88794739703E+00  0.88000000000E+00 0.  1.
        -11    1    4    4    0    0 -0.72394691835E-01 -0.11087206154E-01 -0.48287831381E-01  0.87726240810E-01  0.51100000000E-03 0.  1.
         11    1    4    4    0    0 -0.27553780658E-01 -0.31016749185E-02 -0.35516072520E-01  0.45060889296E-01  0.51100000000E-03 0. -1.
</event>
<event>
 7    1  0.1163913E+005  0.1043930E+01  0.7957747E-01            NaN
         13   -1    0    0    0    0  0.00000000000E+00  0.00000000000E+00  0.74505805969E-08  0.10566000000E+00  0.10566000000E+00 0. -1.
     999900   -1    0    0    0    0 -0.00000000000E+00 -0.00000000000E+00 -0.74505805969E-08  0.93827000000E+00  0.93827000000E+00 0. -1.
     999903    2    1    2    0    0  0.44730433303E-01 -0.76750854453E-01 -0.80173046255E-01  0.12113863392E+00  0.18850622235E-01 0.  0.
         14    1    1    2    0    0 -0.55751264334E-02  0.14669721809E-01  0.35259586342E-01  0.38594315666E-01  0.00000000000E+00 0. -1.
     999901    1    1    2    0    0 -0.39155306870E-01  0.62081132643E-01  0.44913459913E-01  0.88419705042E+00  0.88000000000E+00 0.  1.
        -11    1    3    3    0    0  0.29057408713E-01 -0.33005828254E-01 -0.33571698578E-01  0.55326646078E-01  0.51100000000E-03 0. -1.
         11    1    3    3    0    0  0.15673024590E-01 -0.43745026199E-01 -0.46601347677E-01  0.65811987838E-01  0.51100000000E-03 0.  1.
</event>
<event>
 8    1  0.1163913E+005  0.1043930E+01  0.7957747E-01            NaN
         13   -1    0    0    0    0  0.00000000000E+00  0.00000000000E+00  0.74505805969E-08  0.10566000000E+00  0.10566000000E+00 0. -1.
     999900   -1    0    0    0    0 -0.00000000000E+00 -0.00000000000E+00 -0.74505805969E-08  0.93827000000E+00  0.93827000000E+00 0.  1.
     999902    2    1    2    0    0  0.21387750398E-01  0.51727570601E-02 -0.12587381711E-01  0.10185797444E+01  0.10182642389E+01 0.  0.
     999903    2    3    3    0    0  0.10424236027E+00 -0.76678232117E-01  0.52528969953E-02  0.13072685883E+00  0.17773512224E-01 0.  0.
         14    1    1    2    0    0 -0.21387750398E-01 -0.51727570601E-02  0.12587381711E-01  0.25350255640E-01  0.00000000000E+00 0. -1.
     999901    1    3    3    0    0 -0.82854609870E-01  0.81850989177E-01 -0.17840278706E-01  0.88785288553E+00  0.88000000000E+00 0.  1.
        -11    1    4    4    0    0  0.40689769712E-01 -0.39643519866E-01 -0.17348424783E-02  0.56837811587E-01  0.51100000000E-03 0. -1.
         11    1    4    4    0    0  0.63552590557E-01 -0.37034712251E-01  0.69877394736E-02  0.73889047239E-01  0.51100000000E-03 0.  1.
</event>
<event>
 8    1  0.1163913E+005  0.1043930E+01  0.7957747E-01            NaN
         13   -1    0    0    0    0  0.00000000000E+00  0.00000000000E+00  0.74505805969E-08  0.10566000000E+00  0.10566000000E+00 0.  1.
     999900   -1    0    0    0    0 -0.00000000000E+00 -0.00000000000E+00 -0.74505805969E-08  0.93827000000E+00  0.93827000000E+00 0.  1.
     999902    2    1    2    0    0  0.45199259058E-02  0.24040135283E-01 -0.10490934348E-01  0.10173138857E+01  0.10169656457E+01 0.  0.
     999903    2    3    3    0    0 -0.33805701367E-01 -0.83197061340E-01 -0.86771007992E-01  0.12670324148E+00  0.21445911318E-01 0.  0.
         14    1    1    2    0    0 -0.45199259058E-02 -0.24040135283E-01  0.10490934348E-01  0.26616114257E-01  0.00000000000E+00 0.  1.
     999901    1    3    3    0    0  0.38325627273E-01  0.10723719662E+00  0.76280073644E-01  0.89061064427E+00  0.88000000000E+00 0. -1.
        -11    1    4    4    0    0 -0.11499886130E-02 -0.20342244223E-01 -0.11748018427E-01  0.23524592065E-01  0.51100000000E-03 0. -1.
         11    1    4    4    0    0 -0.32655712754E-01 -0.62854817116E-01 -0.75022989565E-01  0.10317864941E+00  0.51100000000E-03 0.  1.
</event>
<event>
 8    1  0.1163913E+005  0.1043930E+01  0.7957747E-01            NaN
         13   -1    0    0    0    0  0.00000000000E+00  0.00000000000E+00  0.74505805969E-08  0.10566000000E+00  0.10566000000E+00 0. -1.
     999900   -1    0    0    0    0 -0.00000000000E+00 -0.00000000000E+00 -0.74505805969E-08  0.93827000000E+00  0.93827000000E+00 0.  1.
     999902    2    1    2    0    0  0.11914600884E-01 -0.53226480434E-03 -0.20754104059E-01  0.10199931277E+01  0.10197122176E+01 0.  0.
     999903    2    3    3    0    0 -0.10413155553E+00 -0.54938490489E-01  0.49416849914E-01  0.12794452444E+00  0.81337373560E-02 0.  0.
         14    1    1    2    0    0 -0.11914600884E-01  0.53226480434E-03  0.20754104059E-01  0.23936872296E-01  0.00000000000E+00 0. -1.
     999901    1    3    3    0    0  0.11604615641E+00  0.54406225684E-01 -0.70170953973E-01  0.89204860327E+00  0.88000000000E+00 0.  1.
        -11    1    4    4    0    0 -0.67911284339E-01 -0.39391679982E-01  0.35194093113E-01  0.86037970126E-01  0.51100000000E-03 0. -1.
         11    1    4    4    0    0 -0.36220271191E-01 -0.15546810506E-01  0.14222756802E-01  0.41906554310E-01  0.51100000000E-03 0.  1.
</event>
<event>
 8    1  0.1163913E+005  0.1043930E+01  0.7957747E-01            NaN
         13   -1    0    0    0    0  0.00000000000E+00  0.00000000000E+00  0.74505805969E-08  0.10566000000E+00  0.10566000000E+00 0. -1.
     999900   -1    0    0    0    0 -0.00000000000E+00 -0.00000000000E+00 -0.74505805969E-08  0.93827000000E+00  0.93827000000E+00 0.  1.
     999902    2    1    2    0    0  0.17265285552E-01  0.14841308269E-01  0.17602129613E-02  0.10210946575E+01  0.10208392855E+01 0.  0.
     999903    2    3    3    0    0  0.12890920099E+00 -0.26197044758E-01  0.73236654480E-03  0.13309152310E+00  0.20222509922E-01 0.  0.
         14    1    1    2    0    0 -0.17265285552E-01 -0.14841308269E-01 -0.17602129613E-02  0.22835342476E-01  0.00000000000E+00 0. -1.
     999901    1    3    3    0    0 -0.11164391544E+00  0.41038353027E-01  0.10278464165E-02  0.88800313442E+00  0.88000000000E+00 0.  1.
        -11    1    4    4    0    0  0.27814697806E-01 -0.11321325317E-01 -0.62155017488E-02  0.30671214582E-01  0.51100000000E-03 0.  1.
         11    1    4    4    0    0  0.10109450318E+00 -0.14875719442E-01  0.69478682936E-02  0.10242030852E+00  0.51100000000E-03 0. -1.
</event>
<event>
 8    1  0.1163913E+005  0.1043930E+01  0.7957747E-01            NaN
         13   -1    0    0    0    0  0.00000000000E+00  0.00000000000E+00  0.74505805969E-08  0.10566000000E+00  0.10566000000E+00 0. -1.
     999900   -1    0    0    0    0 -0.00000000000E+00 -0.00000000000E+00 -0.74505805969E-08  0.93827000000E+00  0.93827000000E+00 0. -1.
     999902    2    1    2    0    0 -0.21756179956E-01  0.85296061081E-02  0.76862442920E-02  0.10193299208E+01  0.10190330336E+01 0.  0.
     999903    2    3    3    0    0  0.11657731710E+00  0.35195148616E-01 -0.31689645932E-01  0.12725499774E+00  0.18990298652E-01 0.  0.
         14    1    1    2    0    0  0.21756179956E-01 -0.85296061081E-02 -0.76862442920E-02  0.24600079227E-01  0.00000000000E+00 0. -1.
     999901    1    3    3    0    0 -0.13833349706E+00 -0.26665542508E-01  0.39375890224E-01  0.89207492303E+00  0.88000000000E+00 0. -1.
        -11    1    4    4    0    0  0.89621851258E-02  0.58260955502E-02 -0.76161193959E-02  0.13135088399E-01  0.51100000000E-03 0. -1.
         11    1    4    4    0    0  0.10761513198E+00  0.29369053066E-01 -0.24073526536E-01  0.11411990935E+00  0.51100000000E-03 0.  1.
</event>
<event>
 8    1  0.1163913E+005  0.1043930E+01  0.7957747E-01            NaN
         13   -1    0    0    0    0  0.00000000000E+00  0.00000000000E+00  0.74505805969E-08  0.10566000000E+00  0.10566000000E+00 0.  1.
     999900   -1    0    0    0    0 -0.00000000000E+00 -0.00000000000E+00 -0.74505805969E-08  0.93827000000E+00  0.93827000000E+00 0.  1.
     999902    2    1    2    0    0 -0.15954054959E-01 -0.30774745333E-02 -0.13893213663E-01  0.10225518779E+01  0.10223283811E+01 0.  0.
     999903    2    3    3    0    0 -0.20146488212E-01 -0.36724599918E-01 -0.12670095190E+00  0.13470319070E+00  0.18364126565E-01 0.  0.
         14    1    1    2    0    0  0.15954054959E-01  0.30774745333E-02  0.13893213663E-01  0.21378122111E-01  0.00000000000E+00 0.  1.
     999901    1    3    3    0    0  0.41924332534E-02  0.33647125385E-01  0.11280773824E+00  0.88784868719E+00  0.88000000000E+00 0. -1.
        -11    1    4    4    0    0 -0.23518800040E-01 -0.29955085233E-01 -0.10828156060E+00  0.11478501023E+00  0.51100000000E-03 0. -1.
         11    1    4    4    0    0  0.33723118279E-02 -0.67695146854E-02 -0.18419391304E-01  0.19918180468E-01  0.51100000000E-03 0.  1.
</event>
<event>
 8    1  0.1163913E+005  0.1043930E+01  0.7957747E-01            NaN
         13   -1    0    0    0    0  0.00000000000E+00  0.00000000000E+00  0.74505805969E-08  0.10566000000E+00  0.10566000000E+00 0. -1.
     999900   -1    0    0    0    0 -0.00000000000E+00 -0.00000000000E+00 -0.74505805969E-08  0.93827000000E+00  0.93827000000E+00 0.  1.
     999902    2    1    2    0    0 -0.14766609765E-01  0.14852843437E-01  0.14411580123E-02  0.10229362710E+01  0.10227208211E+01 0.  0.
     999903    2    3    3    0    0  0.92215587361E-01  0.91569692620E-01 -0.18167421168E-01  0.13292775313E+00  0.21236977231E-01 0.  0.
         14    1    1    2    0    0  0.14766609765E-01 -0.14852843437E-01 -0.14411580123E-02  0.20993729028E-01  0.00000000000E+00 0. -1.
     999901    1    3    3    0    0 -0.10698219713E+00 -0.76716849183E-01  0.19608579181E-01  0.89000851784E+00  0.88000000000E+00 0.  1.
        -11    1    4    4    0    0  0.88674737096E-01  0.79999658005E-01 -0.14701203338E-01  0.12033096352E+00  0.51100000000E-03 0. -1.
         11    1    4    4    0    0  0.35408502648E-02  0.11570034615E-01 -0.34662178308E-02  0.12596789616E-01  0.51100000000E-03 0.  1.
</event>
<event>
 8    1  0.1163913E+005  0.1043930E+01  0.7957747E-01            NaN
         13   -1    0    0    0    0  0.00000000000E+00  0.00000000000E+00  0.74505805969E-08  0.10566000000E+00  0.10566000000E+00 0. -1.
     999900   -1    0    0    0    0 -0.00000000000E+00 -0.00000000000E+00 -0.74505805969E-08  0.93827000000E+00  0.93827000000E+00 0. -1.
     999902    2    1    2    0    0 -0.17244568973E-01  0.13775710659E-01 -0.85723604804E-02  0.10202523581E+01  0.10199775701E+01 0.  0.
     999903    2    3    3    0    0 -0.36613952098E-01 -0.80981866708E-02 -0.12509412118E+00  0.13209079557E+00  0.19831212863E-01 0.  0.
         14    1    1    2    0    0  0.17244568973E-01 -0.13775710659E-01  0.85723604804E-02  0.23677641931E-01  0.00000000000E+00 0. -1.
     999901    1    3    3    0    0  0.19369383125E-01  0.21873897330E-01  0.11652176070E+00  0.88816156250E+00  0.88000000000E+00 0.  1.
        -11    1    4    4    0    0 -0.21919128529E-01 -0.97431601770E-02 -0.10104945539E+00  0.10385870652E+00  0.51100000000E-03 0. -1.
         11    1    4    4    0    0 -0.14694823570E-01  0.16449735062E-02 -0.24044665795E-01  0.28232089044E-01  0.51100000000E-03 0.  1.
</event>
<event>
 8    1  0.1163913E+005  0.1043930E+01  0.7957747E-01            NaN
         13   -1    0    0    0    0  0.00000000000E+00  0.00000000000E+00  0.74505805969E-08  0.10566000000E+00  0.10566000000E+00 0. -1.
     999900   -1    0    0    0    0 -0.00000000000E+00 -0.00000000000E+00 -0.74505805969E-08  0.93827000000E+00  0.93827000000E+00 0.  1.
     999902    2    1    2    0    0  0.14665382588E-01  0.65334071287E-02 -0.17623845067E-01  0.10200897238E+01  0.10198111030E+01 0.  0.
     999903    2    3    3    0    0  0.83853502070E-01 -0.20453597862E-01  0.95174834941E-01  0.12978705810E+00  0.18348617616E-01 0.  0.
         14    1    1    2    0    0 -0.14665382588E-01 -0.65334071287E-02  0.17623845067E-01  0.23840276218E-01  0.00000000000E+00 0. -1.
     999901    1    3    3    0    0 -0.69188119482E-01  0.26987004991E-01 -0.11279868001E+00  0.89030266569E+00  0.88000000000E+00 0.  1.
        -11    1    4    4    0    0  0.84701495825E-01 -0.20321829221E-01  0.94738314791E-01  0.12869704561E+00  0.51100000000E-03 0. -1.
         11    1    4    4    0    0 -0.84799375484E-03 -0.13176864071E-03  0.43652014967E-03  0.10900124880E-02  0.51100000000E-03 0.  1.
</event>
<event>
 8    1  0.1163913E+005  0.1043930E+01  0.7957747E-01            NaN
         13   -1    0    0    0    0  0.00000000000E+00  0.00000000000E+00  0.74505805969E-08  0.10566000000E+00  0.10566000000E+00 0.  1.
     999900   -1    0    0    0    0 -0.00000000000E+00 -0.00000000000E+00 -0.74505805969E-08  0.93827000000E+00  0.93827000000E+00 0. -1.
     999902    2    1    2    0    0  0.17776751365E-01 -0.15435136243E-01  0.18362024301E-02  0.10203158526E+01  0.10200425535E+01 0.  0.
     999903    2    3    3    0    0  0.57774178285E-01  0.10125691406E+00 -0.53701821149E-01  0.12997810719E+00  0.20484248414E-01 0.  0.
         14    1    1    2    0    0 -0.17776751365E-01  0.15435136243E-01 -0.18362024301E-02  0.23614147440E-01  0.00000000000E+00 0. -1.
     999901    1    3    3    0    0 -0.39997426920E-01 -0.11669205030E+00  0.55538023579E-01  0.89033774537E+00  0.88000000000E+00 0.  1.
        -11    1    4    4    0    0  0.49895391011E-01  0.73835527625E-01 -0.34382004119E-01  0.95517634561E-01  0.51100000000E-03 0.  1.
         11    1    4    4    0    0  0.78787872741E-02  0.27421386434E-01 -0.19319817030E-01  0.34460472631E-01  0.51100000000E-03 0. -1.
</event>
<event>
 8    1  0.1163913E+005  0.1043930E+01  0.7957747E-01            NaN
         13   -1    0    0    0    0  0.00000000000E+00  0.00000000000E+00  0.74505805969E-08  0.10566000000E+00  0.10566000000E+00 0. -1.
     999900   -1    0    0    0    0 -0.00000000000E+00 -0.00000000000E+00 -0.74505805969E-08  0.93827000000E+00  0.93827000000E+00 0.  1.
     999902    2    1    2    0    0  0.14069217020E-01  0.18222862535E-01  0.65320393377E-02  0.10199992013E+01  0.10197184355E+01 0.  0.
     999903    2    3    3    0    0 -0.11026289245E+00  0.57772027087E-01  0.31698187776E-01  0.13002395175E+00  0.20147961576E-01 0.  0.
         14    1    1    2    0    0 -0.14069217020E-01 -0.18222862535E-01 -0.65320393377E-02  0.23930798658E-01  0.00000000000E+00 0.  1.
     999901    1    3    3    0    0  0.12433210947E+00 -0.39549164552E-01 -0.25166148438E-01  0.88997524959E+00  0.88000000000E+00 0.  1.
        -11    1    4    4    0    0 -0.61356644161E-02 -0.10374911275E-02  0.34946136014E-02  0.71551527510E-02  0.51100000000E-03 0.  1.
         11    1    4    4    0    0 -0.10412722803E+00  0.58809518215E-01  0.28203574174E-01  0.12286879900E+00  0.51100000000E-03 0. -1.
</event>
<event>
 7    1  0.1163913E+005  0.1043930E+01  0.7957747E-01            NaN
         13   -1    0    0    0    0  0.00000000000E+00  0.00000000000E+00  0.74505805969E-08  0.10566000000E+00  0.10566000000E+00 0.  1.
     999900   -1    0    0    0    0 -0.00000000000E+00 -0.00000000000E+00 -0.74505805969E-08  0.93827000000E+00  0.93827000000E+00 0. -1.
     999903    2    1    2    0    0 -0.93596045091E-01  0.48891118994E-01  0.40649986297E-01  0.11408045685E+00  0.14538503212E-01 0.  0.
         14    1    1    2    0    0  0.58689888826E-02 -0.78792552129E-02  0.39700710542E-01  0.40898338729E-01  0.00000000000E+00 0.  1.
     999901    1    1    2    0    0  0.87727056209E-01 -0.41011863781E-01 -0.80350696839E-01  0.88895120442E+00  0.88000000000E+00 0. -1.
        -11    1    3    3    0    0 -0.35685843340E-01  0.24291030454E-01  0.21999403476E-01  0.48453776424E-01  0.51100000000E-03 0.  1.
         11    1    3    3    0    0 -0.57910201751E-01  0.24600088540E-01  0.18650582821E-01  0.65626680425E-01  0.51100000000E-03 0. -1.
</event>
<event>
 8    1  0.1163913E+005  0.1043930E+01  0.7957747E-01            NaN
         13   -1    0    0    0    0  0.00000000000E+00  0.00000000000E+00  0.74505805969E-08  0.10566000000E+00  0.10566000000E+00 0.  1.
     999900   -1    0    0    0    0 -0.00000000000E+00 -0.00000000000E+00 -0.74505805969E-08  0.93827000000E+00  0.93827000000E+00 0.  1.
     999902    2    1    2    0    0  0.92706132239E-02 -0.20154088491E-01  0.40626283807E-02  0.10213770290E+01  0.10211280032E+01 0.  0.
     999903    2    3    3    0    0 -0.28120012419E-01 -0.45971117703E-01  0.11957667073E+00  0.13266556182E+00  0.19937210159E-01 0.  0.
         14    1    1    2    0    0 -0.92706132239E-02  0.20154088491E-01 -0.40626283807E-02  0.22552971020E-01  0.00000000000E+00 0.  1.
     999901    1    3    3    0    0  0.37390625643E-01  0.25817029212E-01 -0.11551404235E+00  0.88871146716E+00  0.88000000000E+00 0.  1.
        -11    1    4    4    0    0 -0.15757533057E-01 -0.40549862592E-01  0.97779410026E-01  0.10702179848E+00  0.51100000000E-03 0. -1.
         11    1    4    4    0    0 -0.12362479362E-01 -0.54212551110E-02  0.21797260703E-01  0.25643763338E-01  0.51100000000E-03 0.  1.
</event>
<event>
 8    1  0.1163913E+005  0.1043930E+01  0.7957747E-01            NaN
         13   -1    0    0    0    0  0.00000000000E+00  0.00000000000E+00  0.74505805969E-08  0.10566000000E+00  0.10566000000E+00 0.  1.
     999900   -1    0    0    0    0 -0.00000000000E+00 -0.00000000000E+00 -0.74505805969E-08  0.93827000000E+00  0.93827000000E+00 0. -1.
     999902    2    1    2    0    0 -0.16084288188E-01  0.88310267330E-02 -0.13944170869E-01  0.10208837148E+01  0.10206235486E+01 0.  0.
     999903    2    3    3    0    0  0.90205125115E-01 -0.47263918546E-01 -0.78612337907E-01  0.13036361167E+00  0.21069622312E-01 0.  0.
         14    1    1    2    0    0  0.16084288188E-01 -0.88310267330E-02  0.13944170869E-01  0.23046285187E-01  0.00000000000E+00 0.  1.
     999901    1    3    3    0    0 -0.10628941330E+00  0.56094945279E-01  0.64668167038E-01  0.89052010314E+00  0.88000000000E+00 0. -1.
        -11    1    4    4    0    0  0.23093571264E-01 -0.88400991215E-02 -0.30566376861E-01  0.39319523161E-01  0.51100000000E-03 0.  1.
         11    1    4    4    0    0  0.67111553851E-01 -0.38423819424E-01 -0.48045961046E-01  0.91044088513E-01  0.51100000000E-03 0. -1.
</event>
<event>
 8    1  0.1163913E+005  0.1043930E+01  0.7957747E-01            NaN
         13   -1    0    0    0    0  0.00000000000E+00  0.00000000000E+00  0.74505805969E-08  0.10566000000E+00  0.10566000000E+00 0. -1.
     999900   -1    0    0    0    0 -0.00000000000E+00 -0.00000000000E+00 -0.74505805969E-08  0.93827000000E+00  0.93827000000E+00 0.  1.
     999902    2    1    2    0    0 -0.74046949205E-02  0.22201086468E-01 -0.19126246645E-02  0.10204486057E+01  0.10201784064E+01 0.  0.
     999903    2    3    3    0    0 -0.26619916500E-01 -0.39922842722E-01  0.11841027485E+00  0.12988349997E+00  0.23372570435E-01 0.  0.
         14    1    1    2    0    0  0.74046949205E-02 -0.22201086468E-01  0.19126246645E-02  0.23481394344E-01  0.00000000000E+00 0. -1.
     999901    1    3    3    0    0  0.19215221579E-01  0.62123929190E-01 -0.12032289952E+00  0.89056510569E+00  0.88000000000E+00 0. -1.
        -11    1    4    4    0    0 -0.27642795321E-01 -0.28894452121E-01  0.74050508901E-01  0.84159090335E-01  0.51100000000E-03 0.  1.
         11    1    4    4    0    0  0.10228788214E-02 -0.11028390602E-01  0.44359765950E-01  0.45724409635E-01  0.51100000000E-03 0. -1.
</event>
<event>
 8    1  0.1163913E+005  0.1043930E+01  0.7957747E-01            NaN
         13   -1    0    0    0    0  0.00000000000E+00  0.00000000000E+00  0.74505805969E-08  0.10566000000E+00  0.10566000000E+00 0. -1.
     999900   -1    0    0    0    0 -0.00000000000E+00 -0.00000000000E+00 -0.74505805969E-08  0.93827000000E+00  0.93827000000E+00 0.  1.
     999902    2    1    2    0    0 -0.10146824704E-01  0.20640376748E-01 -0.12532688110E-02  0.10208962446E+01  0.10206363644E+01 0.  0.
     999903    2    3    3    0    0 -0.63734243500E-01  0.11327368965E+00  0.11458697803E-01  0.13432186184E+00  0.31907338544E-01 0.  0.
         14    1    1    2    0    0  0.10146824704E-01 -0.20640376748E-01  0.12532688110E-02  0.23033755373E-01  0.00000000000E+00 0.  1.
     999901    1    3    3    0    0  0.53587418795E-01 -0.92633312900E-01 -0.12711966614E-01  0.88657438278E+00  0.88000000000E+00 0. -1.
        -11    1    4    4    0    0 -0.56839973046E-01  0.10731652959E+00  0.24016943088E-02  0.12146460108E+00  0.51100000000E-03 0. -1.
         11    1    4    4    0    0 -0.68942704534E-02  0.59571600570E-02  0.90570034937E-02  0.12857260762E-01  0.51100000000E-03 0.  1.
</event>
<event>
 8    1  0.1163913E+005  0.1043930E+01  0.7957747E-01            NaN
         13   -1    0    0    0    0  0.00000000000E+00  0.00000000000E+00  0.74505805969E-08  0.10566000000E+00  0.10566000000E+00 0. -1.
     999900   -1    0    0    0    0 -0.00000000000E+00 -0.00000000000E+00 -0.74505805969E-08  0.93827000000E+00  0.93827000000E+00 0. -1.
     999902    2    1    2    0    0  0.64216103187E-03 -0.18439609525E-01  0.13862805990E-01  0.10208516777E+01  0.10205907794E+01 0.  0.
     999903    2    3    3    0    0 -0.11514696480E+00 -0.25078785022E-01 -0.51277770861E-01  0.13085477037E+00  0.24612845878E-01 0.  0.
         14    1    1    2    0    0 -0.64216103187E-03  0.18439609525E-01 -0.13862805990E-01  0.23078322299E-01  0.00000000000E+00 0.  1.
     999901    1    3    3    0    0  0.11578912583E+00  0.66391754970E-02  0.65140576851E-01  0.88999690733E+00  0.88000000000E+00 0.  1.
        -11    1    4    4    0    0 -0.37954550859E-01 -0.20172804770E-01 -0.20199625110E-01  0.47495009830E-01  0.51100000000E-03 0.  1.
         11    1    4    4    0    0 -0.77192413941E-01 -0.49059802522E-02 -0.31078145751E-01  0.83359760536E-01  0.51100000000E-03 0. -1.
</event>
<event>
 8    1  0.1163913E+005  0.1043930E+01  0.7957747E-01            NaN
         13   -1    0    0    0    0  0.00000000000E+00  0.00000000000E+00  0.74505805969E-08  0.10566000000E+00  0.10566000000E+00 0.  1.
     999900   -1    0    0    0    0 -0.00000000000E+00 -0.00000000000E+00 -0.74505805969E-08  0.93827000000E+00  0.93827000000E+00 0. -1.
     999902    2    1    2    0    0  0.77862602733E-02  0.18847897317E-01 -0.13301845118E-01  0.10195823478E+01  0.10192915951E+01 0.  0.
     999903    2    3    3    0    0 -0.39807339930E-01  0.45693531099E-01 -0.11560877487E+00  0.13197176503E+00  0.19458541611E-01 0.  0.
         14    1    1    2    0    0 -0.77862602733E-02 -0.18847897317E-01  0.13301845118E-01  0.24347652163E-01  0.00000000000E+00 0.  1.
     999901    1    3    3    0    0  0.47593600203E-01 -0.26845633783E-01  0.10230692975E+00  0.88761058281E+00  0.88000000000E+00 0.  1.
        -11    1    4    4    0    0 -0.30245854089E-01  0.26274672933E-01 -0.58587836931E-01  0.70978629773E-01  0.51100000000E-03 0.  1.
         11    1    4    4    0    0 -0.95614858416E-02  0.19418858166E-01 -0.57020937941E-01  0.60993135258E-01  0.51100000000E-03 0. -1.
</event>
<event>
 8    1  0.1163913E+005  0.1043930E+01  0.7957747E-01            NaN
         13   -1    0    0    0    0  0.00000000000E+00  0.00000000000E+00  0.74505805969E-08  0.10566000000E+00  0.10566000000E+00 0. -1.
     999900   -1    0    0    0    0 -0.00000000000E+00 -0.00000000000E+00 -0.74505805969E-08  0.93827000000E+00  0.93827000000E+00 0.  1.
     999902    2    1    2    0    0 -0.64830368911E-02 -0.20052749161E-01 -0.78606684892E-02  0.10214370539E+01  0.10211893666E+01 0.  0.
     999903    2    3    3    0    0  0.72093522061E-01  0.32886158023E-01  0.10071584869E+00  0.12971643418E+00  0.20092182728E-01 0.  0.
         14    1    1    2    0    0  0.64830368911E-02  0.20052749161E-01  0.78606684892E-02  0.22492946124E-01  0.00000000000E+00 0.  1.
     999901    1    3    3    0    0 -0.78576558952E-01 -0.52938907184E-01 -0.10857651718E+00  0.89172061970E+00  0.88000000000E+00 0. -1.
        -11    1    4    4    0    0  0.68372941679E-01  0.29799244426E-01  0.10007599532E+00  0.12481314067E+00  0.51100000000E-03 0. -1.
         11    1    4    4    0    0  0.37205803821E-02  0.30869135964E-02  0.63985336227E-03  0.49032935112E-02  0.51100000000E-03 0.  1.
</event>
<event>
 8    1  0.1163913E+005  0.1043930E+01  0.7957747E-01            NaN
         13   -1    0    0    0    0  0.00000000000E+00  0.00000000000E+00  0.74505805969E-08  0.10566000000E+00  0.10566000000E+00 0.  1.
     999900   -1    0    0    0    0 -0.00000000000E+00 -0.00000000000E+00 -0.74505805969E-08  0.93827000000E+00  0.93827000000E+00 0.  1.
     999902    2    1    2    0    0  0.17407486079E-02 -0.16010961614E-01 -0.17931011793E-01  0.10198280855E+01  0.10195432417E+01 0.  0.
     999903    2    3    3    0    0  0.24961944869E-01  0.10100817086E-01  0.12363866757E+00  0.12782863314E+00  0.18124958862E-01 0.  0.
         14    1    1    2    0    0 -0.17407486079E-02  0.16010961614E-01  0.17931011793E-01  0.24101914476E-01  0.00000000000E+00 0.  1.
     999901    1    3    3    0    0 -0.23221196261E-01 -0.26111778699E-01 -0.14156967936E+00  0.89199945239E+00  0.88000000000E+00 0.  1.
        -11    1    4    4    0    0  0.20497886006E-01  0.14165432082E-01  0.80581773526E-01  0.84347531928E-01  0.51100000000E-03 0. -1.
         11    1    4    4    0    0  0.44640588626E-02 -0.40646149964E-02  0.43056894044E-01  0.43481101209E-01  0.51100000000E-03 0.  1.
</event>
<event>
 8    1  0.1163913E+005  0.1043930E+01  0.7957747E-01            NaN
         13   -1    0    0    0    0  0.00000000000E+00  0.00000000000E+00  0.74505805969E-08  0.10566000000E+00  0.10566000000E+00 0.  1.
     999900   -1    0    0    0    0 -0.00000000000E+00 -0.00000000000E+00 -0.74505805969E-08  0.93827000000E+00  0.93827000000E+00 0. -1.
     999902    2    1    2    0    0  0.17499714536E-01  0.12178293184E-01 -0.12572717278E-01  0.10191787565E+01  0.10188781643E+01 0.  0.
     999903    2    3    3    0    0 -0.34154366089E-01 -0.85687270148E-01 -0.87834663509E-01  0.12906068959E+00  0.20806357111E-01 0.  0.
         14    1    1    2    0    0 -0.17499714536E-01 -0.12178293184E-01  0.12572717278E-01  0.24751243473E-01  0.00000000000E+00 0. -1.
     999901    1    3    3    0    0  0.51654080625E-01  0.97865563332E-01  0.75261946230E-01  0.89011806693E+00  0.88000000000E+00 0. -1.
        -11    1    4    4    0    0 -0.25592920044E-01 -0.41062285624E-01 -0.53281193629E-01  0.71973992335E-01  0.51100000000E-03 0.  1.
         11    1    4    4    0    0 -0.85614460443E-02 -0.44624984524E-01 -0.34553469879E-01  0.57086697258E-01  0.51100000000E-03 0. -1.
</event>
<event>
 8    1  0.1163913E+005  0.1043930E+01  0.7957747E-01            NaN
         13   -1    0    0    0    0  0.00000000000E+00  0.00000000000E+00  0.74505805969E-08  0.10566000000E+00  0.10566000000E+00 0. -1.
     999900   -1    0    0    0    0 -0.00000000000E+00 -0.00000000000E+00 -0.74505805969E-08  0.93827000000E+00  0.93827000000E+00 0.  1.
     999902    2    1    2    0    0 -0.44338051714E-02  0.12556800258E-01  0.18623394865E-01  0.10210354003E+01  0.10207786860E+01 0.  0.
     999903    2    3    3    0    0 -0.39726425166E-01  0.11763254519E+00 -0.40347196573E-01  0.13212369944E+00  0.20326611569E-01 0.  0.
         14    1    1    2    0    0  0.44338051714E-02 -0.12556800258E-01 -0.18623394865E-01  0.22894599741E-01  0.00000000000E+00 0.  1.
     999901    1    3    3    0    0  0.35292619994E-01 -0.10507574493E+00  0.58970591438E-01  0.88891170082E+00  0.88000000000E+00 0. -1.
        -11    1    4    4    0    0 -0.19990647683E-01  0.87244462953E-01 -0.26750240503E-01  0.93418728308E-01  0.51100000000E-03 0.  1.
         11    1    4    4    0    0 -0.19735777483E-01  0.30388082237E-01 -0.13596956070E-01  0.38704971131E-01  0.51100000000E-03 0. -1.
</event>
<event>
 8    1  0.1163913E+005  0.1043930E+01  0.7957747E-01            NaN
         13   -1    0    0    0    0  0.00000000000E+00  0.00000000000E+00  0.74505805969E-08  0.10566000000E+00  0.10566000000E+00 0.  1.
     999900   -1    0    0    0    0 -0.00000000000E+00 -0.00000000000E+00 -0.74505805969E-08  0.93827000000E+00  0.93827000000E+00 0. -1.
     999902    2    1    2    0    0  0.20812375256E-01  0.59307440037E-02  0.83969668591E-02  0.10207171212E+01  0.10204531365E+01 0.  0.
     999903    2    3    3    0    0  0.86562073316E-01 -0.94989609174E-01  0.24628765840E-01  0.13236391908E+00  0.19940225151E-01 0.  0.
         14    1    1    2    0    0 -0.20812375256E-01 -0.59307440037E-02 -0.83969668591E-02  0.23212878767E-01  0.00000000000E+00 0. -1.
     999901    1    3    3    0    0 -0.65749698060E-01  0.10092035318E+00 -0.16231798981E-01  0.88835320215E+00  0.88000000000E+00 0. -1.
        -11    1    4    4    0    0  0.29866142996E-01 -0.20861152279E-01  0.10929194711E-01  0.38037909905E-01  0.51100000000E-03 0.  1.
         11    1    4    4    0    0  0.56695930320E-01 -0.74128456895E-01  0.13699571128E-01  0.94326009173E-01  0.51100000000E-03 0. -1.
</event>
<event>
 8    1  0.1163913E+005  0.1043930E+01  0.7957747E-01            NaN
         13   -1    0    0    0    0  0.00000000000E+00  0.00000000000E+00  0.74505805969E-08  0.10566000000E+00  0.10566000000E+00 0.  1.
     999900   -1    0    0    0    0 -0.00000000000E+00 -0.00000000000E+00 -0.74505805969E-08  0.93827000000E+00  0.93827000000E+00 0.  1.
     999902    2    1    2    0    0 -0.10493795735E-01 -0.26797197361E-01 -0.39916463544E-02  0.10148758647E+01  0.10144598947E+01 0.  0.
     999903    2    3    3    0    0 -0.89046144775E-02  0.66424409136E-02  0.12314209242E+00  0.12510975927E+00  0.19106615571E-01 0.  0.
         14    1    1    2    0    0  0.10493795735E-01  0.26797197361E-01  0.39916463544E-02  0.29054135264E-01  0.00000000000E+00 0. -1.
     999901    1    3    3    0    0 -0.15891812578E-02 -0.33439638274E-01 -0.12713373877E+00  0.88976610547E+00  0.88000000000E+00 0.  1.
        -11    1    4    4    0    0  0.58601381577E-02  0.39296160256E-02  0.40879669702E-01  0.41487246442E-01  0.51100000000E-03 0. -1.
         11    1    4    4    0    0 -0.14764752635E-01  0.27128248880E-02  0.82262422716E-01  0.83622512826E-01  0.51100000000E-03 0.  1.
</event>
<event>
 8    1  0.1163913E+005  0.1043930E+01  0.7957747E-01            NaN
         13   -1    0    0    0    0  0.00000000000E+00  0.00000000000E+00  0.74505805969E-08  0.10566000000E+00  0.10566000000E+00 0. -1.
     999900   -1    0    0    0    0 -0.00000000000E+00 -0.00000000000E+00 -0.74505805969E-08  0.93827000000E+00  0.93827000000E+00 0.  1.
     999902    2    1    2    0    0  0.15325519002E-01  0.76723562173E-02  0.15993472468E-01  0.10204879919E+01  0.10202187088E+01 0.  0.
     999903    2    3    3    0    0  0.41178378934E-01 -0.17578719982E-01 -0.11965076248E+00  0.12936210534E+00  0.20336642983E-01 0.  0.
         14    1    1    2    0    0 -0.15325519002E-01 -0.76723562173E-02 -0.15993472468E-01  0.23442008109E-01  0.00000000000E+00 0.  1.
     999901    1    3    3    0    0 -0.25852859932E-01  0.25251076200E-01  0.13564423494E+00  0.89112588656E+00  0.88000000000E+00 0. -1.
        -11    1    4    4    0    0  0.25576061380E-01 -0.54003935398E-03 -0.53805465406E-01  0.59579491327E-01  0.51100000000E-03 0. -1.
         11    1    4    4    0    0  0.15602317555E-01 -0.17038680628E-01 -0.65845297069E-01  0.69782614008E-01  0.51100000000E-03 0.  1.
</event>
<event>
 8    1  0.1163913E+005  0.1043930E+01  0.7957747E-01            NaN
         13   -1    0    0    0    0  0.00000000000E+00  0.00000000000E+00  0.74505805969E-08  0.10566000000E+00  0.10566000000E+00 0. -1.
     999900   -1    0    0    0    0 -0.00000000000E+00 -0.00000000000E+00 -0.74505805969E-08  0.93827000000E+00  0.93827000000E+00 0.  1.
     999902    2    1    2    0    0 -0.93725624477E-04 -0.16452716347E-01  0.18178772081E-01  0.10194112640E+01  0.10191163608E+01 0.  0.
     999903    2    3    3    0    0  0.17531304694E-01  0.47134473973E-01  0.11954840503E+00  0.13113778420E+00  0.19398247801E-01 0.  0.
         14    1    1    2    0    0  0.93725624477E-04  0.16452716347E-01 -0.18178772081E-01  0.24518735980E-01  0.00000000000E+00 0.  1.
     999901    1    3    3    0    0 -0.17625030319E-01 -0.63587190321E-01 -0.10136963295E+00  0.88827347982E+00  0.88000000000E+00 0.  1.
        -11    1    4    4    0    0  0.19380323344E-01  0.32393376435E-01  0.71670797049E-01  0.81005506235E-01  0.51100000000E-03 0. -1.
         11    1    4    4    0    0 -0.18490186496E-02  0.14741097538E-01  0.47877607985E-01  0.50132277965E-01  0.51100000000E-03 0.  1.
</event>
<event>
 8    1  0.1163913E+005  0.1043930E+01  0.7957747E-01            NaN
         13   -1    0    0    0    0  0.00000000000E+00  0.00000000000E+00  0.74505805969E-08  0.10566000000E+00  0.10566000000E+00 0.  1.
     999900   -1    0    0    0    0 -0.00000000000E+00 -0.00000000000E+00 -0.74505805969E-08  0.93827000000E+00  0.93827000000E+00 0. -1.
     999902    2    1    2    0    0  0.15319145744E-01  0.87310862971E-02 -0.15261262651E-01  0.10206101751E+01  0.10203437241E+01 0.  0.
     999903    2    3    3    0    0  0.71510803662E-01  0.41903538633E-01 -0.10322319544E+00  0.13382090161E+00  0.19578152090E-01 0.  0.
         14    1    1    2    0    0 -0.15319145744E-01 -0.87310862971E-02  0.15261262651E-01  0.23319824870E-01  0.00000000000E+00 0.  1.
     999901    1    3    3    0    0 -0.56191657918E-01 -0.33172452336E-01  0.87961932792E-01  0.88678927352E+00  0.88000000000E+00 0.  1.
        -11    1    4    4    0    0  0.60614832787E-02 -0.72424537914E-05 -0.15336781229E-01  0.16499079109E-01  0.51100000000E-03 0. -1.
         11    1    4    4    0    0  0.65449320383E-01  0.41910781087E-01 -0.87886414215E-01  0.11732182250E+00  0.51100000000E-03 0.  1.
</event>
<event>
 7    1  0.1163913E+005  0.1043930E+01  0.7957747E-01            NaN
         13   -1    0    0    0    0  0.00000000000E+00  0.00000000000E+00  0.74505805969E-08  0.10566000000E+00  0.10566000000E+00 0.  1.
     999900   -1    0    0    0    0 -0.00000000000E+00 -0.00000000000E+00 -0.74505805969E-08  0.93827000000E+00  0.93827000000E+00 0. -1.
     999903    2    1    2    0    0 -0.30136613242E-01 -0.38060147342E-01 -0.71198280816E-01  0.88492190207E-01  0.20121686388E-01 0.  0.
         14    1    1    2    0    0 -0.41624417186E-03 -0.54316860745E-01  0.43587819823E-01  0.69644760444E-01  0.00000000000E+00 0.  1.
     999901    1    1    2    0    0  0.30552857414E-01  0.92377008086E-01  0.27610460993E-01  0.88579304935E+00  0.88000000000E+00 0.  1.
        -11    1    3    3    0    0 -0.29833088033E-01 -0.23510686270E-01 -0.51055910604E-01  0.63637509686E-01  0.51100000000E-03 0. -1.
         11    1    3    3    0    0 -0.30352520950E-03 -0.14549461072E-01 -0.20142370213E-01  0.24854680521E-01  0.51100000000E-03 0.  1.
</event>
<event>
 8    1  0.1163913E+005  0.1043930E+01  0.7957747E-01            NaN
         13   -1    0    0    0    0  0.00000000000E+00  0.00000000000E+00  0.74505805969E-08  0.10566000000E+00  0.10566000000E+00 0.  1.
     999900   -1    0    0    0    0 -0.00000000000E+00 -0.00000000000E+00 -0.74505805969E-08  0.93827000000E+00  0.93827000000E+00 0.  1.
     999902    2    1    2    0    0 -0.13804831133E-01  0.45111236671E-02  0.19040633510E-01  0.10199827805E+01  0.10197016245E+01 0.  0.
     999903    2    3    3    0    0  0.96904322456E-01  0.77428516100E-01 -0.28416599912E-01  0.12878939414E+00  0.19838903118E-01 0.  0.
         14    1    1    2    0    0  0.13804831133E-01 -0.45111236671E-02 -0.19040633510E-01  0.23947219542E-01  0.00000000000E+00 0. -1.
     999901    1    3    3    0    0 -0.11070915359E+00 -0.72917392433E-01  0.47457233422E-01  0.89119338632E+00  0.88000000000E+00 0. -1.
        -11    1    4    4    0    0  0.44764079877E-01  0.27129424041E-01 -0.19202158129E-01  0.55756725997E-01  0.51100000000E-03 0. -1.
         11    1    4    4    0    0  0.52140242579E-01  0.50299092059E-01 -0.92144417828E-02  0.73032668146E-01  0.51100000000E-03 0.  1.
</event>
<event>
 8    1  0.1163913E+005  0.1043930E+01  0.7957747E-01            NaN
         13   -1    0    0    0    0  0.00000000000E+00  0.00000000000E+00  0.74505805969E-08  0.10566000000E+00  0.10566000000E+00 0.  1.
     999900   -1    0    0    0    0 -0.00000000000E+00 -0.00000000000E+00 -0.74505805969E-08  0.93827000000E+00  0.93827000000E+00 0. -1.
     999902    2    1    2    0    0  0.67807932386E-02  0.23261244432E-01  0.23508450798E-01  0.10101703805E+01  0.10096061043E+01 0.  0.
     999903    2    3    3    0    0 -0.14811228137E-01  0.97992023868E-01 -0.67959672681E-01  0.12201649609E+00  0.21158898547E-01 0.  0.
         14    1    1    2    0    0 -0.67807932386E-02 -0.23261244432E-01 -0.23508450798E-01  0.33759619494E-01  0.00000000000E+00 0. -1.
     999901    1    3    3    0    0  0.21592021376E-01 -0.74730779436E-01  0.91468123479E-01  0.88815388441E+00  0.88000000000E+00 0.  1.
        -11    1    4    4    0    0 -0.10158546857E-02  0.17523091126E-01 -0.22592228758E-01  0.28613993160E-01  0.51100000000E-03 0. -1.
         11    1    4    4    0    0 -0.13795373451E-01  0.80468932742E-01 -0.45367443923E-01  0.93402502934E-01  0.51100000000E-03 0.  1.
</event>
<event>
 8    1  0.1163913E+005  0.1043930E+01  0.7957747E-01            NaN
         13   -1    0    0    0    0  0.00000000000E+00  0.00000000000E+00  0.74505805969E-08  0.10566000000E+00  0.10566000000E+00 0.  1.
     999900   -1    0    0    0    0 -0.00000000000E+00 -0.00000000000E+00 -0.74505805969E-08  0.93827000000E+00  0.93827000000E+00 0.  1.
     999902    2    1    2    0    0  0.77192554249E-02 -0.10286123579E-03 -0.22669138655E-01  0.10199824045E+01  0.10197012396E+01 0.  0.
     999903    2    3    3    0    0 -0.49288469120E-01  0.11703013531E+00  0.14834043388E-01  0.12960242479E+00  0.21244620708E-01 0.  0.
         14    1    1    2    0    0 -0.77192554249E-02  0.10286123579E-03  0.22669138655E-01  0.23947595539E-01  0.00000000000E+00 0.  1.
     999901    1    3    3    0    0  0.57007724545E-01 -0.11713299655E+00 -0.37503182043E-01  0.89037997967E+00  0.88000000000E+00 0.  1.
        -11    1    4    4    0    0 -0.20010916640E-01  0.24751839972E-01  0.59323475212E-02  0.32381232757E-01  0.51100000000E-03 0.  1.
         11    1    4    4    0    0 -0.29277552480E-01  0.92278295338E-01  0.89016958665E-02  0.97221192032E-01  0.51100000000E-03 0. -1.
</event>
<event>
 8    1  0.1163913E+005  0.1043930E+01  0.7957747E-01            NaN
         13   -1    0    0    0    0  0.00000000000E+00  0.00000000000E+00  0.74505805969E-08  0.10566000000E+00  0.10566000000E+00 0.  1.
     999900   -1    0    0    0    0 -0.00000000000E+00 -0.00000000000E+00 -0.74505805969E-08  0.93827000000E+00  0.93827000000E+00 0.  1.
     999902    2    1    2    0    0  0.90071958524E-02  0.16116558297E-01  0.16148126030E-01  0.10194017509E+01  0.10191066160E+01 0.  0.
     999903    2    3    3    0    0 -0.59406187428E-01 -0.10147876986E+00  0.46328129580E-01  0.12843604741E+00  0.22857971213E-01 0.  0.
         14    1    1    2    0    0 -0.90071958524E-02 -0.16116558297E-01 -0.16148126030E-01  0.24528249077E-01  0.00000000000E+00 0. -1.
     999901    1    3    3    0    0  0.68413383280E-01  0.11759532816E+00 -0.30180003550E-01  0.89096570351E+00  0.88000000000E+00 0. -1.
        -11    1    4    4    0    0 -0.13835617235E-02 -0.74395340557E-02 -0.19788802243E-02  0.78382394675E-02  0.51100000000E-03 0. -1.
         11    1    4    4    0    0 -0.58022625705E-01 -0.94039235804E-01  0.48307009805E-01  0.12059780795E+00  0.51100000000E-03 0.  1.
</event>
<event>
 7    1  0.1163913E+005  0.1043930E+01  0.7957747E-01            NaN
         13   -1    0    0    0    0  0.00000000000E+00  0.00000000000E+00  0.74505805969E-08  0.10566000000E+00  0.10566000000E+00 0.  1.
     999900   -1    0    0    0    0 -0.00000000000E+00 -0.00000000000E+00 -0.74505805969E-08  0.93827000000E+00  0.93827000000E+00 0. -1.
     999903    2    1    2    0    0  0.58685704459E-01 -0.17558354582E-01 -0.85534846049E-01  0.10723421867E+00  0.20752350247E-01 0.  0.
         14    1    1    2    0    0 -0.31835059382E-01 -0.38189562843E-01 -0.45978198611E-02  0.49930488316E-01  0.00000000000E+00 0.  1.
     999901    1    1    2    0    0 -0.26850645077E-01  0.55747917425E-01  0.90132665910E-01  0.88676529302E+00  0.88000000000E+00 0.  1.
        -11    1    3    3    0    0  0.32832182285E-01 -0.10724594750E-01 -0.30656075848E-01  0.46184686136E-01  0.51100000000E-03 0.  1.
         11    1    3    3    0    0  0.25853522174E-01 -0.68337598319E-02 -0.54878770201E-01  0.61049532529E-01  0.51100000000E-03 0. -1.
</event>
<event>
 8    1  0.1163913E+005  0.1043930E+01  0.7957747E-01            NaN
         13   -1    0    0    0    0  0.00000000000E+00  0.00000000000E+00  0.74505805969E-08  0.10566000000E+00  0.10566000000E+00 0.  1.
     999900   -1    0    0    0    0 -0.00000000000E+00 -0.00000000000E+00 -0.74505805969E-08  0.93827000000E+00  0.93827000000E+00 0.  1.
     999902    2    1    2    0    0  0.15546791426E-01 -0.35234923765E-02 -0.17434811703E-01  0.10203060634E+01  0.10200325351E+01 0.  0.
     999903    2    3    3    0    0 -0.63917239021E-01 -0.10831543282E+00  0.23888842440E-01  0.12957404571E+00  0.20027733197E-01 0.  0.
         14    1    1    2    0    0 -0.15546791426E-01  0.35234923765E-02  0.17434811703E-01  0.23623936617E-01  0.00000000000E+00 0. -1.
     999901    1    3    3    0    0  0.79464030447E-01  0.10479194044E+00 -0.41323654143E-01  0.89073201767E+00  0.88000000000E+00 0. -1.
        -11    1    4    4    0    0 -0.56268688509E-01 -0.83164342927E-01  0.24163550303E-01  0.10327928895E+00  0.51100000000E-03 0. -1.
         11    1    4    4    0    0 -0.76485505120E-02 -0.25151089895E-01 -0.27470786330E-03  0.26294756763E-01  0.51100000000E-03 0.  1.
</event>
<event>
 8    1  0.1163913E+005  0.1043930E+01  0.7957747E-01            NaN
         13   -1    0    0    0    0  0.00000000000E+00  0.00000000000E+00  0.74505805969E-08  0.10566000000E+00  0.10566000000E+00 0. -1.
     999900   -1    0    0    0    0 -0.00000000000E+00 -0.00000000000E+00 -0.74505805969E-08  0.93827000000E+00  0.93827000000E+00 0.  1.
     999902    2    1    2    0    0 -0.26401939788E-02 -0.91981364667E-02  0.22074026190E-01  0.10198709275E+01  0.10195871075E+01 0.  0.
     999903    2    3    3    0    0 -0.11828435865E+00 -0.35827906380E-01  0.41209441777E-01  0.13169927650E+00  0.19278302857E-01 0.  0.
         14    1    1    2    0    0  0.26401939788E-02  0.91981364667E-02 -0.22074026190E-01  0.24059072528E-01  0.00000000000E+00 0.  1.
     999901    1    3    3    0    0  0.11564416467E+00  0.26629769914E-01 -0.19135415587E-01  0.88817165098E+00  0.88000000000E+00 0. -1.
        -11    1    4    4    0    0 -0.54791335259E-01 -0.10192797510E-01  0.10774971806E-01  0.56765699846E-01  0.51100000000E-03 0. -1.
         11    1    4    4    0    0 -0.63493023391E-01 -0.25635108870E-01  0.30434469971E-01  0.74933576649E-01  0.51100000000E-03 0.  1.
</event>
<event>
 8    1  0.1163913E+005  0.1043930E+01  0.7957747E-01            NaN
         13   -1    0    0    0    0  0.00000000000E+00  0.00000000000E+00  0.74505805969E-08  0.10566000000E+00  0.10566000000E+00 0. -1.
     999900   -1    0    0    0    0 -0.00000000000E+00 -0.00000000000E+00 -0.74505805969E-08  0.93827000000E+00  0.93827000000E+00 0. -1.
     999902    2    1    2    0    0  0.13450034393E-02 -0.19196267031E-01  0.14260298332E-01  0.10199787618E+01  0.10196975104E+01 0.  0.
     999903    2    3    3    0    0 -0.94033706071E-01  0.35117915028E-01 -0.77594847356E-01  0.12841581037E+00  0.19850798037E-01 0.  0.
         14    1    1    2    0    0 -0.13450034393E-02  0.19196267031E-01 -0.14260298332E-01  0.23951238187E-01  0.00000000000E+00 0.  1.
     999901    1    3    3    0    0  0.95378709510E-01 -0.54314182059E-01  0.91855145688E-01  0.89156295145E+00  0.88000000000E+00 0.  1.
        -11    1    4    4    0    0 -0.70689395414E-01  0.23313654271E-01 -0.67132471012E-01  0.10023745251E+00  0.51100000000E-03 0. -1.
         11    1    4    4    0    0 -0.23344310657E-01  0.11804260756E-01 -0.10462376344E-01  0.28178357862E-01  0.51100000000E-03 0.  1.
</event>
<event>
 8    1  0.1163913E+005  0.1043930E+01  0.7957747E-01            NaN
         13   -1    0    0    0    0  0.00000000000E+00  0.00000000000E+00  0.74505805969E-08  0.10566000000E+00  0.10566000000E+00 0.  1.
     999900   -1    0    0    0    0 -0.00000000000E+00 -0.00000000000E+00 -0.74505805969E-08  0.93827000000E+00  0.93827000000E+00 0.  1.
     999902    2    1    2    0    0 -0.85713132895E-03  0.37884993525E-03  0.23786538122E-01  0.10201250090E+01  0.10198472221E+01 0.  0.
     999903    2    3    3    0    0 -0.38351040344E-01 -0.62590597199E-01 -0.99631235614E-01  0.12849566259E+00  0.34588539146E-01 0.  0.
         14    1    1    2    0    0  0.85713132895E-03 -0.37884993525E-03 -0.23786538122E-01  0.23804991015E-01  0.00000000000E+00 0. -1.
     999901    1    3    3    0    0  0.37493909015E-01  0.62969447134E-01  0.12341777374E+00  0.89162934640E+00  0.88000000000E+00 0.  1.
        -11    1    4    4    0    0 -0.32685552300E-01 -0.26413546901E-01 -0.37249235542E-01  0.56158592027E-01  0.51100000000E-03 0.  1.
         11    1    4    4    0    0 -0.56654880447E-02 -0.36177050298E-01 -0.62382000072E-01  0.72337070559E-01  0.51100000000E-03 0. -1.
</event>
<event>
 8    1  0.1163913E+005  0.1043930E+01  0.7957747E-01            NaN
         13   -1    0    0    0    0  0.00000000000E+00  0.00000000000E+00  0.74505805969E-08  0.10566000000E+00  0.10566000000E+00 0. -1.
     999900   -1    0    0    0    0 -0.00000000000E+00 -0.00000000000E+00 -0.74505805969E-08  0.93827000000E+00  0.93827000000E+00 0. -1.
     999902    2    1    2    0    0 -0.94221589065E-02  0.22841577733E-01  0.15579356334E-02  0.10191723362E+01  0.10188715861E+01 0.  0.
     999903    2    3    3    0    0 -0.10106073276E+00 -0.52945224412E-01  0.57663664778E-01  0.12940319739E+00  0.20090315166E-01 0.  0.
         14    1    1    2    0    0  0.94221589065E-02 -0.22841577733E-01 -0.15579356334E-02  0.24757663767E-01  0.00000000000E+00 0. -1.
     999901    1    3    3    0    0  0.91638573858E-01  0.75786802145E-01 -0.56105729145E-01  0.88976913885E+00  0.88000000000E+00 0. -1.
        -11    1    4    4    0    0 -0.50243820248E-01 -0.19905829352E-01  0.18001506366E-01  0.56964891536E-01  0.51100000000E-03 0. -1.
         11    1    4    4    0    0 -0.50816912517E-01 -0.33039395060E-01  0.39662158412E-01  0.72438305852E-01  0.51100000000E-03 0.  1.
</event>
<event>
 8    1  0.1163913E+005  0.1043930E+01  0.7957747E-01            NaN
         13   -1    0    0    0    0  0.00000000000E+00  0.00000000000E+00  0.74505805969E-08  0.10566000000E+00  0.10566000000E+00 0. -1.
     999900   -1    0    0    0    0 -0.00000000000E+00 -0.00000000000E+00 -0.74505805969E-08  0.93827000000E+00  0.93827000000E+00 0.  1.
     999902    2    1    2    0    0  0.24284371038E-01 -0.53789896805E-04 -0.17191293979E-02  0.10195847956E+01  0.10192941021E+01 0.  0.
     999903    2    3    3    0    0 -0.79665240390E-01  0.92230940682E-01  0.33449493209E-01  0.12798016058E+00  0.20173149526E-01 0.  0.
         14    1    1    2    0    0 -0.24284371038E-01  0.53789896805E-04  0.17191293979E-02  0.24345204372E-01  0.00000000000E+00 0. -1.
     999901    1    3    3    0    0  0.10394961143E+00 -0.92284730579E-01 -0.35168622607E-01  0.89160463504E+00  0.88000000000E+00 0.  1.
        -11    1    4    4    0    0 -0.15502569229E-01  0.13101647213E-01  0.12893682496E-01  0.24051839466E-01  0.51100000000E-03 0.  1.
         11    1    4    4    0    0 -0.64162671161E-01  0.79129293469E-01  0.20555810713E-01  0.10392832112E+00  0.51100000000E-03 0. -1.
</event>
<event>
 8    1  0.1163913E+005  0.1043930E+01  0.7957747E-01            NaN
         13   -1    0    0    0    0  0.00000000000E+00  0.00000000000E+00  0.74505805969E-08  0.10566000000E+00  0.10566000000E+00 0.  1.
     999900   -1    0    0    0    0 -0.00000000000E+00 -0.00000000000E+00 -0.74505805969E-08  0.93827000000E+00  0.93827000000E+00 0. -1.
     999902    2    1    2    0    0  0.10076079353E-01 -0.20115739594E-01 -0.55156372469E-02  0.10207655313E+01  0.10205026592E+01 0.  0.
     999903    2    3    3    0    0  0.82178466963E-01  0.96212140791E-01 -0.21962632392E-01  0.13003468887E+00  0.20410453715E-01 0.  0.
         14    1    1    2    0    0 -0.10076079353E-01  0.20115739594E-01  0.55156372469E-02  0.23164468670E-01  0.00000000000E+00 0.  1.
     999901    1    3    3    0    0 -0.72102387610E-01 -0.11632788039E+00  0.16446995146E-01  0.89073084246E+00  0.88000000000E+00 0. -1.
        -11    1    4    4    0    0  0.44500868388E-01  0.58367637119E-01 -0.33348346621E-02  0.73474421355E-01  0.51100000000E-03 0.  1.
         11    1    4    4    0    0  0.37677598574E-01  0.37844503672E-01 -0.18627797730E-01  0.56560267519E-01  0.51100000000E-03 0. -1.
</event>
<event>
 8    1  0.1163913E+005  0.1043930E+01  0.7957747E-01            NaN
         13   -1    0    0    0    0  0.00000000000E+00  0.00000000000E+00  0.74505805969E-08  0.10566000000E+00  0.10566000000E+00 0. -1.
     999900   -1    0    0    0    0 -0.00000000000E+00 -0.00000000000E+00 -0.74505805969E-08  0.93827000000E+00  0.93827000000E+00 0.  1.
     999902    2    1    2    0    0  0.16756866283E-01  0.16810772431E-01  0.61762653820E-02  0.10194036694E+01  0.10191085812E+01 0.  0.
     999903    2    3    3    0    0  0.22686008131E-01 -0.12423092263E+00  0.11483824747E-01  0.12813710736E+00  0.18419091953E-01 0.  0.
         14    1    1    2    0    0 -0.16756866283E-01 -0.16810772431E-01 -0.61762653820E-02  0.24526330574E-01  0.00000000000E+00 0.  1.
     999901    1    3    3    0    0 -0.59291418484E-02  0.14104169507E+00 -0.53075593653E-02  0.89126656207E+00  0.88000000000E+00 0. -1.
        -11    1    4    4    0    0  0.21621372061E-01 -0.82176752526E-01  0.13388122666E-01  0.86023283680E-01  0.51100000000E-03 0.  1.
         11    1    4    4    0    0  0.10646360703E-02 -0.42054170108E-01 -0.19042979185E-02  0.42113823681E-01  0.51100000000E-03 0. -1.
</event>
<event>
 8    1  0.1204556E+005  0.1043930E+01  0.7957747E-01            NaN
         13   -1    0    0    0    0  0.00000000000E+00  0.00000000000E+00  0.74505805969E-08  0.10566000000E+00  0.10566000000E+00 0.  1.
     999900   -1    0    0    0    0 -0.00000000000E+00 -0.00000000000E+00 -0.74505805969E-08  0.93827000000E+00  0.93827000000E+00 0. -1.
     999902    2    1    2    0    0 -0.67497341166E-02  0.11090126074E-01  0.19437197606E-01  0.10205557736E+01  0.10202880636E+01 0.  0.
     999903    2    3    3    0    0  0.39658422081E-01  0.11063579541E+00  0.58543749609E-01  0.13286642502E+00  0.20323548242E-01 0.  0.
         14    1    1    2    0    0  0.67497341166E-02 -0.11090126074E-01 -0.19437197606E-01  0.23374226356E-01  0.00000000000E+00 0. -1.
     999901    1    3    3    0    0 -0.46408156198E-01 -0.99545669332E-01 -0.39106552003E-01  0.88768934862E+00  0.88000000000E+00 0. -1.
        -11    1    4    4    0    0  0.33214498895E-01  0.77515103397E-01  0.50056397533E-01  0.98069864110E-01  0.51100000000E-03 0. -1.
         11    1    4    4    0    0  0.64439231861E-02  0.33120692008E-01  0.84873520766E-02  0.34796560914E-01  0.51100000000E-03 0.  1.
</event>
<event>
 8    1  0.1163913E+005  0.1043930E+01  0.7957747E-01            NaN
         13   -1    0    0    0    0  0.00000000000E+00  0.00000000000E+00  0.74505805969E-08  0.10566000000E+00  0.10566000000E+00 0.  1.
     999900   -1    0    0    0    0 -0.00000000000E+00 -0.00000000000E+00 -0.74505805969E-08  0.93827000000E+00  0.93827000000E+00 0. -1.
     999902    2    1    2    0    0 -0.22785024496E-01 -0.19803479082E-02  0.56197552881E-02  0.10203787629E+01  0.10201069351E+01 0.  0.
     999903    2    3    3    0    0  0.11567925515E+00  0.50007429221E-01 -0.89727717597E-02  0.12791698358E+00  0.19995274605E-01 0.  0.
         14    1    1    2    0    0  0.22785024496E-01  0.19803479082E-02 -0.56197552881E-02  0.23551237093E-01  0.00000000000E+00 0. -1.
     999901    1    3    3    0    0 -0.13846427965E+00 -0.51987777129E-01  0.14592527048E-01  0.89246177932E+00  0.88000000000E+00 0.  1.
        -11    1    4    4    0    0  0.93288734134E-01  0.36514110020E-01 -0.14404471214E-01  0.10121174862E+00  0.51100000000E-03 0.  1.
         11    1    4    4    0    0  0.22390521016E-01  0.13493319201E-01  0.54316994543E-02  0.26705234962E-01  0.51100000000E-03 0. -1.
</event>
<event>
 8    1  0.1163913E+005  0.1043930E+01  0.7957747E-01            NaN
         13   -1    0    0    0    0  0.00000000000E+00  0.00000000000E+00  0.74505805969E-08  0.10566000000E+00  0.10566000000E+00 0. -1.
     999900   -1    0    0    0    0 -0.00000000000E+00 -0.00000000000E+00 -0.74505805969E-08  0.93827000000E+00  0.93827000000E+00 0.  1.
     999902    2    1    2    0    0  0.92184979235E-04  0.19195639101E-01 -0.13904973646E-01  0.10202270603E+01  0.10199516779E+01 0.  0.
     999903    2    3    3    0    0  0.92374063852E-01  0.55334190450E-01  0.71121456242E-01  0.13059149792E+00  0.20025920347E-01 0.  0.
         14    1    1    2    0    0 -0.92184979235E-04 -0.19195639101E-01  0.13904973646E-01  0.23702939705E-01  0.00000000000E+00 0. -1.
     999901    1    3    3    0    0 -0.92281878873E-01 -0.36138551350E-01 -0.85026429888E-01  0.88963556237E+00  0.88000000000E+00 0.  1.
        -11    1    4    4    0    0  0.63998875615E-01  0.32401041245E-01  0.56376149711E-01  0.91237135701E-01  0.51100000000E-03 0. -1.
         11    1    4    4    0    0  0.28375188238E-01  0.22933149206E-01  0.14745306531E-01  0.39354362220E-01  0.51100000000E-03 0.  1.
</event>
<event>
 8    1  0.1163913E+005  0.1043930E+01  0.7957747E-01            NaN
         13   -1    0    0    0    0  0.00000000000E+00  0.00000000000E+00  0.74505805969E-08  0.10566000000E+00  0.10566000000E+00 0. -1.
     999900   -1    0    0    0    0 -0.00000000000E+00 -0.00000000000E+00 -0.74505805969E-08  0.93827000000E+00  0.93827000000E+00 0. -1.
     999902    2    1    2    0    0  0.17485612012E-03 -0.30096194633E-02 -0.24129185201E-01  0.10196132164E+01  0.10193232094E+01 0.  0.
     999903    2    3    3    0    0 -0.70774693003E-01 -0.13912084999E-01  0.10324899990E+00  0.12754937102E+00  0.20146532927E-01 0.  0.
         14    1    1    2    0    0 -0.17485612012E-03  0.30096194633E-02  0.24129185201E-01  0.24316783555E-01  0.00000000000E+00 0. -1.
     999901    1    3    3    0    0  0.70949549123E-01  0.10902465536E-01 -0.12737818510E+00  0.89206384543E+00  0.88000000000E+00 0. -1.
        -11    1    4    4    0    0 -0.54315351377E-01 -0.13082198127E-01  0.63872897895E-01  0.84860529751E-01  0.51100000000E-03 0.  1.
         11    1    4    4    0    0 -0.16459341626E-01 -0.82988687191E-03  0.39376102003E-01  0.42688841269E-01  0.51100000000E-03 0. -1.
</event>
<event>
 8    1  0.1163913E+005  0.1043930E+01  0.7957747E-01            NaN
         13   -1    0    0    0    0  0.00000000000E+00  0.00000000000E+00  0.74505805969E-08  0.10566000000E+00  0.10566000000E+00 0. -1.
     999900   -1    0    0    0    0 -0.00000000000E+00 -0.00000000000E+00 -0.74505805969E-08  0.93827000000E+00  0.93827000000E+00 0. -1.
     999902    2    1    2    0    0  0.22971083271E-01  0.42748359248E-03 -0.16395530698E-02  0.10208965126E+01  0.10206366385E+01 0.  0.
     999903    2    3    3    0    0  0.31935704942E-01  0.75743038716E-01 -0.10121309729E+00  0.13203899418E+00  0.20816045677E-01 0.  0.
         14    1    1    2    0    0 -0.22971083271E-01 -0.42748359248E-03  0.16395530698E-02  0.23033487429E-01  0.00000000000E+00 0. -1.
     999901    1    3    3    0    0 -0.89646216707E-02 -0.75315555124E-01  0.99573544221E-01  0.88885751839E+00  0.88000000000E+00 0.  1.
        -11    1    4    4    0    0  0.12971940257E-01  0.11458000453E-01 -0.26625293420E-01  0.31760421583E-01  0.51100000000E-03 0.  1.
         11    1    4    4    0    0  0.18963764685E-01  0.64285038263E-01 -0.74587803871E-01  0.10027857260E+00  0.51100000000E-03 0. -1.
</event>
<event>
 8    1  0.1163913E+005  0.1043930E+01  0.7957747E-01            NaN
         13   -1    0    0    0    0  0.00000000000E+00  0.00000000000E+00  0.74505805969E-08  0.10566000000E+00  0.10566000000E+00 0.  1.
     999900   -1    0    0    0    0 -0.00000000000E+00 -0.00000000000E+00 -0.74505805969E-08  0.93827000000E+00  0.93827000000E+00 0. -1.
     999902    2    1    2    0    0 -0.21224325170E-01  0.93692171422E-02 -0.43125750171E-02  0.10203322774E+01  0.10200593629E+01 0.  0.
     999903    2    3    3    0    0 -0.57662498875E-01 -0.10540149934E+00 -0.50256238424E-01  0.13094435412E+00  0.13648975616E-01 0.  0.
         14    1    1    2    0    0  0.21224325170E-01 -0.93692171422E-02  0.43125750171E-02  0.23597722604E-01  0.00000000000E+00 0.  1.
     999901    1    3    3    0    0  0.36438173704E-01  0.11477071648E+00  0.45943663407E-01  0.88938792328E+00  0.88000000000E+00 0.  1.
        -11    1    4    4    0    0 -0.17287696356E-01 -0.20724161054E-01 -0.13599140474E-01  0.30225039939E-01  0.51100000000E-03 0.  1.
         11    1    4    4    0    0 -0.40374802519E-01 -0.84677338287E-01 -0.36657097950E-01  0.10071931418E+00  0.51100000000E-03 0. -1.
</event>
<event>
 8    1  0.1163913E+005  0.1043930E+01  0.7957747E-01            NaN
         13   -1    0    0    0    0  0.00000000000E+00  0.00000000000E+00  0.74505805969E-08  0.10566000000E+00  0.10566000000E+00 0.  1.
     999900   -1    0    0    0    0 -0.00000000000E+00 -0.00000000000E+00 -0.74505805969E-08  0.93827000000E+00  0.93827000000E+00 0. -1.
     999902    2    1    2    0    0  0.13964680259E-02  0.22990018049E-01 -0.26742243474E-02  0.10207428801E+01  0.10204794877E+01 0.  0.
     999903    2    3    3    0    0  0.21257213640E-01 -0.12531260601E+00 -0.18561015518E-02  0.12811261688E+00  0.15946132269E-01 0.  0.
         14    1    1    2    0    0 -0.13964680259E-02 -0.22990018049E-01  0.26742243474E-02  0.23187119888E-01  0.00000000000E+00 0. -1.
     999901    1    3    3    0    0 -0.19860745614E-01  0.14830262406E+00 -0.81812279560E-03  0.89263026323E+00  0.88000000000E+00 0.  1.
        -11    1    4    4    0    0  0.60914355025E-02 -0.32738734891E-01 -0.74825900362E-02  0.34134742176E-01  0.51100000000E-03 0. -1.
         11    1    4    4    0    0  0.15165778137E-01 -0.92573871115E-01  0.56264884844E-02  0.93977874701E-01  0.51100000000E-03 0.  1.
</event>
<event>
 8    1  0.1163913E+005  0.1043930E+01  0.7957747E-01            NaN
         13   -1    0    0    0    0  0.00000000000E+00  0.00000000000E+00  0.74505805969E-08  0.10566000000E+00  0.10566000000E+00 0.  1.
     999900   -1    0    0    0    0 -0.00000000000E+00 -0.00000000000E+00 -0.74505805969E-08  0.93827000000E+00  0.93827000000E+00 0. -1.
     999902    2    1    2    0    0  0.80940932908E-02 -0.11471618904E-01 -0.20425981472E-01  0.10191442560E+01  0.10188428149E+01 0.  0.
     999903    2    3    3    0    0 -0.82547289416E-01 -0.62267389675E-01 -0.78029183492E-01  0.13116103574E+00  0.20576224443E-01 0.  0.
         14    1    1    2    0    0 -0.80940932908E-02  0.11471618904E-01  0.20425981472E-01  0.24785743999E-01  0.00000000000E+00 0.  1.
     999901    1    3    3    0    0  0.90641382707E-01  0.50795770771E-01  0.57603202020E-01  0.88798322026E+00  0.88000000000E+00 0.  1.
        -11    1    4    4    0    0 -0.62154882994E-01 -0.46191535771E-01 -0.46567334557E-01  0.90364070435E-01  0.51100000000E-03 0. -1.
         11    1    4    4    0    0 -0.20392406422E-01 -0.16075853904E-01 -0.31461848935E-01  0.40796965302E-01  0.51100000000E-03 0.  1.
</event>
<event>
 8    1  0.1163913E+005  0.1043930E+01  0.7957747E-01            NaN
         13   -1    0    0    0    0  0.00000000000E+00  0.00000000000E+00  0.74505805969E-08  0.10566000000E+00  0.10566000000E+00 0.  1.
     999900   -1    0    0    0    0 -0.00000000000E+00 -0.00000000000E+00 -0.74505805969E-08  0.93827000000E+00  0.93827000000E+00 0. -1.
     999902    2    1    2    0    0  0.11990569875E-01  0.10800683186E-01  0.17890091827E-01  0.10198367663E+01  0.10195521301E+01 0.  0.
     999903    2    3    3    0    0  0.27133410564E-02  0.55612073652E-01  0.11891473825E+00  0.13287560208E+00  0.20375124540E-01 0.  0.
         14    1    1    2    0    0 -0.11990569875E-01 -0.10800683186E-01 -0.17890091827E-01  0.24093233673E-01  0.00000000000E+00 0. -1.
     999901    1    3    3    0    0  0.92772288188E-02 -0.44811390466E-01 -0.10102464643E+00  0.88696116424E+00  0.88000000000E+00 0. -1.
        -11    1    4    4    0    0  0.88314935748E-02  0.30472744940E-01  0.49532295303E-01  0.58824254027E-01  0.51100000000E-03 0. -1.
         11    1    4    4    0    0 -0.61181525184E-02  0.25139328712E-01  0.69382442950E-01  0.74051348057E-01  0.51100000000E-03 0.  1.
</event>
<event>
 8    1  0.1163913E+005  0.1043930E+01  0.7957747E-01            NaN
         13   -1    0    0    0    0  0.00000000000E+00  0.00000000000E+00  0.74505805969E-08  0.10566000000E+00  0.10566000000E+00 0.  1.
     999900   -1    0    0    0    0 -0.00000000000E+00 -0.00000000000E+00 -0.74505805969E-08  0.93827000000E+00  0.93827000000E+00 0.  1.
     999902    2    1    2    0    0 -0.12077187769E-01 -0.17500639652E-01  0.22095883580E-02  0.10225521345E+01  0.10223286432E+01 0.  0.
     999903    2    3    3    0    0  0.11460853356E+00  0.51076222417E-01 -0.28397348752E-01  0.13031402581E+00  0.20771120498E-01 0.  0.
         14    1    1    2    0    0  0.12077187769E-01  0.17500639652E-01 -0.22095883580E-02  0.21377865500E-01  0.00000000000E+00 0.  1.
     999901    1    3    3    0    0 -0.12668572132E+00 -0.68576862068E-01  0.30606937110E-01  0.89223810869E+00  0.88000000000E+00 0. -1.
        -11    1    4    4    0    0  0.41775619729E-01  0.28415222249E-01 -0.16245674453E-01  0.53073631105E-01  0.51100000000E-03 0. -1.
         11    1    4    4    0    0  0.72832913826E-01  0.22661000168E-01 -0.12151674299E-01  0.77240394706E-01  0.51100000000E-03 0.  1.
</event>
<event>
 8    1  0.1163913E+005  0.1043930E+01  0.7957747E-01            NaN
         13   -1    0    0    0    0  0.00000000000E+00  0.00000000000E+00  0.74505805969E-08  0.10566000000E+00  0.10566000000E+00 0. -1.
     999900   -1    0    0    0    0 -0.00000000000E+00 -0.00000000000E+00 -0.74505805969E-08  0.93827000000E+00  0.93827000000E+00 0.  1.
     999902    2    1    2    0    0  0.87710140752E-02  0.55968286426E-02  0.20296078043E-01  0.10211224144E+01  0.10208676698E+01 0.  0.
     999903    2    3    3    0    0 -0.10877772518E+00 -0.47527118380E-03 -0.66764315247E-01  0.12902707833E+00  0.18912793895E-01 0.  0.
         14    1    1    2    0    0 -0.87710140752E-02 -0.55968286426E-02 -0.20296078043E-01  0.22807585639E-01  0.00000000000E+00 0.  1.
     999901    1    3    3    0    0  0.11754873925E+00  0.60720998264E-02  0.87060393290E-01  0.89209533604E+00  0.88000000000E+00 0. -1.
        -11    1    4    4    0    0 -0.34017685634E-01 -0.86841279645E-02 -0.23656382287E-01  0.42337956473E-01  0.51100000000E-03 0.  1.
         11    1    4    4    0    0 -0.74760039546E-01  0.82088567807E-02 -0.43107932960E-01  0.86689121852E-01  0.51100000000E-03 0. -1.
</event>
<event>
 8    1  0.1163913E+005  0.1043930E+01  0.7957747E-01            NaN
         13   -1    0    0    0    0  0.00000000000E+00  0.00000000000E+00  0.74505805969E-08  0.10566000000E+00  0.10566000000E+00 0.  1.
     999900   -1    0    0    0    0 -0.00000000000E+00 -0.00000000000E+00 -0.74505805969E-08  0.93827000000E+00  0.93827000000E+00 0.  1.
     999902    2    1    2    0    0 -0.71156438780E-02 -0.22842237383E-01  0.97097240326E-03  0.10199854185E+01  0.10197043253E+01 0.  0.
     999903    2    3    3    0    0  0.80068165788E-01 -0.18941659205E-01 -0.98686953762E-01  0.13007085325E+00  0.20238932669E-01 0.  0.
         14    1    1    2    0    0  0.71156438780E-02  0.22842237383E-01 -0.97097240326E-03  0.23944581514E-01  0.00000000000E+00 0. -1.
     999901    1    3    3    0    0 -0.87183809666E-01 -0.39005781776E-02  0.99657926165E-01  0.88991456524E+00  0.88000000000E+00 0. -1.
        -11    1    4    4    0    0  0.50071674272E-01 -0.74761759742E-02 -0.46216996503E-01  0.68551715211E-01  0.51100000000E-03 0. -1.
         11    1    4    4    0    0  0.29996491516E-01 -0.11465483231E-01 -0.52469957259E-01  0.61519138036E-01  0.51100000000E-03 0.  1.
</event>
<event>
 8    1  0.1163913E+005  0.1043930E+01  0.7957747E-01            NaN
         13   -1    0    0    0    0  0.00000000000E+00  0.00000000000E+00  0.74505805969E-08  0.10566000000E+00  0.10566000000E+00 0. -1.
     999900   -1    0    0    0    0 -0.00000000000E+00 -0.00000000000E+00 -0.74505805969E-08  0.93827000000E+00  0.93827000000E+00 0. -1.
     999902    2    1    2    0    0  0.17150064459E-01  0.20690742902E-01  0.19953105404E-01  0.10104582512E+01  0.10099037179E+01 0.  0.
     999903    2    3    3    0    0  0.49948289178E-01  0.70246355532E-01  0.89188200003E-01  0.12574079313E+00  0.20659863962E-01 0.  0.
         14    1    1    2    0    0 -0.17150064459E-01 -0.20690742902E-01 -0.19953105404E-01  0.33471748805E-01  0.00000000000E+00 0.  1.
     999901    1    3    3    0    0 -0.32798224719E-01 -0.49555612629E-01 -0.69235094599E-01  0.88471745807E+00  0.88000000000E+00 0. -1.
        -11    1    4    4    0    0  0.32222933585E-01  0.60072812934E-01  0.69731538523E-01  0.97518249002E-01  0.51100000000E-03 0. -1.
         11    1    4    4    0    0  0.17725355593E-01  0.10173542597E-01  0.19456661480E-01  0.28222544124E-01  0.51100000000E-03 0.  1.
</event>
<event>
 8    1  0.1163913E+005  0.1043930E+01  0.7957747E-01            NaN
         13   -1    0    0    0    0  0.00000000000E+00  0.00000000000E+00  0.74505805969E-08  0.10566000000E+00  0.10566000000E+00 0. -1.
     999900   -1    0    0    0    0 -0.00000000000E+00 -0.00000000000E+00 -0.74505805969E-08  0.93827000000E+00  0.93827000000E+00 0. -1.
     999902    2    1    2    0    0  0.45765169165E-02  0.10297174699E-01  0.23850210180E-01  0.10175518113E+01  0.10172098504E+01 0.  0.
     999903    2    3    3    0    0 -0.10823846614E+00 -0.63610626422E-01 -0.93921770623E-02  0.12665639668E+00  0.13847472098E-01 0.  0.
         14    1    1    2    0    0 -0.45765169165E-02 -0.10297174699E-01 -0.23850210180E-01  0.26378188708E-01  0.00000000000E+00 0.  1.
     999901    1    3    3    0    0  0.11281498306E+00  0.73907801121E-01  0.33242387242E-01  0.89089541461E+00  0.88000000000E+00 0.  1.
        -11    1    4    4    0    0 -0.10117671938E+00 -0.60492868277E-01 -0.12000766141E-01  0.11849217344E+00  0.51100000000E-03 0. -1.
         11    1    4    4    0    0 -0.70617467591E-02 -0.31177581452E-02  0.26085890792E-02  0.81642232408E-02  0.51100000000E-03 0.  1.
</event>
<event>
 8    1  0.1163913E+005  0.1043930E+01  0.7957747E-01            NaN
         13   -1    0    0    0    0  0.00000000000E+00  0.00000000000E+00  0.74505805969E-08  0.10566000000E+00  0.10566000000E+00 0.  1.
     999900   -1    0    0    0    0 -0.00000000000E+00 -0.00000000000E+00 -0.74505805969E-08  0.93827000000E+00  0.93827000000E+00 0.  1.
     999902    2    1    2    0    0  0.10427987910E-01 -0.21410317758E-01 -0.16827867986E-02  0.10200558213E+01  0.10197763981E+01 0.  0.
     999903    2    3    3    0    0  0.83901490310E-01  0.78938314624E-01 -0.56139647952E-01  0.12964369574E+00  0.19624224331E-01 0.  0.
         14    1    1    2    0    0 -0.10427987910E-01  0.21410317758E-01  0.16827867986E-02  0.23874178724E-01  0.00000000000E+00 0. -1.
     999901    1    3    3    0    0 -0.73473502401E-01 -0.10034863238E+00  0.54456861154E-01  0.89041212554E+00  0.88000000000E+00 0.  1.
        -11    1    4    4    0    0  0.28221447299E-01  0.14746905016E-01 -0.16725793974E-01  0.35971302454E-01  0.51100000000E-03 0. -1.
         11    1    4    4    0    0  0.55680043012E-01  0.64191409608E-01 -0.39413853978E-01  0.93672393285E-01  0.51100000000E-03 0.  1.
</event>
<event>
 8    1  0.1163913E+005  0.1043930E+01  0.7957747E-01            NaN
         13   -1    0    0    0    0  0.00000000000E+00  0.00000000000E+00  0.74505805969E-08  0.10566000000E+00  0.10566000000E+00 0. -1.
     999900   -1    0    0    0    0 -0.00000000000E+00 -0.00000000000E+00 -0.74505805969E-08  0.93827000000E+00  0.93827000000E+00 0. -1.
     999902    2    1    2    0    0  0.20935127694E-02 -0.12008158068E-01 -0.20095105579E-01  0.10204269805E+01  0.10201562776E+01 0.  0.
     999903    2    3    3    0    0  0.52646390994E-01  0.36715828747E-01  0.10810309781E+00  0.12837070442E+00  0.25943466085E-01 0.  0.
         14    1    1    2    0    0 -0.20935127694E-02  0.12008158068E-01  0.20095105579E-01  0.23503019469E-01  0.00000000000E+00 0. -1.
     999901    1    3    3    0    0 -0.50552878225E-01 -0.48723986815E-01 -0.12819820339E+00  0.89205627611E+00  0.88000000000E+00 0.  1.
        -11    1    4    4    0    0  0.29511417250E-01  0.52926876492E-02  0.52072361418E-01  0.60089335454E-01  0.51100000000E-03 0.  1.
         11    1    4    4    0    0  0.23134973744E-01  0.31423141098E-01  0.56030736395E-01  0.68281368971E-01  0.51100000000E-03 0. -1.
</event>
<event>
 8    1  0.1163913E+005  0.1043930E+01  0.7957747E-01            NaN
         13   -1    0    0    0    0  0.00000000000E+00  0.00000000000E+00  0.74505805969E-08  0.10566000000E+00  0.10566000000E+00 0.  1.
     999900   -1    0    0    0    0 -0.00000000000E+00 -0.00000000000E+00 -0.74505805969E-08  0.93827000000E+00  0.93827000000E+00 0.  1.
     999902    2    1    2    0    0  0.82811552901E-02  0.19520247950E-01  0.89481520327E-02  0.10209150692E+01  0.10206556185E+01 0.  0.
     999903    2    3    3    0    0  0.11791153609E+00 -0.49669560872E-01 -0.19764342984E-01  0.13095413897E+00  0.19701818171E-01 0.  0.
         14    1    1    2    0    0 -0.82811552901E-02 -0.19520247950E-01 -0.89481520327E-02  0.23014930757E-01  0.00000000000E+00 0.  1.
     999901    1    3    3    0    0 -0.10963038080E+00  0.69189808822E-01  0.28712495016E-01  0.88996093027E+00  0.88000000000E+00 0. -1.
        -11    1    4    4    0    0  0.63508902039E-01 -0.35313854891E-01 -0.16935967785E-01  0.74615930681E-01  0.51100000000E-03 0.  1.
         11    1    4    4    0    0  0.54402634053E-01 -0.14355705980E-01 -0.28283751983E-02  0.56338208291E-01  0.51100000000E-03 0. -1.
</event>
<event>
 8    1  0.1163913E+005  0.1043930E+01  0.7957747E-01            NaN
         13   -1    0    0    0    0  0.00000000000E+00  0.00000000000E+00  0.74505805969E-08  0.10566000000E+00  0.10566000000E+00 0. -1.
     999900   -1    0    0    0    0 -0.00000000000E+00 -0.00000000000E+00 -0.74505805969E-08  0.93827000000E+00  0.93827000000E+00 0. -1.
     999902    2    1    2    0    0  0.13780882831E-01  0.21613694725E-01 -0.54406842475E-02  0.10177256955E+01  0.10173882866E+01 0.  0.
     999903    2    3    3    0    0 -0.75674778946E-01  0.10300787739E+00 -0.13430589235E-02  0.12944414160E+00  0.20412912913E-01 0.  0.
         14    1    1    2    0    0 -0.13780882831E-01 -0.21613694725E-01  0.54406842475E-02  0.26204304538E-01  0.00000000000E+00 0. -1.
     999901    1    3    3    0    0  0.89455661777E-01 -0.81394182670E-01 -0.40976253240E-02  0.88828155386E+00  0.88000000000E+00 0. -1.
        -11    1    4    4    0    0 -0.36937059880E-01  0.35486465996E-01 -0.53007187428E-02  0.51497518403E-01  0.51100000000E-03 0.  1.
         11    1    4    4    0    0 -0.38737719066E-01  0.67521411398E-01  0.39576598192E-02  0.77946623198E-01  0.51100000000E-03 0. -1.
</event>
<event>
 8    1  0.1163913E+005  0.1043930E+01  0.7957747E-01            NaN
         13   -1    0    0    0    0  0.00000000000E+00  0.00000000000E+00  0.74505805969E-08  0.10566000000E+00  0.10566000000E+00 0. -1.
     999900   -1    0    0    0    0 -0.00000000000E+00 -0.00000000000E+00 -0.74505805969E-08  0.93827000000E+00  0.93827000000E+00 0.  1.
     999902    2    1    2    0    0  0.10384413653E-01 -0.12148666146E-01  0.17067163448E-01  0.10205480795E+01  0.10202801912E+01 0.  0.
     999903    2    3    3    0    0  0.61108652522E-02 -0.11981784028E+00 -0.49193585600E-01  0.13150286071E+00  0.21893743105E-01 0.  0.
         14    1    1    2    0    0 -0.10384413653E-01  0.12148666146E-01 -0.17067163448E-01  0.23381920455E-01  0.00000000000E+00 0. -1.
     999901    1    3    3    0    0  0.42735484008E-02  0.10766917413E+00  0.66260749047E-01  0.88904521884E+00  0.88000000000E+00 0. -1.
        -11    1    4    4    0    0  0.99326523937E-02 -0.36252856991E-01 -0.88073447267E-02  0.38610331075E-01  0.51100000000E-03 0. -1.
         11    1    4    4    0    0 -0.38217871415E-02 -0.83564983286E-01 -0.40386240873E-01  0.92892529631E-01  0.51100000000E-03 0.  1.
</event>
<event>
 8    1  0.1163913E+005  0.1043930E+01  0.7957747E-01            NaN
         13   -1    0    0    0    0  0.00000000000E+00  0.00000000000E+00  0.74505805969E-08  0.10566000000E+00  0.10566000000E+00 0. -1.
     999900   -1    0    0    0    0 -0.00000000000E+00 -0.00000000000E+00 -0.74505805969E-08  0.93827000000E+00  0.93827000000E+00 0. -1.
     999902    2    1    2    0    0  0.84199471599E-02 -0.21215971757E-01 -0.66381988351E-02  0.10201586170E+01  0.10198816231E+01 0.  0.
     999903    2    3    3    0    0  0.99286117567E-01  0.73478825833E-01  0.33400146837E-01  0.12952578872E+00  0.20111915571E-01 0.  0.
         14    1    1    2    0    0 -0.84199471599E-02  0.21215971757E-01  0.66381988351E-02  0.23771383038E-01  0.00000000000E+00 0. -1.
     999901    1    3    3    0    0 -0.90866170407E-01 -0.94694797590E-01 -0.40038345672E-01  0.89063282824E+00  0.88000000000E+00 0. -1.
        -11    1    4    4    0    0  0.72660135451E-01  0.55346392497E-01  0.33552750624E-01  0.97307587790E-01  0.51100000000E-03 0. -1.
         11    1    4    4    0    0  0.26625982117E-01  0.18132433336E-01 -0.15260378699E-03  0.32218200932E-01  0.51100000000E-03 0.  1.
</event>
<event>
 8    1  0.1163913E+005  0.1043930E+01  0.7957747E-01            NaN
         13   -1    0    0    0    0  0.00000000000E+00  0.00000000000E+00  0.74505805969E-08  0.10566000000E+00  0.10566000000E+00 0. -1.
     999900   -1    0    0    0    0 -0.00000000000E+00 -0.00000000000E+00 -0.74505805969E-08  0.93827000000E+00  0.93827000000E+00 0. -1.
     999902    2    1    2    0    0 -0.47031967021E-02 -0.15686026000E-01  0.16994846452E-01  0.10203292314E+01  0.10200562456E+01 0.  0.
     999903    2    3    3    0    0 -0.37571990353E-01 -0.12560592457E+00  0.12510149895E-01  0.13287058214E+00  0.17595027767E-01 0.  0.
         14    1    1    2    0    0  0.47031967021E-02  0.15686026000E-01 -0.16994846452E-01  0.23600768564E-01  0.00000000000E+00 0.  1.
     999901    1    3    3    0    0  0.32868793651E-01  0.10991989857E+00  0.44846965566E-02  0.88745864929E+00  0.88000000000E+00 0. -1.
        -11    1    4    4    0    0 -0.18707091160E-01 -0.50165714041E-01 -0.27883473360E-02  0.53615204250E-01  0.51100000000E-03 0.  1.
         11    1    4    4    0    0 -0.18864899193E-01 -0.75440210532E-01  0.15298497231E-01  0.79255377895E-01  0.51100000000E-03 0. -1.
</event>
<event>
 8    1  0.1163913E+005  0.1043930E+01  0.7957747E-01            NaN
         13   -1    0    0    0    0  0.00000000000E+00  0.00000000000E+00  0.74505805969E-08  0.10566000000E+00  0.10566000000E+00 0. -1.
     999900   -1    0    0    0    0 -0.00000000000E+00 -0.00000000000E+00 -0.74505805969E-08  0.93827000000E+00  0.93827000000E+00 0.  1.
     999902    2    1    2    0    0 -0.43318964707E-02  0.14387463212E-01 -0.17420727506E-01  0.10209246491E+01  0.10206654167E+01 0.  0.
     999903    2    3    3    0    0  0.73623776118E-01 -0.20636833034E-01  0.10142592457E+00  0.12883254904E+00  0.21546884497E-01 0.  0.
         14    1    1    2    0    0  0.43318964707E-02 -0.14387463212E-01  0.17420727506E-01  0.23005350933E-01  0.00000000000E+00 0. -1.
     999901    1    3    3    0    0 -0.77955672589E-01  0.35024296246E-01 -0.11884665207E+00  0.89209210002E+00  0.88000000000E+00 0.  1.
        -11    1    4    4    0    0  0.51666145649E-01 -0.54082704565E-02  0.75100709969E-01  0.91318222466E-01  0.51100000000E-03 0.  1.
         11    1    4    4    0    0  0.21957630469E-01 -0.15228562577E-01  0.26325214596E-01  0.37514326577E-01  0.51100000000E-03 0. -1.
</event>
<event>
 8    1  0.1163913E+005  0.1043930E+01  0.7957747E-01            NaN
         13   -1    0    0    0    0  0.00000000000E+00  0.00000000000E+00  0.74505805969E-08  0.10566000000E+00  0.10566000000E+00 0. -1.
     999900   -1    0    0    0    0 -0.00000000000E+00 -0.00000000000E+00 -0.74505805969E-08  0.93827000000E+00  0.93827000000E+00 0.  1.
     999902    2    1    2    0    0 -0.60569141595E-02 -0.23040056067E-02 -0.23224179612E-01  0.10198186506E+01  0.10195335811E+01 0.  0.
     999903    2    3    3    0    0 -0.10882977599E+00  0.69711186694E-01 -0.55293425327E-02  0.13073960108E+00  0.18939376132E-01 0.  0.
         14    1    1    2    0    0  0.60569141595E-02  0.23040056067E-02  0.23224179612E-01  0.24111349395E-01  0.00000000000E+00 0. -1.
     999901    1    3    3    0    0  0.10277286183E+00 -0.72015192301E-01 -0.17694837079E-01  0.88907904953E+00  0.88000000000E+00 0.  1.
        -11    1    4    4    0    0 -0.81155578851E-01  0.61062362298E-01 -0.26437810067E-02  0.10159769076E+00  0.51100000000E-03 0.  1.
         11    1    4    4    0    0 -0.27674197140E-01  0.86488243961E-02 -0.28855615260E-02  0.29141910320E-01  0.51100000000E-03 0. -1.
</event>
<event>
 8    1  0.1163913E+005  0.1043930E+01  0.7957747E-01            NaN
         13   -1    0    0    0    0  0.00000000000E+00  0.00000000000E+00  0.74505805969E-08  0.10566000000E+00  0.10566000000E+00 0.  1.
     999900   -1    0    0    0    0 -0.00000000000E+00 -0.00000000000E+00 -0.74505805969E-08  0.93827000000E+00  0.93827000000E+00 0.  1.
     999902    2    1    2    0    0 -0.22994705346E-02  0.58775082416E-02  0.22757624436E-01  0.10203134351E+01  0.10200400795E+01 0.  0.
     999903    2    3    3    0    0 -0.37268035134E-01  0.64292190668E-01  0.10933808502E+00  0.13344746338E+00  0.18193856748E-01 0.  0.
         14    1    1    2    0    0  0.22994705346E-02 -0.58775082416E-02 -0.22757624436E-01  0.23616564904E-01  0.00000000000E+00 0. -1.
     999901    1    3    3    0    0  0.34968564600E-01 -0.58414682426E-01 -0.86580460582E-01  0.88686597172E+00  0.88000000000E+00 0.  1.
        -11    1    4    4    0    0 -0.32519278438E-01  0.49368072688E-01  0.96596083577E-01  0.11325093622E+00  0.51100000000E-03 0. -1.
         11    1    4    4    0    0 -0.47487566960E-02  0.14924117979E-01  0.12742001442E-01  0.20196527161E-01  0.51100000000E-03 0.  1.
</event>
<event>
 8    1  0.1163913E+005  0.1043930E+01  0.7957747E-01            NaN
         13   -1    0    0    0    0  0.00000000000E+00  0.00000000000E+00  0.74505805969E-08  0.10566000000E+00  0.10566000000E+00 0. -1.
     999900   -1    0    0    0    0 -0.00000000000E+00 -0.00000000000E+00 -0.74505805969E-08  0.93827000000E+00  0.93827000000E+00 0.  1.
     999902    2    1    2    0    0  0.18827565735E-01 -0.12026283297E-01  0.68963432725E-03  0.10215786171E+01  0.10213340720E+01 0.  0.
     999903    2    3    3    0    0  0.67084201886E-01 -0.11106131650E+00 -0.28583878492E-01  0.13422661295E+00  0.19100768318E-01 0.  0.
         14    1    1    2    0    0 -0.18827565735E-01  0.12026283297E-01 -0.68963432725E-03  0.22351382887E-01  0.00000000000E+00 0.  1.
     999901    1    3    3    0    0 -0.48256636151E-01  0.99035033202E-01  0.29273512819E-01  0.88735200416E+00  0.88000000000E+00 0.  1.
        -11    1    4    4    0    0  0.49636474768E-01 -0.76034626336E-01 -0.11513870443E-01  0.91530729064E-01  0.51100000000E-03 0.  1.
         11    1    4    4    0    0  0.17447727118E-01 -0.35026690162E-01 -0.17070008049E-01  0.42695883890E-01  0.51100000000E-03 0. -1.
</event>
<event>
 8    1  0.1163913E+005  0.1043930E+01  0.7957747E-01            NaN
         13   -1    0    0    0    0  0.00000000000E+00  0.00000000000E+00  0.74505805969E-08  0.10566000000E+00  0.10566000000E+00 0. -1.
     999900   -1    0    0    0    0 -0.00000000000E+00 -0.00000000000E+00 -0.74505805969E-08  0.93827000000E+00  0.93827000000E+00 0.  1.
     999902    2    1    2    0    0  0.81323552602E-02 -0.55595158345E-02 -0.21515980232E-01  0.10202660860E+01  0.10199916203E+01 0.  0.
     999903    2    3    3    0    0  0.32686514707E-02 -0.81869612103E-01  0.97684730110E-01  0.12894364397E+00  0.19257189670E-01 0.  0.
         14    1    1    2    0    0 -0.81323552602E-02  0.55595158345E-02  0.21515980232E-01  0.23663913956E-01  0.00000000000E+00 0. -1.
     999901    1    3    3    0    0  0.48637037894E-02  0.76310096269E-01 -0.11920071034E+00  0.89132244208E+00  0.88000000000E+00 0.  1.
        -11    1    4    4    0    0  0.10474115361E-02 -0.38871887679E-01  0.61178749863E-01  0.72492905022E-01  0.51100000000E-03 0. -1.
         11    1    4    4    0    0  0.22212399346E-02 -0.42997724424E-01  0.36505980247E-01  0.56450738943E-01  0.51100000000E-03 0.  1.
</event>
<event>
 8    1  0.1163913E+005  0.1043930E+01  0.7957747E-01            NaN
         13   -1    0    0    0    0  0.00000000000E+00  0.00000000000E+00  0.74505805969E-08  0.10566000000E+00  0.10566000000E+00 0. -1.
     999900   -1    0    0    0    0 -0.00000000000E+00 -0.00000000000E+00 -0.74505805969E-08  0.93827000000E+00  0.93827000000E+00 0.  1.
     999902    2    1    2    0    0 -0.64347192108E-02  0.57596475542E-02  0.21975334948E-01  0.10203186786E+01  0.10200454458E+01 0.  0.
     999903    2    3    3    0    0 -0.64811089391E-01 -0.10985153881E+00  0.21025853569E-01  0.13083869092E+00  0.20219758551E-01 0.  0.
         14    1    1    2    0    0  0.64347192108E-02 -0.57596475542E-02 -0.21975334948E-01  0.23611321380E-01  0.00000000000E+00 0.  1.
     999901    1    3    3    0    0  0.58376370180E-01  0.11561118636E+00  0.94948137811E-03  0.88947998770E+00  0.88000000000E+00 0.  1.
        -11    1    4    4    0    0 -0.45669914474E-01 -0.62206405022E-01  0.63490682348E-02  0.77433517951E-01  0.51100000000E-03 0.  1.
         11    1    4    4    0    0 -0.19141174917E-01 -0.47645133787E-01  0.14676785335E-01  0.53405172966E-01  0.51100000000E-03 0. -1.
</event>
<event>
 8    1  0.1163913E+005  0.1043930E+01  0.7957747E-01            NaN
         13   -1    0    0    0    0  0.00000000000E+00  0.00000000000E+00  0.74505805969E-08  0.10566000000E+00  0.10566000000E+00 0.  1.
     999900   -1    0    0    0    0 -0.00000000000E+00 -0.00000000000E+00 -0.74505805969E-08  0.93827000000E+00  0.93827000000E+00 0.  1.
     999902    2    1    2    0    0  0.30403365654E-02 -0.20352789012E-01  0.37918795380E-02  0.10230049428E+01  0.10227909146E+01 0.  0.
     999903    2    3    3    0    0  0.38552132814E-01  0.11745248790E+00  0.38116308052E-01  0.13091215147E+00  0.20094392351E-01 0.  0.
         14    1    1    2    0    0 -0.30403365654E-02  0.20352789012E-01 -0.37918795380E-02  0.20925057167E-01  0.00000000000E+00 0. -1.
     999901    1    3    3    0    0 -0.35511796249E-01 -0.13780527691E+00 -0.34324428514E-01  0.89209279137E+00  0.88000000000E+00 0.  1.
        -11    1    4    4    0    0  0.21734719394E-01  0.87350383353E-01  0.21090213526E-01  0.92452937902E-01  0.51100000000E-03 0. -1.
         11    1    4    4    0    0  0.16817413420E-01  0.30102104545E-01  0.17026094526E-01  0.38459213564E-01  0.51100000000E-03 0.  1.
</event>
<event>
 8    1  0.1163913E+005  0.1043930E+01  0.7957747E-01            NaN
         13   -1    0    0    0    0  0.00000000000E+00  0.00000000000E+00  0.74505805969E-08  0.10566000000E+00  0.10566000000E+00 0. -1.
     999900   -1    0    0    0    0 -0.00000000000E+00 -0.00000000000E+00 -0.74505805969E-08  0.93827000000E+00  0.93827000000E+00 0. -1.
     999902    2    1    2    0    0  0.74056012269E-02 -0.23060196214E-02  0.22444706424E-01  0.10201828843E+01  0.10199064624E+01 0.  0.
     999903    2    3    3    0    0 -0.12292354491E+00  0.33511036323E-01  0.15392995052E-01  0.12983560688E+00  0.19676205647E-01 0.  0.
         14    1    1    2    0    0 -0.74056012269E-02  0.23060196214E-02 -0.22444706424E-01  0.23747115667E-01  0.00000000000E+00 0.  1.
     999901    1    3    3    0    0  0.13032914614E+00 -0.35817055944E-01  0.70517113721E-02  0.89034727745E+00  0.88000000000E+00 0. -1.
        -11    1    4    4    0    0 -0.67450997643E-01  0.15051837155E-01 -0.98702077087E-03  0.69118956993E-01  0.51100000000E-03 0.  1.
         11    1    4    4    0    0 -0.55472547269E-01  0.18459199168E-01  0.16380015823E-01  0.60716649890E-01  0.51100000000E-03 0. -1.
</event>
<event>
 8    1  0.1163913E+005  0.1043930E+01  0.7957747E-01            NaN
         13   -1    0    0    0    0  0.00000000000E+00  0.00000000000E+00  0.74505805969E-08  0.10566000000E+00  0.10566000000E+00 0.  1.
     999900   -1    0    0    0    0 -0.00000000000E+00 -0.00000000000E+00 -0.74505805969E-08  0.93827000000E+00  0.93827000000E+00 0. -1.
     999902    2    1    2    0    0 -0.16938269473E-01  0.15341790829E-01 -0.60699537143E-02  0.10202842846E+01  0.10200102458E+01 0.  0.
     999903    2    3    3    0    0 -0.75187680289E-01  0.10563745449E+00 -0.22709457234E-01  0.13359201904E+00  0.22773867547E-01 0.  0.
         14    1    1    2    0    0  0.16938269473E-01 -0.15341790829E-01  0.60699537143E-02  0.23645715397E-01  0.00000000000E+00 0.  1.
     999901    1    3    3    0    0  0.58249410817E-01 -0.90295663666E-01  0.16639503520E-01  0.88669226557E+00  0.88000000000E+00 0.  1.
        -11    1    4    4    0    0 -0.40228265947E-01  0.75141144859E-01 -0.13602837917E-01  0.86312243351E-01  0.51100000000E-03 0.  1.
         11    1    4    4    0    0 -0.34959414342E-01  0.30496309636E-01 -0.91066193166E-02  0.47279775686E-01  0.51100000000E-03 0. -1.
</event>
<event>
 8    1  0.1363955E+005  0.1043930E+01  0.7957747E-01            NaN
         13   -1    0    0    0    0  0.00000000000E+00  0.00000000000E+00  0.74505805969E-08  0.10566000000E+00  0.10566000000E+00 0.  1.
     999900   -1    0    0    0    0 -0.00000000000E+00 -0.00000000000E+00 -0.74505805969E-08  0.93827000000E+00  0.93827000000E+00 0. -1.
     999902    2    1    2    0    0  0.14993047750E-01  0.21048245143E-02 -0.17842365265E-01  0.10205297486E+01  0.10202614351E+01 0.  0.
     999903    2    3    3    0    0 -0.91832039233E-01  0.86761049173E-01 -0.23660203498E-01  0.13001746749E+00  0.19599324958E-01 0.  0.
         14    1    1    2    0    0 -0.14993047750E-01 -0.21048245143E-02  0.17842365265E-01  0.23400251394E-01  0.00000000000E+00 0. -1.
     999901    1    3    3    0    0  0.10682508698E+00 -0.84656224659E-01  0.58178382338E-02  0.89051228112E+00  0.88000000000E+00 0.  1.
        -11    1    4    4    0    0 -0.51866490092E-01  0.51444698358E-01 -0.39680997226E-02  0.73162126268E-01  0.51100000000E-03 0. -1.
         11    1    4    4    0    0 -0.39965549141E-01  0.35316350815E-01 -0.19692103776E-01  0.56855341219E-01  0.51100000000E-03 0.  1.
</event>
<event>
 8    1  0.1163913E+005  0.1043930E+01  0.7957747E-01            NaN
         13   -1    0    0    0    0  0.00000000000E+00  0.00000000000E+00  0.74505805969E-08  0.10566000000E+00  0.10566000000E+00 0.  1.
     999900   -1    0    0    0    0 -0.00000000000E+00 -0.00000000000E+00 -0.74505805969E-08  0.93827000000E+00  0.93827000000E+00 0.  1.
     999902    2    1    2    0    0  0.32353472123E-03 -0.22530661504E-01  0.70669201713E-02  0.10203148196E+01  0.10200414964E+01 0.  0.
     999903    2    3    3    0    0  0.85176156572E-01  0.91064396037E-01  0.22868542912E-01  0.12882533804E+00  0.22919327909E-01 0.  0.
         14    1    1    2    0    0 -0.32353472123E-03  0.22530661504E-01 -0.70669201713E-02  0.23615180355E-01  0.00000000000E+00 0. -1.
     999901    1    3    3    0    0 -0.84852621851E-01 -0.11359505754E+00 -0.15801622741E-01  0.89148948161E+00  0.88000000000E+00 0. -1.
        -11    1    4    4    0    0  0.58722274744E-01  0.74097069893E-01  0.10818783016E-01  0.95162957629E-01  0.51100000000E-03 0.  1.
         11    1    4    4    0    0  0.26453881828E-01  0.16967326145E-01  0.12049759896E-01  0.33662380409E-01  0.51100000000E-03 0. -1.
</event>
<event>
 8    1  0.1163913E+005  0.1043930E+01  0.7957747E-01            NaN
         13   -1    0    0    0    0  0.00000000000E+00  0.00000000000E+00  0.74505805969E-08  0.10566000000E+00  0.10566000000E+00 0. -1.
     999900   -1    0    0    0    0 -0.00000000000E+00 -0.00000000000E+00 -0.74505805969E-08  0.93827000000E+00  0.93827000000E+00 0.  1.
     999902    2    1    2    0    0 -0.69987904551E-02  0.10922909756E-01 -0.21292846638E-01  0.10189965216E+01  0.10186914316E+01 0.  0.
     999903    2    3    3    0    0  0.54934049948E-02 -0.12476922552E+00  0.17357211357E-01  0.12767040988E+00  0.20023077634E-01 0.  0.
         14    1    1    2    0    0  0.69987904551E-02 -0.10922909756E-01  0.21292846638E-01  0.24933478364E-01  0.00000000000E+00 0. -1.
     999901    1    3    3    0    0 -0.12492195450E-01  0.13569213527E+00 -0.38650057995E-01  0.89132611176E+00  0.88000000000E+00 0.  1.
        -11    1    4    4    0    0 -0.33627266965E-02 -0.39403552569E-01 -0.23206391377E-02  0.39618106629E-01  0.51100000000E-03 0. -1.
         11    1    4    4    0    0  0.88561316913E-02 -0.85365672946E-01  0.19677850494E-01  0.88052303247E-01  0.51100000000E-03 0.  1.
</event>
<event>
 8    1  0.1163913E+005  0.1043930E+01  0.7957747E-01            NaN
         13   -1    0    0    0    0  0.00000000000E+00  0.00000000000E+00  0.74505805969E-08  0.10566000000E+00  0.10566000000E+00 0.  1.
     999900   -1    0    0    0    0 -0.00000000000E+00 -0.00000000000E+00 -0.74505805969E-08  0.93827000000E+00  0.93827000000E+00 0. -1.
     999902    2    1    2    0    0  0.72435255320E-03  0.74102784550E-02 -0.23946077875E-01  0.10188530871E+01  0.10185444328E+01 0.  0.
     999903    2    3    3    0    0  0.61445177422E-01  0.19034006237E-01 -0.11372458819E+00  0.13212747538E+00  0.19661753972E-01 0.  0.
         14    1    1    2    0    0 -0.72435255320E-03 -0.74102784550E-02  0.23946077875E-01  0.25076912868E-01  0.00000000000E+00 0.  1.
     999901    1    3    3    0    0 -0.60720824869E-01 -0.11623727782E-01  0.89778510317E-01  0.88672561175E+00  0.88000000000E+00 0.  1.
        -11    1    4    4    0    0  0.51379108149E-01  0.79479143317E-02 -0.82916578490E-01  0.97869311870E-01  0.51100000000E-03 0.  1.
         11    1    4    4    0    0  0.10066069272E-01  0.11086091905E-01 -0.30808009702E-01  0.34258163511E-01  0.51100000000E-03 0. -1.
</event>
<event>
 7    1  0.1163913E+005  0.1043930E+01  0.7957747E-01            NaN
         13   -1    0    0    0    0  0.00000000000E+00  0.00000000000E+00  0.74505805969E-08  0.10566000000E+00  0.10566000000E+00 0.  1.
     999900   -1    0    0    0    0 -0.00000000000E+00 -0.00000000000E+00 -0.74505805969E-08  0.93827000000E+00  0.93827000000E+00 0.  1.
     999903    2    1    2    0    0 -0.82500730371E-01  0.29699641004E-01 -0.68926232946E-01  0.11309497058E+00  0.18740533463E-01 0.  0.
         14    1    1    2    0    0 -0.29889466819E-01  0.25155806817E-01 -0.23664431157E-02  0.39138151418E-01  0.00000000000E+00 0.  1.
     999901    1    1    2    0    0  0.11239019719E+00 -0.54855447822E-01  0.71292676062E-01  0.89169687800E+00  0.88000000000E+00 0. -1.
        -11    1    3    3    0    0 -0.56737919339E-01  0.18049324009E-01 -0.35541708494E-01  0.69342943057E-01  0.51100000000E-03 0. -1.
         11    1    3    3    0    0 -0.25762811032E-01  0.11650316996E-01 -0.33384524453E-01  0.43752027522E-01  0.51100000000E-03 0.  1.
</event>
<event>
 8    1  0.1163913E+005  0.1043930E+01  0.7957747E-01            NaN
         13   -1    0    0    0    0  0.00000000000E+00  0.00000000000E+00  0.74505805969E-08  0.10566000000E+00  0.10566000000E+00 0. -1.
     999900   -1    0    0    0    0 -0.00000000000E+00 -0.00000000000E+00 -0.74505805969E-08  0.93827000000E+00  0.93827000000E+00 0.  1.
     999902    2    1    2    0    0 -0.17043935599E-01 -0.68594068425E-02  0.15740021074E-01  0.10197371195E+01  0.10194500956E+01 0.  0.
     999903    2    3    3    0    0  0.34122667370E-01  0.11699190763E+00  0.38565064769E-01  0.12930006279E+00  0.19487922897E-01 0.  0.
         14    1    1    2    0    0  0.17043935599E-01  0.68594068425E-02 -0.15740021074E-01  0.24192880489E-01  0.00000000000E+00 0.  1.
     999901    1    3    3    0    0 -0.51166602969E-01 -0.12385131447E+00 -0.22825043695E-01  0.89043705672E+00  0.88000000000E+00 0.  1.
        -11    1    4    4    0    0  0.23062050710E-01  0.44989809680E-01  0.15097177662E-01  0.52764827796E-01  0.51100000000E-03 0. -1.
         11    1    4    4    0    0  0.11060616660E-01  0.72002097949E-01  0.23467887106E-01  0.76535234998E-01  0.51100000000E-03 0.  1.
</event>
<event>
 8    1  0.1163913E+005  0.1043930E+01  0.7957747E-01            NaN
         13   -1    0    0    0    0  0.00000000000E+00  0.00000000000E+00  0.74505805969E-08  0.10566000000E+00  0.10566000000E+00 0.  1.
     999900   -1    0    0    0    0 -0.00000000000E+00 -0.00000000000E+00 -0.74505805969E-08  0.93827000000E+00  0.93827000000E+00 0. -1.
     999902    2    1    2    0    0  0.49023833328E-02 -0.21728642764E-01  0.84699641868E-02  0.10200991886E+01  0.10198207916E+01 0.  0.
     999903    2    3    3    0    0 -0.95359375430E-01  0.79676803128E-01  0.24091090928E-01  0.12848295707E+00  0.22038288408E-01 0.  0.
         14    1    1    2    0    0 -0.49023833328E-02  0.21728642764E-01 -0.84699641868E-02  0.23830811401E-01  0.00000000000E+00 0. -1.
     999901    1    3    3    0    0  0.10026175876E+00 -0.10140544589E+00 -0.15621126741E-01  0.89161623153E+00  0.88000000000E+00 0. -1.
        -11    1    4    4    0    0 -0.34258949860E-01  0.15545197885E-01  0.71673668582E-02  0.38300928076E-01  0.51100000000E-03 0.  1.
         11    1    4    4    0    0 -0.61100425570E-01  0.64131605243E-01  0.16923724069E-01  0.90182028993E-01  0.51100000000E-03 0. -1.
</event>
<event>
 8    1  0.1163913E+005  0.1043930E+01  0.7957747E-01            NaN
         13   -1    0    0    0    0  0.00000000000E+00  0.00000000000E+00  0.74505805969E-08  0.10566000000E+00  0.10566000000E+00 0. -1.
     999900   -1    0    0    0    0 -0.00000000000E+00 -0.00000000000E+00 -0.74505805969E-08  0.93827000000E+00  0.93827000000E+00 0.  1.
     999902    2    1    2    0    0 -0.44125834587E-02  0.13322590767E-01  0.17718283506E-01  0.10213269053E+01  0.10210767590E+01 0.  0.
     999903    2    3    3    0    0 -0.44645400071E-01  0.36378025509E-01  0.11963642675E+00  0.13423190450E+00  0.19716924016E-01 0.  0.
         14    1    1    2    0    0  0.44125834587E-02 -0.13322590767E-01 -0.17718283506E-01  0.22603094653E-01  0.00000000000E+00 0.  1.
     999901    1    3    3    0    0  0.40232816612E-01 -0.23055434742E-01 -0.10191814325E+00  0.88709500085E+00  0.88000000000E+00 0.  1.
        -11    1    4    4    0    0 -0.28989559734E-03  0.10989587354E-02  0.16511684479E-01  0.16558641101E-01  0.51100000000E-03 0. -1.
         11    1    4    4    0    0 -0.44355504473E-01  0.35279066774E-01  0.10312474227E+00  0.11767326340E+00  0.51100000000E-03 0.  1.
</event>
<event>
 8    1  0.1163913E+005  0.1043930E+01  0.7957747E-01            NaN
         13   -1    0    0    0    0  0.00000000000E+00  0.00000000000E+00  0.74505805969E-08  0.10566000000E+00  0.10566000000E+00 0.  1.
     999900   -1    0    0    0    0 -0.00000000000E+00 -0.00000000000E+00 -0.74505805969E-08  0.93827000000E+00  0.93827000000E+00 0.  1.
     999902    2    1    2    0    0 -0.69899827481E-02  0.11931494936E-01  0.20568709605E-01  0.10191450803E+01  0.10188436595E+01 0.  0.
     999903    2    3    3    0    0 -0.79701657621E-01  0.66243302774E-01  0.80059161159E-01  0.13247948721E+00  0.20020385980E-01 0.  0.
         14    1    1    2    0    0  0.69899827481E-02 -0.11931494936E-01 -0.20568709605E-01  0.24784919710E-01  0.00000000000E+00 0. -1.
     999901    1    3    3    0    0  0.72711674873E-01 -0.54311807837E-01 -0.59490451553E-01  0.88666559308E+00  0.88000000000E+00 0.  1.
        -11    1    4    4    0    0 -0.30365839449E-01  0.32552296626E-01  0.44537835733E-01  0.62973138351E-01  0.51100000000E-03 0.  1.
         11    1    4    4    0    0 -0.49335818173E-01  0.33691006147E-01  0.35521325426E-01  0.69506348854E-01  0.51100000000E-03 0. -1.
</event>
<event>
 8    1  0.1163913E+005  0.1043930E+01  0.7957747E-01            NaN
         13   -1    0    0    0    0  0.00000000000E+00  0.00000000000E+00  0.74505805969E-08  0.10566000000E+00  0.10566000000E+00 0.  1.
     999900   -1    0    0    0    0 -0.00000000000E+00 -0.00000000000E+00 -0.74505805969E-08  0.93827000000E+00  0.93827000000E+00 0.  1.
     999902    2    1    2    0    0  0.20232958542E-02  0.22268536639E-01 -0.24409835979E-02  0.10214368933E+01  0.10211892024E+01 0.  0.
     999903    2    3    3    0    0  0.11801727033E+00  0.35267542084E-01 -0.45392883463E-01  0.13269146178E+00  0.19355478270E-01 0.  0.
         14    1    1    2    0    0 -0.20232958542E-02 -0.22268536639E-01  0.24409835979E-02  0.22493106746E-01  0.00000000000E+00 0. -1.
     999901    1    3    3    0    0 -0.11599397448E+00 -0.12999005445E-01  0.42951899865E-01  0.88874543147E+00  0.88000000000E+00 0.  1.
        -11    1    4    4    0    0  0.77022148638E-01  0.27106821559E-01 -0.38682489423E-01  0.90353678757E-01  0.51100000000E-03 0.  1.
         11    1    4    4    0    0  0.40995121696E-01  0.81607205254E-02 -0.67103940397E-02  0.42337783026E-01  0.51100000000E-03 0. -1.
</event>
<event>
 8    1  0.1163913E+005  0.1043930E+01  0.7957747E-01            NaN
         13   -1    0    0    0    0  0.00000000000E+00  0.00000000000E+00  0.74505805969E-08  0.10566000000E+00  0.10566000000E+00 0. -1.
     999900   -1    0    0    0    0 -0.00000000000E+00 -0.00000000000E+00 -0.74505805969E-08  0.93827000000E+00  0.93827000000E+00 0.  1.
     999902    2    1    2    0    0 -0.49923547664E-02 -0.78238819764E-03  0.24047144454E-01  0.10193576396E+01  0.10190614293E+01 0.  0.
     999903    2    3    3    0    0  0.86824078903E-01 -0.29922731234E-01 -0.85948329130E-01  0.12729350445E+00  0.19563498464E-01 0.  0.
         14    1    1    2    0    0  0.49923547664E-02  0.78238819764E-03 -0.24047144454E-01  0.24572360363E-01  0.00000000000E+00 0. -1.
     999901    1    3    3    0    0 -0.91816433670E-01  0.29140343036E-01  0.10999547358E+00  0.89206413519E+00  0.88000000000E+00 0. -1.
        -11    1    4    4    0    0  0.80432975475E-01 -0.32191384203E-01 -0.76029972557E-01  0.11526737010E+00  0.51100000000E-03 0.  1.
         11    1    4    4    0    0  0.63911034283E-02  0.22686529692E-02 -0.99183565729E-02  0.12026134351E-01  0.51100000000E-03 0. -1.
</event>
<event>
 8    1  0.1163913E+005  0.1043930E+01  0.7957747E-01            NaN
         13   -1    0    0    0    0  0.00000000000E+00  0.00000000000E+00  0.74505805969E-08  0.10566000000E+00  0.10566000000E+00 0. -1.
     999900   -1    0    0    0    0 -0.00000000000E+00 -0.00000000000E+00 -0.74505805969E-08  0.93827000000E+00  0.93827000000E+00 0.  1.
     999902    2    1    2    0    0 -0.68809127177E-02 -0.89597877690E-02  0.24773383066E-01  0.10167023437E+01  0.10163376951E+01 0.  0.
     999903    2    3    3    0    0  0.11202062090E+00 -0.13675147578E-01  0.56952789714E-01  0.12811057947E+00  0.20810361579E-01 0.  0.
         14    1    1    2    0    0  0.68809127177E-02  0.89597877690E-02 -0.24773383066E-01  0.27227656256E-01  0.00000000000E+00 0.  1.
     999901    1    3    3    0    0 -0.11890153362E+00  0.47153598090E-02 -0.32179406649E-01  0.88859176427E+00  0.88000000000E+00 0. -1.
        -11    1    4    4    0    0  0.24448235857E-01  0.38095018691E-03  0.21601156110E-01  0.32630237907E-01  0.51100000000E-03 0.  1.
         11    1    4    4    0    0  0.87572385042E-01 -0.14056097765E-01  0.35351633605E-01  0.95480341568E-01  0.51100000000E-03 0. -1.
</event>
<event>
 8    1  0.1163913E+005  0.1043930E+01  0.7957747E-01            NaN
         13   -1    0    0    0    0  0.00000000000E+00  0.00000000000E+00  0.74505805969E-08  0.10566000000E+00  0.10566000000E+00 0.  1.
     999900   -1    0    0    0    0 -0.00000000000E+00 -0.00000000000E+00 -0.74505805969E-08  0.93827000000E+00  0.93827000000E+00 0.  1.
     999902    2    1    2    0    0 -0.12539935384E-01  0.85399443904E-02  0.19756493826E-01  0.10190201691E+01  0.10187156646E+01 0.  0.
     999903    2    3    3    0    0  0.51572878205E-01  0.11317811355E+00  0.35118819589E-01  0.13037198199E+00  0.17160275244E-01 0.  0.
         14    1    1    2    0    0  0.12539935384E-01 -0.85399443904E-02 -0.19756493826E-01  0.24909830949E-01  0.00000000000E+00 0. -1.
     999901    1    3    3    0    0 -0.64112813589E-01 -0.10463816916E+00 -0.15362325763E-01  0.88864818706E+00  0.88000000000E+00 0. -1.
        -11    1    4    4    0    0  0.12211935216E-01  0.23976796309E-01  0.15023363865E-01  0.30821757020E-01  0.51100000000E-03 0.  1.
         11    1    4    4    0    0  0.39360942988E-01  0.89201317239E-01  0.20095455724E-01  0.99550224972E-01  0.51100000000E-03 0. -1.
</event>
<event>
 8    1  0.1163913E+005  0.1043930E+01  0.7957747E-01            NaN
         13   -1    0    0    0    0  0.00000000000E+00  0.00000000000E+00  0.74505805969E-08  0.10566000000E+00  0.10566000000E+00 0. -1.
     999900   -1    0    0    0    0 -0.00000000000E+00 -0.00000000000E+00 -0.74505805969E-08  0.93827000000E+00  0.93827000000E+00 0.  1.
     999902    2    1    2    0    0 -0.61103592828E-02  0.23822461505E-01 -0.14358101606E-02  0.10192945030E+01  0.10189967498E+01 0.  0.
     999903    2    3    3    0    0  0.49868336254E-01  0.98220305325E-01 -0.69347394710E-01  0.13178076402E+00  0.20567675474E-01 0.  0.
         14    1    1    2    0    0  0.61103592828E-02 -0.23822461505E-01  0.14358101606E-02  0.24635497022E-01  0.00000000000E+00 0.  1.
     999901    1    3    3    0    0 -0.55978695537E-01 -0.74397843820E-01  0.67911584549E-01  0.88751373896E+00  0.88000000000E+00 0. -1.
        -11    1    4    4    0    0  0.40339534687E-01  0.57555978415E-01 -0.43049638249E-01  0.82422698236E-01  0.51100000000E-03 0.  1.
         11    1    4    4    0    0  0.95288015671E-02  0.40664326910E-01 -0.26297756461E-01  0.49358065787E-01  0.51100000000E-03 0. -1.
</event>
<event>
 8    1  0.1163913E+005  0.1043930E+01  0.7957747E-01            NaN
         13   -1    0    0    0    0  0.00000000000E+00  0.00000000000E+00  0.74505805969E-08  0.10566000000E+00  0.10566000000E+00 0. -1.
     999900   -1    0    0    0    0 -0.00000000000E+00 -0.00000000000E+00 -0.74505805969E-08  0.93827000000E+00  0.93827000000E+00 0. -1.
     999902    2    1    2    0    0  0.19502276282E-01 -0.14775743675E-01  0.21273219715E-02  0.10193701368E+01  0.10190742313E+01 0.  0.
     999903    2    3    3    0    0  0.94698407065E-01  0.64548617218E-01 -0.59338224669E-01  0.13048047788E+00  0.19230650442E-01 0.  0.
         14    1    1    2    0    0 -0.19502276282E-01  0.14775743675E-01 -0.21273219715E-02  0.24559863194E-01  0.00000000000E+00 0. -1.
     999901    1    3    3    0    0 -0.75196130783E-01 -0.79324360893E-01  0.61465546640E-01  0.88888965892E+00  0.88000000000E+00 0.  1.
        -11    1    4    4    0    0  0.49264249286E-01  0.36261348187E-01 -0.42062742953E-01  0.74238716959E-01  0.51100000000E-03 0. -1.
         11    1    4    4    0    0  0.45434157779E-01  0.28287269031E-01 -0.17275481716E-01  0.56241760924E-01  0.51100000000E-03 0.  1.
</event>
<event>
 8    1  0.1163913E+005  0.1043930E+01  0.7957747E-01            NaN
         13   -1    0    0    0    0  0.00000000000E+00  0.00000000000E+00  0.74505805969E-08  0.10566000000E+00  0.10566000000E+00 0. -1.
     999900   -1    0    0    0    0 -0.00000000000E+00 -0.00000000000E+00 -0.74505805969E-08  0.93827000000E+00  0.93827000000E+00 0.  1.
     999902    2    1    2    0    0  0.12593364547E-01  0.20064519891E-01 -0.28244967401E-02  0.10200730184E+01  0.10197940024E+01 0.  0.
     999903    2    3    3    0    0 -0.99190442724E-01  0.40053224261E-01 -0.71652426347E-01  0.13011096766E+00  0.18756039094E-01 0.  0.
         14    1    1    2    0    0 -0.12593364547E-01 -0.20064519891E-01  0.28244967401E-02  0.23856981596E-01  0.00000000000E+00 0. -1.
     999901    1    3    3    0    0  0.11178380727E+00 -0.19988704370E-01  0.68827929607E-01  0.88996205074E+00  0.88000000000E+00 0. -1.
        -11    1    4    4    0    0 -0.44450466512E-02  0.65289980776E-02 -0.73247053741E-02  0.10784186824E-01  0.51100000000E-03 0.  1.
         11    1    4    4    0    0 -0.94745396073E-01  0.33524226183E-01 -0.64327720973E-01  0.11932678084E+00  0.51100000000E-03 0. -1.
</event>
<event>
 8    1  0.1163913E+005  0.1043930E+01  0.7957747E-01            NaN
         13   -1    0    0    0    0  0.00000000000E+00  0.00000000000E+00  0.74505805969E-08  0.10566000000E+00  0.10566000000E+00 0.  1.
     999900   -1    0    0    0    0 -0.00000000000E+00 -0.00000000000E+00 -0.74505805969E-08  0.93827000000E+00  0.93827000000E+00 0.  1.
     999902    2    1    2    0    0  0.21992169259E-01  0.68920552893E-02  0.38022021069E-02  0.10205716466E+01  0.10203043042E+01 0.  0.
     999903    2    3    3    0    0  0.10013567429E+00 -0.69174529776E-01  0.47602427374E-01  0.13275917059E+00  0.23382417530E-01 0.  0.
         14    1    1    2    0    0 -0.21992169259E-01 -0.68920552893E-02 -0.38022021069E-02  0.23358353446E-01  0.00000000000E+00 0.  1.
     999901    1    3    3    0    0 -0.78143505028E-01  0.76066585066E-01 -0.43800225267E-01  0.88781247596E+00  0.88000000000E+00 0.  1.
        -11    1    4    4    0    0  0.17504113400E-01 -0.24388630874E-02  0.79009014574E-02  0.19365624284E-01  0.51100000000E-03 0.  1.
         11    1    4    4    0    0  0.82631560887E-01 -0.66735666689E-01  0.39701525917E-01  0.11339354631E+00  0.51100000000E-03 0. -1.
</event>
<event>
 8    1  0.1163913E+005  0.1043930E+01  0.7957747E-01            NaN
         13   -1    0    0    0    0  0.00000000000E+00  0.00000000000E+00  0.74505805969E-08  0.10566000000E+00  0.10566000000E+00 0.  1.
     999900   -1    0    0    0    0 -0.00000000000E+00 -0.00000000000E+00 -0.74505805969E-08  0.93827000000E+00  0.93827000000E+00 0. -1.
     999902    2    1    2    0    0  0.22158217594E-01  0.50704921532E-02 -0.75142650851E-02  0.10199892256E+01  0.10197082228E+01 0.  0.
     999903    2    3    3    0    0 -0.30852287031E-01  0.41905624778E-02 -0.12532717085E+00  0.13055639026E+00  0.19200178523E-01 0.  0.
         14    1    1    2    0    0 -0.22158217594E-01 -0.50704921532E-02  0.75142650851E-02  0.23940774369E-01  0.00000000000E+00 0. -1.
     999901    1    3    3    0    0  0.53010504625E-01  0.87992967534E-03  0.11781290576E+00  0.88943283537E+00  0.88000000000E+00 0.  1.
        -11    1    4    4    0    0 -0.23348259166E-01 -0.42905875497E-02 -0.65650281709E-01  0.69812398305E-01  0.51100000000E-03 0. -1.
         11    1    4    4    0    0 -0.75040278645E-02  0.84811500275E-02 -0.59676889139E-01  0.60743991953E-01  0.51100000000E-03 0.  1.
</event>
<event>
 8    1  0.1163913E+005  0.1043930E+01  0.7957747E-01            NaN
         13   -1    0    0    0    0  0.00000000000E+00  0.00000000000E+00  0.74505805969E-08  0.10566000000E+00  0.10566000000E+00 0. -1.
     999900   -1    0    0    0    0 -0.00000000000E+00 -0.00000000000E+00 -0.74505805969E-08  0.93827000000E+00  0.93827000000E+00 0.  1.
     999902    2    1    2    0    0 -0.18641328514E-01  0.22472593208E-02  0.19681066465E-01  0.10167290132E+01  0.10163650883E+01 0.  0.
     999903    2    3    3    0    0  0.59583962250E-01 -0.10101528062E+00 -0.39148274845E-01  0.12530137195E+00  0.20334967740E-01 0.  0.
         14    1    1    2    0    0  0.18641328514E-01 -0.22472593208E-02 -0.19681066465E-01  0.27200986754E-01  0.00000000000E+00 0.  1.
     999901    1    3    3    0    0 -0.78225290764E-01  0.10326253994E+00  0.58829341309E-01  0.89142764130E+00  0.88000000000E+00 0. -1.
        -11    1    4    4    0    0  0.11570880940E-01 -0.37272740242E-01 -0.95184729648E-02  0.40174679830E-01  0.51100000000E-03 0.  1.
         11    1    4    4    0    0  0.48013081310E-01 -0.63742540376E-01 -0.29629801880E-01  0.85126692118E-01  0.51100000000E-03 0. -1.
</event>
<event>
 8    1  0.1163913E+005  0.1043930E+01  0.7957747E-01            NaN
         13   -1    0    0    0    0  0.00000000000E+00  0.00000000000E+00  0.74505805969E-08  0.10566000000E+00  0.10566000000E+00 0. -1.
     999900   -1    0    0    0    0 -0.00000000000E+00 -0.00000000000E+00 -0.74505805969E-08  0.93827000000E+00  0.93827000000E+00 0.  1.
     999902    2    1    2    0    0  0.51433789099E-02 -0.13740323973E-01  0.17201702497E-01  0.10213213862E+01  0.10210711163E+01 0.  0.
     999903    2    3    3    0    0 -0.53559840498E-01 -0.29139947769E-01  0.11757396903E+00  0.13353886312E+00  0.17064486507E-01 0.  0.
         14    1    1    2    0    0 -0.51433789099E-02  0.13740323973E-01 -0.17201702497E-01  0.22608613808E-01  0.00000000000E+00 0.  1.
     999901    1    3    3    0    0  0.58703219408E-01  0.15399623796E-01 -0.10037226653E+00  0.88778252307E+00  0.88000000000E+00 0.  1.
        -11    1    4    4    0    0 -0.32528853917E-01 -0.15947037753E-01  0.51627101608E-01  0.63071809009E-01  0.51100000000E-03 0. -1.
         11    1    4    4    0    0 -0.21030986581E-01 -0.13192910016E-01  0.65946867424E-01  0.70467054112E-01  0.51100000000E-03 0.  1.
</event>
<event>
 8    1  0.1163913E+005  0.1043930E+01  0.7957747E-01            NaN
         13   -1    0    0    0    0  0.00000000000E+00  0.00000000000E+00  0.74505805969E-08  0.10566000000E+00  0.10566000000E+00 0. -1.
     999900   -1    0    0    0    0 -0.00000000000E+00 -0.00000000000E+00 -0.74505805969E-08  0.93827000000E+00  0.93827000000E+00 0.  1.
     999902    2    1    2    0    0  0.14954196642E-01 -0.17697865323E-01  0.41903022052E-02  0.10203842771E+01  0.10201125780E+01 0.  0.
     999903    2    3    3    0    0 -0.41067443069E-01  0.11370069986E+00 -0.36683778657E-01  0.12792996593E+00  0.20149256476E-01 0.  0.
         14    1    1    2    0    0 -0.14954196642E-01  0.17697865323E-01 -0.41903022052E-02  0.23545722898E-01  0.00000000000E+00 0. -1.
     999901    1    3    3    0    0  0.56021639711E-01 -0.13139856518E+00  0.40874080862E-01  0.89245431117E+00  0.88000000000E+00 0. -1.
        -11    1    4    4    0    0 -0.32686912068E-01  0.75055931418E-01 -0.32802977875E-01  0.88193670635E-01  0.51100000000E-03 0.  1.
         11    1    4    4    0    0 -0.83805310014E-02  0.38644768443E-01 -0.38808007815E-02  0.39736295293E-01  0.51100000000E-03 0. -1.
</event>
<event>
 8    1  0.1163913E+005  0.1043930E+01  0.7957747E-01            NaN
         13   -1    0    0    0    0  0.00000000000E+00  0.00000000000E+00  0.74505805969E-08  0.10566000000E+00  0.10566000000E+00 0. -1.
     999900   -1    0    0    0    0 -0.00000000000E+00 -0.00000000000E+00 -0.74505805969E-08  0.93827000000E+00  0.93827000000E+00 0. -1.
     999902    2    1    2    0    0 -0.16560374546E-01 -0.12707126241E-01 -0.11230823035E-01  0.10202266574E+01  0.10199512656E+01 0.  0.
     999903    2    3    3    0    0  0.41993847107E-01 -0.12236201995E+00  0.95858488693E-02  0.13124627160E+00  0.19943625240E-01 0.  0.
         14    1    1    2    0    0  0.16560374546E-01  0.12707126241E-01  0.11230823035E-01  0.23703342558E-01  0.00000000000E+00 0. -1.
     999901    1    3    3    0    0 -0.58554221652E-01  0.10965489371E+00 -0.20816671904E-01  0.88898038585E+00  0.88000000000E+00 0. -1.
        -11    1    4    4    0    0  0.17236320725E-01 -0.79353303476E-01  0.39827349964E-02  0.81302895544E-01  0.51100000000E-03 0. -1.
         11    1    4    4    0    0  0.24757526382E-01 -0.43008716476E-01  0.56031138728E-02  0.49943376053E-01  0.51100000000E-03 0.  1.
</event>
<event>
 8    1  0.1163913E+005  0.1043930E+01  0.7957747E-01            NaN
         13   -1    0    0    0    0  0.00000000000E+00  0.00000000000E+00  0.74505805969E-08  0.10566000000E+00  0.10566000000E+00 0.  1.
     999900   -1    0    0    0    0 -0.00000000000E+00 -0.00000000000E+00 -0.74505805969E-08  0.93827000000E+00  0.93827000000E+00 0.  1.
     999902    2    1    2    0    0  0.16101831440E-01  0.94705554317E-02 -0.13904426775E-01  0.10206428044E+01  0.10203771071E+01 0.  0.
     999903    2    3    3    0    0  0.69137638634E-01 -0.11517184813E-01 -0.11144685927E+00  0.13341802552E+00  0.21617318798E-01 0.  0.
         14    1    1    2    0    0 -0.16101831440E-01 -0.94705554317E-02  0.13904426775E-01  0.23287195620E-01  0.00000000000E+00 0.  1.
     999901    1    3    3    0    0 -0.53035807194E-01  0.20987740245E-01  0.97542432490E-01  0.88722477886E+00  0.88000000000E+00 0. -1.
        -11    1    4    4    0    0  0.45688873469E-01 -0.86825579523E-02 -0.90902591186E-01  0.10210975554E+00  0.51100000000E-03 0. -1.
         11    1    4    4    0    0  0.23448765165E-01 -0.28346268611E-02 -0.20544268079E-01  0.31308269980E-01  0.51100000000E-03 0.  1.
</event>
<event>
 8    1  0.1163913E+005  0.1043930E+01  0.7957747E-01            NaN
         13   -1    0    0    0    0  0.00000000000E+00  0.00000000000E+00  0.74505805969E-08  0.10566000000E+00  0.10566000000E+00 0. -1.
     999900   -1    0    0    0    0 -0.00000000000E+00 -0.00000000000E+00 -0.74505805969E-08  0.93827000000E+00  0.93827000000E+00 0.  1.
     999902    2    1    2    0    0  0.44137090340E-03 -0.16214032067E-01 -0.17054320513E-01  0.10203940808E+01  0.10201226106E+01 0.  0.
     999903    2    3    3    0    0 -0.16527637555E-01 -0.76950015626E-01 -0.10622077111E+00  0.13364300928E+00  0.19573809163E-01 0.  0.
         14    1    1    2    0    0 -0.44137090340E-03  0.16214032067E-01  0.17054320513E-01  0.23535919194E-01  0.00000000000E+00 0. -1.
     999901    1    3    3    0    0  0.16969008458E-01  0.60735983559E-01  0.89166450598E-01  0.88675107153E+00  0.88000000000E+00 0. -1.
        -11    1    4    4    0    0 -0.12816076412E-01 -0.56539772327E-01 -0.62512554726E-01  0.85258889793E-01  0.51100000000E-03 0. -1.
         11    1    4    4    0    0 -0.37115611428E-02 -0.20410243299E-01 -0.43708216385E-01  0.48384119483E-01  0.51100000000E-03 0.  1.
</event>
<event>
 8    1  0.1163913E+005  0.1043930E+01  0.7957747E-01            NaN
         13   -1    0    0    0    0  0.00000000000E+00  0.00000000000E+00  0.74505805969E-08  0.10566000000E+00  0.10566000000E+00 0. -1.
     999900   -1    0    0    0    0 -0.00000000000E+00 -0.00000000000E+00 -0.74505805969E-08  0.93827000000E+00  0.93827000000E+00 0.  1.
     999902    2    1    2    0    0  0.42352878970E-02 -0.44613811749E-02 -0.23361017976E-01  0.10197726254E+01  0.10194864535E+01 0.  0.
     999903    2    3    3    0    0 -0.39512730120E-01 -0.98809742338E-01 -0.75439016599E-01  0.13211975393E+00  0.20975298088E-01 0.  0.
         14    1    1    2    0    0 -0.42352878970E-02  0.44613811749E-02  0.23361017976E-01  0.24157374577E-01  0.00000000000E+00 0. -1.
     999901    1    3    3    0    0  0.43748018017E-01  0.94348361163E-01  0.52077998623E-01  0.88765287150E+00  0.88000000000E+00 0. -1.
        -11    1    4    4    0    0 -0.26889806239E-01 -0.41460793661E-01 -0.39552467219E-01  0.63298640386E-01  0.51100000000E-03 0.  1.
         11    1    4    4    0    0 -0.12622923881E-01 -0.57348948677E-01 -0.35886549380E-01  0.68821113541E-01  0.51100000000E-03 0. -1.
</event>
<event>
 8    1  0.1163913E+005  0.1043930E+01  0.7957747E-01            NaN
         13   -1    0    0    0    0  0.00000000000E+00  0.00000000000E+00  0.74505805969E-08  0.10566000000E+00  0.10566000000E+00 0.  1.
     999900   -1    0    0    0    0 -0.00000000000E+00 -0.00000000000E+00 -0.74505805969E-08  0.93827000000E+00  0.93827000000E+00 0. -1.
     999902    2    1    2    0    0 -0.21308040156E-01  0.50856502142E-02 -0.10954950571E-01  0.10194369937E+01  0.10191427166E+01 0.  0.
     999903    2    3    3    0    0 -0.51991600504E-01 -0.66178924686E-01 -0.99203926175E-01  0.13162620185E+00  0.20031511406E-01 0.  0.
         14    1    1    2    0    0  0.21308040156E-01 -0.50856502142E-02  0.10954950571E-01  0.24493006255E-01  0.00000000000E+00 0.  1.
     999901    1    3    3    0    0  0.30683560347E-01  0.71264574900E-01  0.88248975604E-01  0.88781079190E+00  0.88000000000E+00 0.  1.
        -11    1    4    4    0    0 -0.35671330833E-01 -0.34875947245E-01 -0.69102605988E-01  0.85230316290E-01  0.51100000000E-03 0. -1.
         11    1    4    4    0    0 -0.16320269671E-01 -0.31302977441E-01 -0.30101320187E-01  0.46395885559E-01  0.51100000000E-03 0.  1.
</event>
<event>
 7    1  0.1163913E+005  0.1043930E+01  0.7957747E-01            NaN
         13   -1    0    0    0    0  0.00000000000E+00  0.00000000000E+00  0.74505805969E-08  0.10566000000E+00  0.10566000000E+00 0. -1.
     999900   -1    0    0    0    0 -0.00000000000E+00 -0.00000000000E+00 -0.74505805969E-08  0.93827000000E+00  0.93827000000E+00 0. -1.
     999903    2    1    2    0    0 -0.73922612174E-01  0.34113629852E-01 -0.68658302216E-01  0.10821783728E+00  0.19205351057E-01 0.  0.
         14    1    1    2    0    0  0.88074069191E-02  0.54644852521E-02 -0.44054059042E-01  0.45256945696E-01  0.00000000000E+00 0.  1.
     999901    1    1    2    0    0  0.65115205255E-01 -0.39578115104E-01  0.11271236126E+00  0.89045521703E+00  0.88000000000E+00 0.  1.
        -11    1    3    3    0    0 -0.36255597241E-01  0.10904553687E-01 -0.42060238287E-01  0.56592423417E-01  0.51100000000E-03 0. -1.
         11    1    3    3    0    0 -0.37667014933E-01  0.23209076165E-01 -0.26598063930E-01  0.51625413860E-01  0.51100000000E-03 0.  1.
</event>
<event>
 8    1  0.1163913E+005  0.1043930E+01  0.7957747E-01            NaN
         13   -1    0    0    0    0  0.00000000000E+00  0.00000000000E+00  0.74505805969E-08  0.10566000000E+00  0.10566000000E+00 0.  1.
     999900   -1    0    0    0    0 -0.00000000000E+00 -0.00000000000E+00 -0.74505805969E-08  0.93827000000E+00  0.93827000000E+00 0. -1.
     999902    2    1    2    0    0  0.39360865723E-03  0.66735596050E-02  0.18242404356E-01  0.10245012419E+01  0.10243170007E+01 0.  0.
     999903    2    3    3    0    0  0.11075073718E+00  0.22639008109E-01  0.72557294443E-01  0.13580348749E+00  0.19994393323E-01 0.  0.
         14    1    1    2    0    0 -0.39360865723E-03 -0.66735596050E-02 -0.18242404356E-01  0.19428758125E-01  0.00000000000E+00 0. -1.
     999901    1    3    3    0    0 -0.11035712852E+00 -0.15965448504E-01 -0.54314890086E-01  0.88869775438E+00  0.88000000000E+00 0. -1.
        -11    1    4    4    0    0  0.65985837991E-01  0.58763430362E-02  0.49685373432E-01  0.82810383871E-01  0.51100000000E-03 0.  1.
         11    1    4    4    0    0  0.44764899187E-01  0.16762665073E-01  0.22871921011E-01  0.52993103620E-01  0.51100000000E-03 0. -1.
</event>
<event>
 8    1  0.1163913E+005  0.1043930E+01  0.7957747E-01            NaN
         13   -1    0    0    0    0  0.00000000000E+00  0.00000000000E+00  0.74505805969E-08  0.10566000000E+00  0.10566000000E+00 0. -1.
     999900   -1    0    0    0    0 -0.00000000000E+00 -0.00000000000E+00 -0.74505805969E-08  0.93827000000E+00  0.93827000000E+00 0. -1.
     999902    2    1    2    0    0  0.64165468660E-02 -0.19028574770E-01 -0.13797143832E-01  0.10195656837E+01  0.10192745280E+01 0.  0.
     999903    2    3    3    0    0  0.52827037743E-01 -0.11943473613E+00 -0.12427207235E-01  0.13263997788E+00  0.19585099933E-01 0.  0.
         14    1    1    2    0    0 -0.64165468660E-02  0.19028574770E-01  0.13797143832E-01  0.24364316313E-01  0.00000000000E+00 0. -1.
     999901    1    3    3    0    0 -0.46410490877E-01  0.10040616136E+00 -0.13699365975E-02  0.88692570581E+00  0.88000000000E+00 0.  1.
        -11    1    4    4    0    0  0.14911110447E-01 -0.22100448485E-01 -0.89332750579E-02  0.28121798702E-01  0.51100000000E-03 0. -1.
         11    1    4    4    0    0  0.37915927296E-01 -0.97334287648E-01 -0.34939321766E-02  0.10451817917E+00  0.51100000000E-03 0.  1.
</event>
<event>
 8    1  0.1163913E+005  0.1043930E+01  0.7957747E-01            NaN
         13   -1    0    0    0    0  0.00000000000E+00  0.00000000000E+00  0.74505805969E-08  0.10566000000E+00  0.10566000000E+00 0.  1.
     999900   -1    0    0    0    0 -0.00000000000E+00 -0.00000000000E+00 -0.74505805969E-08  0.93827000000E+00  0.93827000000E+00 0. -1.
     999902    2    1    2    0    0 -0.18006566017E-01  0.17546348895E-01  0.15236968372E-01  0.10145314289E+01  0.10141053911E+01 0.  0.
     999903    2    3    3    0    0 -0.99217249670E-01  0.54669572689E-01  0.58220637455E-01  0.12896894960E+00  0.20261355466E-01 0.  0.
         14    1    1    2    0    0  0.18006566017E-01 -0.17546348895E-01 -0.15236968372E-01  0.29398571129E-01  0.00000000000E+00 0. -1.
     999901    1    3    3    0    0  0.81210683653E-01 -0.37123223794E-01 -0.42983669083E-01  0.88556247927E+00  0.88000000000E+00 0.  1.
        -11    1    4    4    0    0 -0.42929936840E-01  0.26846687756E-01  0.15248753796E-01  0.52882036023E-01  0.51100000000E-03 0.  1.
         11    1    4    4    0    0 -0.56287312829E-01  0.27822884933E-01  0.42971883659E-01  0.76086913578E-01  0.51100000000E-03 0. -1.
</event>
<event>
 8    1  0.1163913E+005  0.1043930E+01  0.7957747E-01            NaN
         13   -1    0    0    0    0  0.00000000000E+00  0.00000000000E+00  0.74505805969E-08  0.10566000000E+00  0.10566000000E+00 0.  1.
     999900   -1    0    0    0    0 -0.00000000000E+00 -0.00000000000E+00 -0.74505805969E-08  0.93827000000E+00  0.93827000000E+00 0. -1.
     999902    2    1    2    0    0  0.35286571551E-02 -0.24122560896E-01  0.18996210208E-02  0.10194768218E+01  0.10191835125E+01 0.  0.
     999903    2    3    3    0    0  0.12775341420E+00  0.11448065062E-01 -0.66703498881E-02  0.12999916376E+00  0.20082230374E-01 0.  0.
         14    1    1    2    0    0 -0.35286571551E-02  0.24122560896E-01 -0.18996210208E-02  0.24453178230E-01  0.00000000000E+00 0. -1.
     999901    1    3    3    0    0 -0.12422475705E+00 -0.35570625959E-01  0.85699709090E-02  0.88947765801E+00  0.88000000000E+00 0. -1.
        -11    1    4    4    0    0  0.66557086959E-01  0.65026002671E-02  0.65437701694E-02  0.67195324865E-01  0.51100000000E-03 0.  1.
         11    1    4    4    0    0  0.61196327245E-01  0.49454647953E-02 -0.13214120058E-01  0.62803838897E-01  0.51100000000E-03 0. -1.
</event>
<event>
 8    1  0.1163913E+005  0.1043930E+01  0.7957747E-01            NaN
         13   -1    0    0    0    0  0.00000000000E+00  0.00000000000E+00  0.74505805969E-08  0.10566000000E+00  0.10566000000E+00 0. -1.
     999900   -1    0    0    0    0 -0.00000000000E+00 -0.00000000000E+00 -0.74505805969E-08  0.93827000000E+00  0.93827000000E+00 0.  1.
     999902    2    1    2    0    0 -0.10345144768E-01 -0.11601492806E-01 -0.16872104991E-01  0.10209891068E+01  0.10207313415E+01 0.  0.
     999903    2    3    3    0    0 -0.94858859768E-01 -0.31536225680E-01  0.82520422150E-01  0.13114707806E+00  0.19929857130E-01 0.  0.
         14    1    1    2    0    0  0.10345144768E-01  0.11601492806E-01  0.16872104991E-01  0.22940893235E-01  0.00000000000E+00 0. -1.
     999901    1    3    3    0    0  0.84513715000E-01  0.19934732874E-01 -0.99392527142E-01  0.88984202870E+00  0.88000000000E+00 0.  1.
        -11    1    4    4    0    0 -0.70949107387E-01 -0.14673282760E-01  0.54839680241E-01  0.90866565446E-01  0.51100000000E-03 0. -1.
         11    1    4    4    0    0 -0.23909752381E-01 -0.16862942919E-01  0.27680741909E-01  0.40280512614E-01  0.51100000000E-03 0.  1.
</event>
<event>
 8    1  0.1163913E+005  0.1043930E+01  0.7957747E-01            NaN
         13   -1    0    0    0    0  0.00000000000E+00  0.00000000000E+00  0.74505805969E-08  0.10566000000E+00  0.10566000000E+00 0.  1.
     999900   -1    0    0    0    0 -0.00000000000E+00 -0.00000000000E+00 -0.74505805969E-08  0.93827000000E+00  0.93827000000E+00 0. -1.
     999902    2    1    2    0    0 -0.28730450592E-02  0.15143885997E-01 -0.18422045687E-01  0.10199099368E+01  0.10196270473E+01 0.  0.
     999903    2    3    3    0    0 -0.91055232541E-01  0.10017989092E-01 -0.93269131740E-01  0.13232644249E+00  0.20487580801E-01 0.  0.
         14    1    1    2    0    0  0.28730450592E-02 -0.15143885997E-01  0.18422045687E-01  0.24020063245E-01  0.00000000000E+00 0.  1.
     999901    1    3    3    0    0  0.88182187482E-01  0.51258969051E-02  0.74847086053E-01  0.88758349427E+00  0.88000000000E+00 0. -1.
        -11    1    4    4    0    0 -0.38227539339E-01 -0.58655416952E-02 -0.36995998244E-01  0.53523026357E-01  0.51100000000E-03 0.  1.
         11    1    4    4    0    0 -0.52827693202E-01  0.15883530787E-01 -0.56273133495E-01  0.78803416129E-01  0.51100000000E-03 0. -1.
</event>
<event>
 8    1  0.1163913E+005  0.1043930E+01  0.7957747E-01            NaN
         13   -1    0    0    0    0  0.00000000000E+00  0.00000000000E+00  0.74505805969E-08  0.10566000000E+00  0.10566000000E+00 0.  1.
     999900   -1    0    0    0    0 -0.00000000000E+00 -0.00000000000E+00 -0.74505805969E-08  0.93827000000E+00  0.93827000000E+00 0.  1.
     999902    2    1    2    0    0  0.32219608149E-01 -0.27954691428E-02 -0.49845429426E-02  0.10112074777E+01  0.10106778911E+01 0.  0.
     999903    2    3    3    0    0  0.15100567183E-01 -0.67135639802E-01  0.99360393278E-01  0.12254523318E+00  0.20239198670E-01 0.  0.
         14    1    1    2    0    0 -0.32219608149E-01  0.27954691428E-02  0.49845429426E-02  0.32722522295E-01  0.00000000000E+00 0.  1.
     999901    1    3    3    0    0  0.17119040965E-01  0.64340170659E-01 -0.10434493622E+00  0.88866224452E+00  0.88000000000E+00 0.  1.
        -11    1    4    4    0    0  0.10543419341E-01 -0.12294668429E-01  0.16954621028E-01  0.23452992525E-01  0.51100000000E-03 0. -1.
         11    1    4    4    0    0  0.45571478418E-02 -0.54840971373E-01  0.82405772250E-01  0.99092240658E-01  0.51100000000E-03 0.  1.
</event>
<event>
 8    1  0.1163913E+005  0.1043930E+01  0.7957747E-01            NaN
         13   -1    0    0    0    0  0.00000000000E+00  0.00000000000E+00  0.74505805969E-08  0.10566000000E+00  0.10566000000E+00 0.  1.
     999900   -1    0    0    0    0 -0.00000000000E+00 -0.00000000000E+00 -0.74505805969E-08  0.93827000000E+00  0.93827000000E+00 0.  1.
     999902    2    1    2    0    0 -0.20463643289E-01  0.65906125119E-02 -0.93267387830E-02  0.10204953051E+01  0.10202261920E+01 0.  0.
     999903    2    3    3    0    0 -0.49606938070E-01  0.13836446090E-01 -0.12093872548E+00  0.13293738059E+00  0.19846316837E-01 0.  0.
         14    1    1    2    0    0  0.20463643289E-01 -0.65906125119E-02  0.93267387830E-02  0.23434694926E-01  0.00000000000E+00 0. -1.
     999901    1    3    3    0    0  0.29143294781E-01 -0.72458335778E-02  0.11161198670E+00  0.88755792448E+00  0.88000000000E+00 0. -1.
        -11    1    4    4    0    0 -0.11371734838E-01  0.12263804095E-01 -0.42007683618E-01  0.45217517049E-01  0.51100000000E-03 0. -1.
         11    1    4    4    0    0 -0.38235203232E-01  0.15726419949E-02 -0.78931041866E-01  0.87719863543E-01  0.51100000000E-03 0.  1.
</event>
<event>
 8    1  0.1163913E+005  0.1043930E+01  0.7957747E-01            NaN
         13   -1    0    0    0    0  0.00000000000E+00  0.00000000000E+00  0.74505805969E-08  0.10566000000E+00  0.10566000000E+00 0.  1.
     999900   -1    0    0    0    0 -0.00000000000E+00 -0.00000000000E+00 -0.74505805969E-08  0.93827000000E+00  0.93827000000E+00 0.  1.
     999902    2    1    2    0    0  0.22007473619E-01 -0.73841262441E-02 -0.98000535946E-03  0.10206960889E+01  0.10204316201E+01 0.  0.
     999903    2    3    3    0    0  0.93283392174E-02  0.97727445204E-01  0.83003867519E-01  0.13038013720E+00  0.21717888840E-01 0.  0.
         14    1    1    2    0    0 -0.22007473619E-01  0.73841262441E-02  0.98000535946E-03  0.23233911121E-01  0.00000000000E+00 0.  1.
     999901    1    3    3    0    0  0.12679134402E-01 -0.10511157145E+00 -0.83983872879E-01  0.89031595167E+00  0.88000000000E+00 0.  1.
        -11    1    4    4    0    0  0.86554641170E-02  0.16086537598E-01  0.21143800703E-01  0.27946648818E-01  0.51100000000E-03 0. -1.
         11    1    4    4    0    0  0.67287510041E-03  0.81640907606E-01  0.61860066817E-01  0.10243348839E+00  0.51100000000E-03 0.  1.
</event>
<event>
 8    1  0.1163913E+005  0.1043930E+01  0.7957747E-01            NaN
         13   -1    0    0    0    0  0.00000000000E+00  0.00000000000E+00  0.74505805969E-08  0.10566000000E+00  0.10566000000E+00 0. -1.
     999900   -1    0    0    0    0 -0.00000000000E+00 -0.00000000000E+00 -0.74505805969E-08  0.93827000000E+00  0.93827000000E+00 0. -1.
     999902    2    1    2    0    0  0.88393003934E-02 -0.20825577674E-01  0.66547860924E-02  0.10203477165E+01  0.10200751632E+01 0.  0.
     999903    2    3    3    0    0  0.23946294071E-01 -0.12619379326E+00  0.30324062134E-01  0.13361725197E+00  0.20873974719E-01 0.  0.
         14    1    1    2    0    0 -0.88393003934E-02  0.20825577674E-01 -0.66547860924E-02  0.23582283495E-01  0.00000000000E+00 0. -1.
     999901    1    3    3    0    0 -0.15106993678E-01  0.10536821559E+00 -0.23669276042E-01  0.88673046454E+00  0.88000000000E+00 0.  1.
        -11    1    4    4    0    0  0.17287402383E-01 -0.91300085210E-01  0.31366584019E-01  0.98074887481E-01  0.51100000000E-03 0. -1.
         11    1    4    4    0    0  0.66588916884E-02 -0.34893708053E-01 -0.10425218848E-02  0.35542364484E-01  0.51100000000E-03 0.  1.
</event>
<event>
 8    1  0.1239973E+005  0.1043930E+01  0.7957747E-01            NaN
         13   -1    0    0    0    0  0.00000000000E+00  0.00000000000E+00  0.74505805969E-08  0.10566000000E+00  0.10566000000E+00 0.  1.
     999900   -1    0    0    0    0 -0.00000000000E+00 -0.00000000000E+00 -0.74505805969E-08  0.93827000000E+00  0.93827000000E+00 0.  1.
     999902    2    1    2    0    0  0.21902938168E-01  0.51595601135E-02  0.73146461139E-02  0.10202685586E+01  0.10199941509E+01 0.  0.
     999903    2    3    3    0    0 -0.12076761733E+00  0.24348067759E-01  0.29728955805E-01  0.12829014659E+00  0.19922477229E-01 0.  0.
         14    1    1    2    0    0 -0.21902938168E-01 -0.51595601135E-02 -0.73146461139E-02  0.23661441391E-01  0.00000000000E+00 0.  1.
     999901    1    3    3    0    0  0.14267055550E+00 -0.19188507645E-01 -0.22414309691E-01  0.89197841202E+00  0.88000000000E+00 0.  1.
        -11    1    4    4    0    0 -0.69947447045E-01  0.46822986442E-02  0.20298088798E-01  0.72985223152E-01  0.51100000000E-03 0. -1.
         11    1    4    4    0    0 -0.50820170286E-01  0.19665769114E-01  0.94308670070E-02  0.55304923436E-01  0.51100000000E-03 0.  1.
</event>
<event>
 8    1  0.1163913E+005  0.1043930E+01  0.7957747E-01            NaN
         13   -1    0    0    0    0  0.00000000000E+00  0.00000000000E+00  0.74505805969E-08  0.10566000000E+00  0.10566000000E+00 0.  1.
     999900   -1    0    0    0    0 -0.00000000000E+00 -0.00000000000E+00 -0.74505805969E-08  0.93827000000E+00  0.93827000000E+00 0.  1.
     999902    2    1    2    0    0 -0.50402818080E-02 -0.20003576528E-01  0.11401791410E-01  0.10203599266E+01  0.10200876587E+01 0.  0.
     999903    2    3    3    0    0 -0.10555525599E+00 -0.75149210139E-01  0.17144153815E-01  0.13290442026E+00  0.24090393583E-01 0.  0.
         14    1    1    2    0    0  0.50402818080E-02  0.20003576528E-01 -0.11401791410E-01  0.23570073440E-01  0.00000000000E+00 0. -1.
     999901    1    3    3    0    0  0.10051497418E+00  0.55145633611E-01 -0.57423624055E-02  0.88745550630E+00  0.88000000000E+00 0.  1.
        -11    1    4    4    0    0 -0.61938336576E-01 -0.38425251933E-01 -0.15198803349E-02  0.72906986504E-01  0.51100000000E-03 0. -1.
         11    1    4    4    0    0 -0.43616919411E-01 -0.36723958207E-01  0.18664034150E-01  0.59997433754E-01  0.51100000000E-03 0.  1.
</event>
<event>
 8    1  0.1163913E+005  0.1043930E+01  0.7957747E-01            NaN
         13   -1    0    0    0    0  0.00000000000E+00  0.00000000000E+00  0.74505805969E-08  0.10566000000E+00  0.10566000000E+00 0. -1.
     999900   -1    0    0    0    0 -0.00000000000E+00 -0.00000000000E+00 -0.74505805969E-08  0.93827000000E+00  0.93827000000E+00 0.  1.
     999902    2    1    2    0    0  0.36595605390E-02  0.19648623276E-01 -0.76239682978E-02  0.10225387478E+01  0.10223149735E+01 0.  0.
     999903    2    3    3    0    0  0.84846861996E-01  0.10283119823E+00 -0.60932857445E-02  0.13489407691E+00  0.19647863326E-01 0.  0.
         14    1    1    2    0    0 -0.36595605390E-02 -0.19648623276E-01  0.76239682978E-02  0.21391252244E-01  0.00000000000E+00 0. -1.
     999901    1    3    3    0    0 -0.81187301457E-01 -0.83182574956E-01 -0.15306825534E-02  0.88764467085E+00  0.88000000000E+00 0. -1.
        -11    1    4    4    0    0  0.36523670476E-01  0.32765535611E-01 -0.82151886395E-02  0.49752480082E-01  0.51100000000E-03 0. -1.
         11    1    4    4    0    0  0.48323191520E-01  0.70065662621E-01  0.21219028950E-02  0.85141596826E-01  0.51100000000E-03 0.  1.
</event>
<event>
 8    1  0.1163913E+005  0.1043930E+01  0.7957747E-01            NaN
         13   -1    0    0    0    0  0.00000000000E+00  0.00000000000E+00  0.74505805969E-08  0.10566000000E+00  0.10566000000E+00 0.  1.
     999900   -1    0    0    0    0 -0.00000000000E+00 -0.00000000000E+00 -0.74505805969E-08  0.93827000000E+00  0.93827000000E+00 0.  1.
     999902    2    1    2    0    0  0.21770937420E-02 -0.13726385917E-01  0.20950634779E-01  0.10187887489E+01  0.10184784889E+01 0.  0.
     999903    2    3    3    0    0 -0.39149692162E-01  0.11637632504E+00  0.32328288635E-01  0.12819115763E+00  0.17655232140E-01 0.  0.
         14    1    1    2    0    0 -0.21770937420E-02  0.13726385917E-01 -0.20950634779E-01  0.25141251065E-01  0.00000000000E+00 0. -1.
     999901    1    3    3    0    0  0.41326785904E-01 -0.13010271096E+00 -0.11377653856E-01  0.89059759131E+00  0.88000000000E+00 0. -1.
        -11    1    4    4    0    0 -0.93780440000E-02  0.29416602148E-01  0.16198679835E-01  0.34870367658E-01  0.51100000000E-03 0.  1.
         11    1    4    4    0    0 -0.29771648162E-01  0.86959722893E-01  0.16129608800E-01  0.93320789972E-01  0.51100000000E-03 0. -1.
</event>
<event>
 8    1  0.1163913E+005  0.1043930E+01  0.7957747E-01            NaN
         13   -1    0    0    0    0  0.00000000000E+00  0.00000000000E+00  0.74505805969E-08  0.10566000000E+00  0.10566000000E+00 0. -1.
     999900   -1    0    0    0    0 -0.00000000000E+00 -0.00000000000E+00 -0.74505805969E-08  0.93827000000E+00  0.93827000000E+00 0.  1.
     999902    2    1    2    0    0 -0.83543686648E-02 -0.22429190202E-01  0.33435305978E-02  0.10197630133E+01  0.10194766108E+01 0.  0.
     999903    2    3    3    0    0 -0.15500453675E-01 -0.76507772814E-01  0.10546713699E+00  0.13217933240E+00  0.15948528568E-01 0.  0.
         14    1    1    2    0    0  0.83543686648E-02  0.22429190202E-01 -0.33435305978E-02  0.24166986692E-01  0.00000000000E+00 0.  1.
     999901    1    3    3    0    0  0.71460850099E-02  0.54078582612E-01 -0.10212360640E+00  0.88758368091E+00  0.88000000000E+00 0.  1.
        -11    1    4    4    0    0 -0.14676231642E-01 -0.34735299770E-01  0.54466432611E-01  0.66247914893E-01  0.51100000000E-03 0. -1.
         11    1    4    4    0    0 -0.82422203235E-03 -0.41772473044E-01  0.51000704383E-01  0.65931417509E-01  0.51100000000E-03 0.  1.
</event>
<event>
 8    1  0.1163913E+005  0.1043930E+01  0.7957747E-01            NaN
         13   -1    0    0    0    0  0.00000000000E+00  0.00000000000E+00  0.74505805969E-08  0.10566000000E+00  0.10566000000E+00 0. -1.
     999900   -1    0    0    0    0 -0.00000000000E+00 -0.00000000000E+00 -0.74505805969E-08  0.93827000000E+00  0.93827000000E+00 0. -1.
     999902    2    1    2    0    0 -0.19988211763E-01 -0.12396868330E-01 -0.55265079149E-02  0.10197690140E+01  0.10194827555E+01 0.  0.
     999903    2    3    3    0    0 -0.83747941495E-01 -0.10091617768E+00  0.93351048311E-02  0.13290834920E+00  0.19485699458E-01 0.  0.
         14    1    1    2    0    0  0.19988211763E-01  0.12396868330E-01  0.55265079149E-02  0.24160985981E-01  0.00000000000E+00 0.  1.
     999901    1    3    3    0    0  0.63759729732E-01  0.88519309351E-01 -0.14861612746E-01  0.88686066482E+00  0.88000000000E+00 0.  1.
        -11    1    4    4    0    0 -0.13544465604E-01 -0.68020223409E-02  0.11074259197E-02  0.15205511158E-01  0.51100000000E-03 0.  1.
         11    1    4    4    0    0 -0.70203475891E-01 -0.94114155340E-01  0.82276789114E-02  0.11770283804E+00  0.51100000000E-03 0. -1.
</event>
<event>
 8    1  0.1163913E+005  0.1043930E+01  0.7957747E-01            NaN
         13   -1    0    0    0    0  0.00000000000E+00  0.00000000000E+00  0.74505805969E-08  0.10566000000E+00  0.10566000000E+00 0. -1.
     999900   -1    0    0    0    0 -0.00000000000E+00 -0.00000000000E+00 -0.74505805969E-08  0.93827000000E+00  0.93827000000E+00 0.  1.
     999902    2    1    2    0    0 -0.18020955654E-01 -0.28591925232E-02  0.15307997612E-01  0.10201126824E+01  0.10198346044E+01 0.  0.
     999903    2    3    3    0    0  0.33346511666E-01  0.11742683569E+00 -0.36677644970E-01  0.12892816041E+00  0.19395085123E-01 0.  0.
         14    1    1    2    0    0  0.18020955654E-01  0.28591925232E-02 -0.15307997612E-01  0.23817317554E-01  0.00000000000E+00 0.  1.
     999901    1    3    3    0    0 -0.51367467320E-01 -0.12028602821E+00  0.51985642582E-01  0.89118452204E+00  0.88000000000E+00 0. -1.
        -11    1    4    4    0    0  0.18406981104E-01  0.65540948933E-01 -0.10369065031E-01  0.68863717377E-01  0.51100000000E-03 0. -1.
         11    1    4    4    0    0  0.14939530561E-01  0.51885886753E-01 -0.26308579939E-01  0.60064443033E-01  0.51100000000E-03 0.  1.
</event>
<event>
 8    1  0.1163913E+005  0.1043930E+01  0.7957747E-01            NaN
         13   -1    0    0    0    0  0.00000000000E+00  0.00000000000E+00  0.74505805969E-08  0.10566000000E+00  0.10566000000E+00 0. -1.
     999900   -1    0    0    0    0 -0.00000000000E+00 -0.00000000000E+00 -0.74505805969E-08  0.93827000000E+00  0.93827000000E+00 0. -1.
     999902    2    1    2    0    0  0.16655210187E-01  0.11487968183E-01  0.16206481026E-01  0.10180066617E+01  0.10176765419E+01 0.  0.
     999903    2    3    3    0    0 -0.39376072422E-01 -0.10407268649E+00 -0.55278363702E-01  0.12581618176E+00  0.19809466089E-01 0.  0.
         14    1    1    2    0    0 -0.16655210187E-01 -0.11487968183E-01 -0.16206481026E-01  0.25923338261E-01  0.00000000000E+00 0.  1.
     999901    1    3    3    0    0  0.56031282609E-01  0.11556065467E+00  0.71484844728E-01  0.89219047998E+00  0.88000000000E+00 0.  1.
        -11    1    4    4    0    0 -0.10041445917E-01 -0.40213898445E-01 -0.11491647918E-01  0.43015199141E-01  0.51100000000E-03 0. -1.
         11    1    4    4    0    0 -0.29334626505E-01 -0.63858788044E-01 -0.43786715784E-01  0.82800982620E-01  0.51100000000E-03 0.  1.
</event>
<event>
 8    1  0.1163913E+005  0.1043930E+01  0.7957747E-01            NaN
         13   -1    0    0    0    0  0.00000000000E+00  0.00000000000E+00  0.74505805969E-08  0.10566000000E+00  0.10566000000E+00 0. -1.
     999900   -1    0    0    0    0 -0.00000000000E+00 -0.00000000000E+00 -0.74505805969E-08  0.93827000000E+00  0.93827000000E+00 0.  1.
     999902    2    1    2    0    0 -0.12646644122E-01 -0.11323569938E-02  0.19256793882E-01  0.10208639221E+01  0.10206033037E+01 0.  0.
     999903    2    3    3    0    0 -0.90591807854E-01 -0.47698730483E-01  0.85800288069E-01  0.13369318750E+00  0.54894817558E-02 0.  0.
         14    1    1    2    0    0  0.12646644122E-01  0.11323569938E-02 -0.19256793882E-01  0.23066077918E-01  0.00000000000E+00 0.  1.
     999901    1    3    3    0    0  0.77945163732E-01  0.46566373489E-01 -0.66543494187E-01  0.88717073459E+00  0.88000000000E+00 0.  1.
        -11    1    4    4    0    0 -0.44048587333E-01 -0.21489304333E-01  0.38147112379E-01  0.62109029541E-01  0.51100000000E-03 0.  1.
         11    1    4    4    0    0 -0.46543220522E-01 -0.26209426150E-01  0.47653175689E-01  0.71584157954E-01  0.51100000000E-03 0. -1.
</event>
<event>
 8    1  0.1163913E+005  0.1043930E+01  0.7957747E-01            NaN
         13   -1    0    0    0    0  0.00000000000E+00  0.00000000000E+00  0.74505805969E-08  0.10566000000E+00  0.10566000000E+00 0.  1.
     999900   -1    0    0    0    0 -0.00000000000E+00 -0.00000000000E+00 -0.74505805969E-08  0.93827000000E+00  0.93827000000E+00 0.  1.
     999902    2    1    2    0    0  0.12642273728E-01  0.19487929801E-01  0.23734617634E-02  0.10205796293E+01  0.10203124717E+01 0.  0.
     999903    2    3    3    0    0 -0.51926228895E-01 -0.25583601353E-01  0.11449672200E+00  0.12997749590E+00  0.20827774422E-01 0.  0.
         14    1    1    2    0    0 -0.12642273728E-01 -0.19487929801E-01 -0.23734617634E-02  0.23350370740E-01  0.00000000000E+00 0. -1.
     999901    1    3    3    0    0  0.64568502623E-01  0.45071531155E-01 -0.11212326024E+00  0.89060213336E+00  0.88000000000E+00 0.  1.
        -11    1    4    4    0    0 -0.49562160730E-01 -0.16693607609E-01  0.96701294080E-01  0.10993855424E+00  0.51100000000E-03 0.  1.
         11    1    4    4    0    0 -0.23640681649E-02 -0.88899937442E-02  0.17795427920E-01  0.20038941661E-01  0.51100000000E-03 0. -1.
</event>
<event>
 8    1  0.1163913E+005  0.1043930E+01  0.7957747E-01            NaN
         13   -1    0    0    0    0  0.00000000000E+00  0.00000000000E+00  0.74505805969E-08  0.10566000000E+00  0.10566000000E+00 0. -1.
     999900   -1    0    0    0    0 -0.00000000000E+00 -0.00000000000E+00 -0.74505805969E-08  0.93827000000E+00  0.93827000000E+00 0.  1.
     999902    2    1    2    0    0 -0.14769791376E-01  0.19652461901E-01  0.11233264145E-02  0.10193204925E+01  0.10190233749E+01 0.  0.
     999903    2    3    3    0    0  0.60073860546E-01  0.10559038729E+00 -0.44710051526E-01  0.13078934631E+00  0.18672594673E-01 0.  0.
         14    1    1    2    0    0  0.14769791376E-01 -0.19652461901E-01 -0.11233264145E-02  0.24609507478E-01  0.00000000000E+00 0. -1.
     999901    1    3    3    0    0 -0.74843651921E-01 -0.85937925391E-01  0.45833377941E-01  0.88853114621E+00  0.88000000000E+00 0. -1.
        -11    1    4    4    0    0  0.51788302702E-01  0.81042210285E-01 -0.28867338707E-01  0.10041639562E+00  0.51100000000E-03 0.  1.
         11    1    4    4    0    0  0.82855578439E-02  0.24548177006E-01 -0.15842712819E-01  0.30372950690E-01  0.51100000000E-03 0. -1.
</event>
<event>
 8    1  0.1163913E+005  0.1043930E+01  0.7957747E-01            NaN
         13   -1    0    0    0    0  0.00000000000E+00  0.00000000000E+00  0.74505805969E-08  0.10566000000E+00  0.10566000000E+00 0.  1.
     999900   -1    0    0    0    0 -0.00000000000E+00 -0.00000000000E+00 -0.74505805969E-08  0.93827000000E+00  0.93827000000E+00 0.  1.
     999902    2    1    2    0    0 -0.16701015016E-01  0.16846699414E-01  0.18030385914E-02  0.10201395370E+01  0.10198620930E+01 0.  0.
     999903    2    3    3    0    0  0.21515224852E-01  0.12036759261E+00 -0.46046867907E-01  0.13195787205E+00  0.18474406695E-01 0.  0.
         14    1    1    2    0    0  0.16701015016E-01 -0.16846699414E-01 -0.18030385914E-02  0.23790463044E-01  0.00000000000E+00 0.  1.
     999901    1    3    3    0    0 -0.38216239868E-01 -0.10352089319E+00  0.47849906498E-01  0.88818166490E+00  0.88000000000E+00 0. -1.
        -11    1    4    4    0    0  0.22337285832E-01  0.79322493853E-01 -0.27197973089E-01  0.86781353011E-01  0.51100000000E-03 0.  1.
         11    1    4    4    0    0 -0.82206098006E-03  0.41045098753E-01 -0.18848894818E-01  0.45176519042E-01  0.51100000000E-03 0. -1.
</event>
<event>
 8    1  0.1163913E+005  0.1043930E+01  0.7957747E-01            NaN
         13   -1    0    0    0    0  0.00000000000E+00  0.00000000000E+00  0.74505805969E-08  0.10566000000E+00  0.10566000000E+00 0.  1.
     999900   -1    0    0    0    0 -0.00000000000E+00 -0.00000000000E+00 -0.74505805969E-08  0.93827000000E+00  0.93827000000E+00 0.  1.
     999902    2    1    2    0    0  0.96812532173E-02 -0.37990700929E-02 -0.53735371090E-02  0.10322238265E+01  0.10321574461E+01 0.  0.
     999903    2    3    3    0    0  0.44955738104E-01  0.91971718252E-02 -0.13308889438E+00  0.14221011643E+00  0.20135964100E-01 0.  0.
         14    1    1    2    0    0 -0.96812532173E-02  0.37990700929E-02  0.53735371090E-02  0.11706173520E-01  0.00000000000E+00 0.  1.
     999901    1    3    3    0    0 -0.35274484887E-01 -0.12996241918E-01  0.12771535727E+00  0.89001371005E+00  0.88000000000E+00 0. -1.
        -11    1    4    4    0    0  0.27031929411E-01  0.13978686213E-01 -0.67469107593E-01  0.74016690525E-01  0.51100000000E-03 0.  1.
         11    1    4    4    0    0  0.17923808693E-01 -0.47815143880E-02 -0.65619786788E-01  0.68193425908E-01  0.51100000000E-03 0. -1.
</event>
<event>
 8    1  0.1163913E+005  0.1043930E+01  0.7957747E-01            NaN
         13   -1    0    0    0    0  0.00000000000E+00  0.00000000000E+00  0.74505805969E-08  0.10566000000E+00  0.10566000000E+00 0. -1.
     999900   -1    0    0    0    0 -0.00000000000E+00 -0.00000000000E+00 -0.74505805969E-08  0.93827000000E+00  0.93827000000E+00 0. -1.
     999902    2    1    2    0    0  0.15634165080E-01  0.13898879857E-01 -0.11068249301E-01  0.10202633120E+01  0.10199887811E+01 0.  0.
     999903    2    3    3    0    0 -0.53746333880E-01 -0.96154287367E-01  0.61740188662E-01  0.12772400087E+00  0.19163875303E-01 0.  0.
         14    1    1    2    0    0 -0.15634165080E-01 -0.13898879857E-01  0.11068249301E-01  0.23666688016E-01  0.00000000000E+00 0.  1.
     999901    1    3    3    0    0  0.69380498960E-01  0.11005316722E+00 -0.72808437963E-01  0.89253931112E+00  0.88000000000E+00 0. -1.
        -11    1    4    4    0    0 -0.27466517789E-01 -0.65030107501E-01  0.33395376559E-01  0.78095049635E-01  0.51100000000E-03 0.  1.
         11    1    4    4    0    0 -0.26279816091E-01 -0.31124179866E-01  0.28344812103E-01  0.49628951231E-01  0.51100000000E-03 0. -1.
</event>
<event>
 8    1  0.1163913E+005  0.1043930E+01  0.7957747E-01            NaN
         13   -1    0    0    0    0  0.00000000000E+00  0.00000000000E+00  0.74505805969E-08  0.10566000000E+00  0.10566000000E+00 0. -1.
     999900   -1    0    0    0    0 -0.00000000000E+00 -0.00000000000E+00 -0.74505805969E-08  0.93827000000E+00  0.93827000000E+00 0. -1.
     999902    2    1    2    0    0 -0.26249002488E-02 -0.15809844893E-01  0.17162046149E-01  0.10204485792E+01  0.10201783793E+01 0.  0.
     999903    2    3    3    0    0  0.33962261181E-01 -0.23496101926E-01 -0.12064903683E+00  0.12893885205E+00  0.19066606698E-01 0.  0.
         14    1    1    2    0    0  0.26249002488E-02  0.15809844893E-01 -0.17162046149E-01  0.23481420845E-01  0.00000000000E+00 0.  1.
     999901    1    3    3    0    0 -0.36587161430E-01  0.76862570335E-02  0.13781108298E+00  0.89150972710E+00  0.88000000000E+00 0.  1.
        -11    1    4    4    0    0  0.13613216638E-01 -0.20468939482E-01 -0.73202302330E-01  0.77221339914E-01  0.51100000000E-03 0. -1.
         11    1    4    4    0    0  0.20349044544E-01 -0.30271624442E-02 -0.47446734497E-01  0.51717512138E-01  0.51100000000E-03 0.  1.
</event>
<event>
 8    1  0.1163913E+005  0.1043930E+01  0.7957747E-01            NaN
         13   -1    0    0    0    0  0.00000000000E+00  0.00000000000E+00  0.74505805969E-08  0.10566000000E+00  0.10566000000E+00 0. -1.
     999900   -1    0    0    0    0 -0.00000000000E+00 -0.00000000000E+00 -0.74505805969E-08  0.93827000000E+00  0.93827000000E+00 0.  1.
     999902    2    1    2    0    0 -0.15331428346E-02 -0.11387136853E-01 -0.20195454368E-01  0.10206948157E+01  0.10204303176E+01 0.  0.
     999903    2    3    3    0    0  0.59366215992E-01  0.28734235164E-01  0.10843757471E+00  0.12835804487E+00  0.19159232776E-01 0.  0.
         14    1    1    2    0    0  0.15331428346E-02  0.11387136853E-01  0.20195454368E-01  0.23235184307E-01  0.00000000000E+00 0. -1.
     999901    1    3    3    0    0 -0.60899358826E-01 -0.40121372017E-01 -0.12863302908E+00  0.89233677083E+00  0.88000000000E+00 0.  1.
        -11    1    4    4    0    0  0.23164032484E-01  0.60740491805E-02  0.54692920269E-01  0.59707982070E-01  0.51100000000E-03 0.  1.
         11    1    4    4    0    0  0.36202183508E-01  0.22660185984E-01  0.53744654445E-01  0.68650062796E-01  0.51100000000E-03 0. -1.
</event>
<event>
 8    1  0.1163913E+005  0.1043930E+01  0.7957747E-01            NaN
         13   -1    0    0    0    0  0.00000000000E+00  0.00000000000E+00  0.74505805969E-08  0.10566000000E+00  0.10566000000E+00 0. -1.
     999900   -1    0    0    0    0 -0.00000000000E+00 -0.00000000000E+00 -0.74505805969E-08  0.93827000000E+00  0.93827000000E+00 0. -1.
     999902    2    1    2    0    0 -0.20424372523E-01 -0.96938146496E-02  0.87492288812E-02  0.10196880108E+01  0.10193998064E+01 0.  0.
     999903    2    3    3    0    0 -0.49654988269E-01  0.23748764348E-01  0.11731536667E+00  0.13190456800E+00  0.24623121956E-01 0.  0.
         14    1    1    2    0    0  0.20424372523E-01  0.96938146496E-02 -0.87492288812E-02  0.24241989222E-01  0.00000000000E+00 0.  1.
     999901    1    3    3    0    0  0.29230615746E-01 -0.33442578998E-01 -0.10856613779E+00  0.88778344277E+00  0.88000000000E+00 0. -1.
        -11    1    4    4    0    0 -0.91329802088E-02 -0.25791529211E-02  0.36727600738E-01  0.37937331671E-01  0.51100000000E-03 0.  1.
         11    1    4    4    0    0 -0.40522008060E-01  0.26327917269E-01  0.80587765935E-01  0.93967236334E-01  0.51100000000E-03 0. -1.
</event>
<event>
 8    1  0.1163913E+005  0.1043930E+01  0.7957747E-01            NaN
         13   -1    0    0    0    0  0.00000000000E+00  0.00000000000E+00  0.74505805969E-08  0.10566000000E+00  0.10566000000E+00 0.  1.
     999900   -1    0    0    0    0 -0.00000000000E+00 -0.00000000000E+00 -0.74505805969E-08  0.93827000000E+00  0.93827000000E+00 0. -1.
     999902    2    1    2    0    0  0.26582158317E-01 -0.72038898726E-02  0.21048163856E-02  0.10163086781E+01  0.10159332615E+01 0.  0.
     999903    2    3    3    0    0  0.11583290226E+00  0.48995733465E-01  0.14165732205E-01  0.12992864752E+00  0.29375880166E-01 0.  0.
         14    1    1    2    0    0 -0.26582158317E-01  0.72038898726E-02 -0.21048163856E-02  0.27621321875E-01  0.00000000000E+00 0. -1.
     999901    1    3    3    0    0 -0.89250743940E-01 -0.56199623338E-01 -0.12060915819E-01  0.88638003060E+00  0.88000000000E+00 0.  1.
        -11    1    4    4    0    0  0.10333263877E+00  0.47408324071E-01  0.40506736960E-02  0.11376226310E+00  0.51100000000E-03 0. -1.
         11    1    4    4    0    0  0.12500263485E-01  0.15874093940E-02  0.10115058509E-01  0.16166384426E-01  0.51100000000E-03 0.  1.
</event>
<event>
 8    1  0.1163913E+005  0.1043930E+01  0.7957747E-01            NaN
         13   -1    0    0    0    0  0.00000000000E+00  0.00000000000E+00  0.74505805969E-08  0.10566000000E+00  0.10566000000E+00 0.  1.
     999900   -1    0    0    0    0 -0.00000000000E+00 -0.00000000000E+00 -0.74505805969E-08  0.93827000000E+00  0.93827000000E+00 0. -1.
     999902    2    1    2    0    0 -0.42067845314E-02 -0.23751729666E-01  0.14134452161E-02  0.10197672285E+01  0.10194809272E+01 0.  0.
     999903    2    3    3    0    0 -0.48497092734E-01 -0.26911145471E-01 -0.11682178649E+00  0.13075025268E+00  0.19290438676E-01 0.  0.
         14    1    1    2    0    0  0.42067845314E-02  0.23751729666E-01 -0.14134452161E-02  0.24162771480E-01  0.00000000000E+00 0.  1.
     999901    1    3    3    0    0  0.44290308203E-01  0.31594158044E-02  0.11823523170E+00  0.88901697584E+00  0.88000000000E+00 0.  1.
        -11    1    4    4    0    0 -0.39397675323E-01 -0.15112973556E-01 -0.98289630901E-01  0.10696584247E+00  0.51100000000E-03 0. -1.
         11    1    4    4    0    0 -0.90994174107E-02 -0.11798171914E-01 -0.18532155587E-01  0.23784410218E-01  0.51100000000E-03 0.  1.
</event>
<event>
 8    1  0.1163913E+005  0.1043930E+01  0.7957747E-01            NaN
         13   -1    0    0    0    0  0.00000000000E+00  0.00000000000E+00  0.74505805969E-08  0.10566000000E+00  0.10566000000E+00 0.  1.
     999900   -1    0    0    0    0 -0.00000000000E+00 -0.00000000000E+00 -0.74505805969E-08  0.93827000000E+00  0.93827000000E+00 0. -1.
     999902    2    1    2    0    0 -0.14853320040E-01 -0.18966650837E-01 -0.19130743451E-02  0.10197636016E+01  0.10194772132E+01 0.  0.
     999903    2    3    3    0    0 -0.43145280939E-01  0.67507706984E-01 -0.99960378396E-01  0.12965601062E+00  0.19994951156E-01 0.  0.
         14    1    1    2    0    0  0.14853320040E-01  0.18966650837E-01  0.19130743451E-02  0.24166398441E-01  0.00000000000E+00 0.  1.
     999901    1    3    3    0    0  0.28291960899E-01 -0.86474357821E-01  0.98047304051E-01  0.89010759094E+00  0.88000000000E+00 0.  1.
        -11    1    4    4    0    0 -0.17289865777E-01  0.21988122165E-01 -0.49974562156E-01  0.57272462481E-01  0.51100000000E-03 0. -1.
         11    1    4    4    0    0 -0.25855415162E-01  0.45519584818E-01 -0.49985816240E-01  0.72383548141E-01  0.51100000000E-03 0.  1.
</event>
<event>
 8    1  0.1163913E+005  0.1043930E+01  0.7957747E-01            NaN
         13   -1    0    0    0    0  0.00000000000E+00  0.00000000000E+00  0.74505805969E-08  0.10566000000E+00  0.10566000000E+00 0.  1.
     999900   -1    0    0    0    0 -0.00000000000E+00 -0.00000000000E+00 -0.74505805969E-08  0.93827000000E+00  0.93827000000E+00 0. -1.
     999902    2    1    2    0    0  0.12465757062E-01  0.13722787338E-01 -0.14705828713E-01  0.10202662854E+01  0.10199918243E+01 0.  0.
     999903    2    3    3    0    0 -0.82574904318E-01 -0.94933552030E-01 -0.24509419622E-01  0.12845070030E+00  0.82387276136E-02 0.  0.
         14    1    1    2    0    0 -0.12465757062E-01 -0.13722787338E-01  0.14705828713E-01  0.23663714620E-01  0.00000000000E+00 0.  1.
     999901    1    3    3    0    0  0.95040661381E-01  0.10865633937E+00  0.98035909086E-02  0.89181558508E+00  0.88000000000E+00 0. -1.
        -11    1    4    4    0    0 -0.59341043900E-01 -0.73340391204E-01 -0.19466707892E-01  0.96329571318E-01  0.51100000000E-03 0.  1.
         11    1    4    4    0    0 -0.23233860418E-01 -0.21593160826E-01 -0.50427117301E-02  0.32121128980E-01  0.51100000000E-03 0. -1.
</event>
<event>
 8    1  0.1163913E+005  0.1043930E+01  0.7957747E-01            NaN
         13   -1    0    0    0    0  0.00000000000E+00  0.00000000000E+00  0.74505805969E-08  0.10566000000E+00  0.10566000000E+00 0. -1.
     999900   -1    0    0    0    0 -0.00000000000E+00 -0.00000000000E+00 -0.74505805969E-08  0.93827000000E+00  0.93827000000E+00 0. -1.
     999902    2    1    2    0    0  0.15215241972E-01 -0.17571666933E-01 -0.97156903892E-03  0.10206660577E+01  0.10204008968E+01 0.  0.
     999903    2    3    3    0    0 -0.23587739044E-01  0.11850159983E+00 -0.39972257064E-01  0.12850987238E+00  0.17832424640E-01 0.  0.
         14    1    1    2    0    0 -0.15215241972E-01  0.17571666933E-01  0.97156903892E-03  0.23263942345E-01  0.00000000000E+00 0. -1.
     999901    1    3    3    0    0  0.38802981016E-01 -0.13607326676E+00  0.39000688025E-01  0.89215618528E+00  0.88000000000E+00 0.  1.
        -11    1    4    4    0    0 -0.19460233171E-02  0.46205876235E-01 -0.10061958932E-01  0.47331534350E-01  0.51100000000E-03 0. -1.
         11    1    4    4    0    0 -0.21641715727E-01  0.72295723593E-01 -0.29910298132E-01  0.81178338026E-01  0.51100000000E-03 0.  1.
</event>
<event>
 8    1  0.1163913E+005  0.1043930E+01  0.7957747E-01            NaN
         13   -1    0    0    0    0  0.00000000000E+00  0.00000000000E+00  0.74505805969E-08  0.10566000000E+00  0.10566000000E+00 0. -1.
     999900   -1    0    0    0    0 -0.00000000000E+00 -0.00000000000E+00 -0.74505805969E-08  0.93827000000E+00  0.93827000000E+00 0.  1.
     999902    2    1    2    0    0  0.63767333347E-02 -0.20528671138E-01  0.10655122465E-01  0.10199379034E+01  0.10196556801E+01 0.  0.
     999903    2    3    3    0    0 -0.54122822983E-01  0.11296523663E+00  0.15281375852E-01  0.12780438087E+00  0.20248818865E-01 0.  0.
         14    1    1    2    0    0 -0.63767333347E-02  0.20528671138E-01 -0.10655122465E-01  0.23992096646E-01  0.00000000000E+00 0.  1.
     999901    1    3    3    0    0  0.60499556318E-01 -0.13349390777E+00 -0.46262533868E-02  0.89213352249E+00  0.88000000000E+00 0.  1.
        -11    1    4    4    0    0 -0.43751841073E-01  0.74159438110E-01  0.45531799038E-02  0.86225509139E-01  0.51100000000E-03 0. -1.
         11    1    4    4    0    0 -0.10370981910E-01  0.38805798523E-01  0.10728195948E-01  0.41578871727E-01  0.51100000000E-03 0.  1.
</event>
<event>
 7    1  0.1380902E+005  0.1043930E+01  0.7957747E-01            NaN
         13   -1    0    0    0    0  0.00000000000E+00  0.00000000000E+00  0.74505805969E-08  0.10566000000E+00  0.10566000000E+00 0. -1.
     999900   -1    0    0    0    0 -0.00000000000E+00 -0.00000000000E+00 -0.74505805969E-08  0.93827000000E+00  0.93827000000E+00 0.  1.
     999903    2    1    2    0    0  0.81727724388E-01  0.47489422254E-01 -0.46135188858E-01  0.10704568426E+00  0.19891121320E-01 0.  0.
         14    1    1    2    0    0  0.33474010989E-01  0.10777886097E-01  0.31704346517E-01  0.47348049891E-01  0.00000000000E+00 0. -1.
     999901    1    1    2    0    0 -0.11520173538E+00 -0.58267308351E-01  0.14430842341E-01  0.88953626585E+00  0.88000000000E+00 0.  1.
        -11    1    3    3    0    0  0.32535404809E-01  0.17198138939E-01 -0.75462391624E-02  0.37570405847E-01  0.51100000000E-03 0. -1.
         11    1    3    3    0    0  0.49192319579E-01  0.30291283315E-01 -0.38588949696E-01  0.69475278410E-01  0.51100000000E-03 0.  1.
</event>
<event>
 8    1  0.1163913E+005  0.1043930E+01  0.7957747E-01            NaN
         13   -1    0    0    0    0  0.00000000000E+00  0.00000000000E+00  0.74505805969E-08  0.10566000000E+00  0.10566000000E+00 0. -1.
     999900   -1    0    0    0    0 -0.00000000000E+00 -0.00000000000E+00 -0.74505805969E-08  0.93827000000E+00  0.93827000000E+00 0.  1.
     999902    2    1    2    0    0  0.17202991938E-01  0.11760562159E-01 -0.85587910345E-02  0.10214020916E+01  0.10211536251E+01 0.  0.
     999903    2    3    3    0    0 -0.62873786551E-01  0.11322802449E+00 -0.14910608449E-01  0.13193692534E+00  0.20281209501E-01 0.  0.
         14    1    1    2    0    0 -0.17202991938E-01 -0.11760562159E-01  0.85587910345E-02  0.22527908422E-01  0.00000000000E+00 0. -1.
     999901    1    3    3    0    0  0.80076778488E-01 -0.10146746233E+00  0.63518174149E-02  0.88946516624E+00  0.88000000000E+00 0. -1.
        -11    1    4    4    0    0 -0.46541750510E-01  0.67560911285E-01 -0.15176553453E-01  0.83433807116E-01  0.51100000000E-03 0.  1.
         11    1    4    4    0    0 -0.16332036040E-01  0.45667113206E-01  0.26594500309E-03  0.48503118225E-01  0.51100000000E-03 0. -1.
</event>
<event>
 8    1  0.1163913E+005  0.1043930E+01  0.7957747E-01            NaN
         13   -1    0    0    0    0  0.00000000000E+00  0.00000000000E+00  0.74505805969E-08  0.10566000000E+00  0.10566000000E+00 0. -1.
     999900   -1    0    0    0    0 -0.00000000000E+00 -0.00000000000E+00 -0.74505805969E-08  0.93827000000E+00  0.93827000000E+00 0.  1.
     999902    2    1    2    0    0 -0.16486448986E-01  0.16700126104E-01  0.41014251242E-02  0.10201073448E+01  0.10198291406E+01 0.  0.
     999903    2    3    3    0    0 -0.45463032118E-01  0.23783352652E-01 -0.11889803278E+00  0.13105240775E+00  0.20135943639E-01 0.  0.
         14    1    1    2    0    0  0.16486448986E-01 -0.16700126104E-01 -0.41014251242E-02  0.23822655186E-01  0.00000000000E+00 0. -1.
     999901    1    3    3    0    0  0.28976583132E-01 -0.70832265483E-02  0.12299945790E+00  0.88905493706E+00  0.88000000000E+00 0. -1.
        -11    1    4    4    0    0 -0.80629924167E-02  0.10427140996E-01 -0.48089773615E-01  0.49866066251E-01  0.51100000000E-03 0.  1.
         11    1    4    4    0    0 -0.37400039701E-01  0.13356211656E-01 -0.70808259165E-01  0.81186341502E-01  0.51100000000E-03 0. -1.
</event>
<event>
 8    1  0.1163913E+005  0.1043930E+01  0.7957747E-01            NaN
         13   -1    0    0    0    0  0.00000000000E+00  0.00000000000E+00  0.74505805969E-08  0.10566000000E+00  0.10566000000E+00 0. -1.
     999900   -1    0    0    0    0 -0.00000000000E+00 -0.00000000000E+00 -0.74505805969E-08  0.93827000000E+00  0.93827000000E+00 0. -1.
     999902    2    1    2    0    0 -0.31952989849E-02 -0.34893694536E-02  0.23712091640E-01  0.10197504854E+01  0.10194637824E+01 0.  0.
     999903    2    3    3    0    0  0.37392739190E-01  0.12189943513E+00 -0.71234017679E-02  0.12940191953E+00  0.20890780167E-01 0.  0.
         14    1    1    2    0    0  0.31952989849E-02  0.34893694536E-02 -0.23712091640E-01  0.24179514567E-01  0.00000000000E+00 0.  1.
     999901    1    3    3    0    0 -0.40588038175E-01 -0.12538880458E+00  0.30835493408E-01  0.89034856591E+00  0.88000000000E+00 0. -1.
        -11    1    4    4    0    0  0.31293652807E-01  0.11496010388E+00 -0.27710209277E-02  0.11917658272E+00  0.51100000000E-03 0.  1.
         11    1    4    4    0    0  0.60990863835E-02  0.69393312431E-02 -0.43523808402E-02  0.10225336806E-01  0.51100000000E-03 0. -1.
</event>
<event>
 8    1  0.1163913E+005  0.1043930E+01  0.7957747E-01            NaN
         13   -1    0    0    0    0  0.00000000000E+00  0.00000000000E+00  0.74505805969E-08  0.10566000000E+00  0.10566000000E+00 0. -1.
     999900   -1    0    0    0    0 -0.00000000000E+00 -0.00000000000E+00 -0.74505805969E-08  0.93827000000E+00  0.93827000000E+00 0. -1.
     999902    2    1    2    0    0  0.56028693537E-02  0.23019632136E-01 -0.45724203499E-02  0.10198011244E+01  0.10195156354E+01 0.  0.
     999903    2    3    3    0    0  0.71250971155E-01  0.40367481302E-01 -0.10162041486E+00  0.13186591599E+00  0.18859391480E-01 0.  0.
         14    1    1    2    0    0 -0.56028693537E-02 -0.23019632136E-01  0.45724203499E-02  0.24128875575E-01  0.00000000000E+00 0.  1.
     999901    1    3    3    0    0 -0.65648101802E-01 -0.17347849166E-01  0.97047994507E-01  0.88793520844E+00  0.88000000000E+00 0.  1.
        -11    1    4    4    0    0  0.23595268776E-01  0.17060456759E-01 -0.49890575409E-01  0.57767867618E-01  0.51100000000E-03 0. -1.
         11    1    4    4    0    0  0.47655702379E-01  0.23307024543E-01 -0.51729839447E-01  0.74098048372E-01  0.51100000000E-03 0.  1.
</event>
<event>
 8    1  0.1163913E+005  0.1043930E+01  0.7957747E-01            NaN
         13   -1    0    0    0    0  0.00000000000E+00  0.00000000000E+00  0.74505805969E-08  0.10566000000E+00  0.10566000000E+00 0.  1.
     999900   -1    0    0    0    0 -0.00000000000E+00 -0.00000000000E+00 -0.74505805969E-08  0.93827000000E+00  0.93827000000E+00 0.  1.
     999902    2    1    2    0    0 -0.21355092018E-01  0.97398928467E-02 -0.48523241307E-02  0.10199623026E+01  0.10196806599E+01 0.  0.
     999903    2    3    3    0    0  0.74182677545E-03 -0.82575742486E-02 -0.12848662162E+00  0.13086297063E+00  0.23400156140E-01 0.  0.
         14    1    1    2    0    0  0.21355092018E-01 -0.97398928467E-02  0.48523241307E-02  0.23967697370E-01  0.00000000000E+00 0.  1.
     999901    1    3    3    0    0 -0.22096918794E-01  0.17997467095E-01  0.12363429749E+00  0.88909933200E+00  0.88000000000E+00 0. -1.
        -11    1    4    4    0    0  0.11753330607E-01 -0.69847711130E-02 -0.74931334026E-01  0.76170163107E-01  0.51100000000E-03 0.  1.
         11    1    4    4    0    0 -0.11011503832E-01 -0.12728031356E-02 -0.53555287596E-01  0.54692807525E-01  0.51100000000E-03 0. -1.
</event>
<event>
 8    1  0.1163913E+005  0.1043930E+01  0.7957747E-01            NaN
         13   -1    0    0    0    0  0.00000000000E+00  0.00000000000E+00  0.74505805969E-08  0.10566000000E+00  0.10566000000E+00 0. -1.
     999900   -1    0    0    0    0 -0.00000000000E+00 -0.00000000000E+00 -0.74505805969E-08  0.93827000000E+00  0.93827000000E+00 0. -1.
     999902    2    1    2    0    0 -0.22852500173E-01  0.11721151415E-01 -0.64588652701E-02  0.10174471925E+01  0.10171024778E+01 0.  0.
     999903    2    3    3    0    0 -0.10141606642E+00  0.71346714526E-01  0.36943413867E-01  0.13087446586E+00  0.19691058501E-01 0.  0.
         14    1    1    2    0    0  0.22852500173E-01 -0.11721151415E-01  0.64588652701E-02  0.26482807540E-01  0.00000000000E+00 0. -1.
     999901    1    3    3    0    0  0.78563566244E-01 -0.59625563112E-01 -0.43402279137E-01  0.88657272660E+00  0.88000000000E+00 0. -1.
        -11    1    4    4    0    0 -0.45924023646E-01  0.25848348740E-01  0.71905849302E-02  0.53189460545E-01  0.51100000000E-03 0. -1.
         11    1    4    4    0    0 -0.55492042770E-01  0.45498365786E-01  0.29752828937E-01  0.77685005315E-01  0.51100000000E-03 0.  1.
</event>
<event>
 8    1  0.1163913E+005  0.1043930E+01  0.7957747E-01            NaN
         13   -1    0    0    0    0  0.00000000000E+00  0.00000000000E+00  0.74505805969E-08  0.10566000000E+00  0.10566000000E+00 0. -1.
     999900   -1    0    0    0    0 -0.00000000000E+00 -0.00000000000E+00 -0.74505805969E-08  0.93827000000E+00  0.93827000000E+00 0. -1.
     999902    2    1    2    0    0 -0.21253938042E-01  0.10417277131E-02 -0.13620425955E-01  0.10186647851E+01  0.10183514194E+01 0.  0.
     999903    2    3    3    0    0 -0.22894820933E-01 -0.64015898284E-01 -0.11016890972E+00  0.13099547908E+00  0.20010467534E-01 0.  0.
         14    1    1    2    0    0  0.21253938042E-01 -0.10417277131E-02  0.13620425955E-01  0.25265214864E-01  0.00000000000E+00 0. -1.
     999901    1    3    3    0    0  0.16408828907E-02  0.65057625997E-01  0.96548483768E-01  0.88766930606E+00  0.88000000000E+00 0.  1.
        -11    1    4    4    0    0 -0.72301268874E-02 -0.31529802474E-01 -0.69341312404E-01  0.76517200065E-01  0.51100000000E-03 0.  1.
         11    1    4    4    0    0 -0.15664694045E-01 -0.32486095809E-01 -0.40827597320E-01  0.54478279014E-01  0.51100000000E-03 0. -1.
</event>
<event>
 8    1  0.1163913E+005  0.1043930E+01  0.7957747E-01            NaN
         13   -1    0    0    0    0  0.00000000000E+00  0.00000000000E+00  0.74505805969E-08  0.10566000000E+00  0.10566000000E+00 0.  1.
     999900   -1    0    0    0    0 -0.00000000000E+00 -0.00000000000E+00 -0.74505805969E-08  0.93827000000E+00  0.93827000000E+00 0.  1.
     999902    2    1    2    0    0 -0.84009735113E-02 -0.21984590728E-01 -0.56365098611E-02  0.10197294044E+01  0.10194421952E+01 0.  0.
     999903    2    3    3    0    0 -0.53807557545E-01 -0.50598241616E-01 -0.10797055931E+00  0.13217503614E+00  0.18898761787E-01 0.  0.
         14    1    1    2    0    0  0.84009735113E-02  0.21984590728E-01  0.56365098611E-02  0.24200595629E-01  0.00000000000E+00 0. -1.
     999901    1    3    3    0    0  0.45406584034E-01  0.28613650889E-01  0.10233404945E+00  0.88755436823E+00  0.88000000000E+00 0. -1.
        -11    1    4    4    0    0 -0.35251810773E-01 -0.30065635311E-01 -0.51437435106E-01  0.69229353895E-01  0.51100000000E-03 0. -1.
         11    1    4    4    0    0 -0.18555746772E-01 -0.20532606306E-01 -0.56533124203E-01  0.62945682244E-01  0.51100000000E-03 0.  1.
</event>
<event>
 8    1  0.1163913E+005  0.1043930E+01  0.7957747E-01            NaN
         13   -1    0    0    0    0  0.00000000000E+00  0.00000000000E+00  0.74505805969E-08  0.10566000000E+00  0.10566000000E+00 0.  1.
     999900   -1    0    0    0    0 -0.00000000000E+00 -0.00000000000E+00 -0.74505805969E-08  0.93827000000E+00  0.93827000000E+00 0. -1.
     999902    2    1    2    0    0 -0.58910280732E-02  0.25708221696E-01  0.18031434326E-01  0.10119808295E+01  0.10114763713E+01 0.  0.
     999903    2    3    3    0    0 -0.10520098544E+00 -0.55003703182E-01  0.29503689373E-01  0.12265046616E+00  0.89450802836E-02 0.  0.
         14    1    1    2    0    0  0.58910280732E-02 -0.25708221696E-01 -0.18031434326E-01  0.31949170543E-01  0.00000000000E+00 0. -1.
     999901    1    3    3    0    0  0.99309957365E-01  0.80711924879E-01 -0.11472255046E-01  0.88933036330E+00  0.88000000000E+00 0.  1.
        -11    1    4    4    0    0 -0.12168179775E-01 -0.72694783288E-02  0.64130383891E-02  0.15565927425E-01  0.51100000000E-03 0.  1.
         11    1    4    4    0    0 -0.93032805662E-01 -0.47734224854E-01  0.23090650984E-01  0.10708453873E+00  0.51100000000E-03 0. -1.
</event>
<event>
 8    1  0.1163913E+005  0.1043930E+01  0.7957747E-01            NaN
         13   -1    0    0    0    0  0.00000000000E+00  0.00000000000E+00  0.74505805969E-08  0.10566000000E+00  0.10566000000E+00 0.  1.
     999900   -1    0    0    0    0 -0.00000000000E+00 -0.00000000000E+00 -0.74505805969E-08  0.93827000000E+00  0.93827000000E+00 0. -1.
     999902    2    1    2    0    0  0.45804050302E-02 -0.25573570907E-02 -0.23491295640E-01  0.10198600778E+01  0.10195759987E+01 0.  0.
     999903    2    3    3    0    0  0.34630610369E-01 -0.36281493573E-01  0.11584593803E+00  0.12775291105E+00  0.19618842304E-01 0.  0.
         14    1    1    2    0    0 -0.45804050302E-02  0.25573570907E-02  0.23491295640E-01  0.24069922235E-01  0.00000000000E+00 0.  1.
     999901    1    3    3    0    0 -0.30050205339E-01  0.33724136482E-01 -0.13933723367E+00  0.89210716672E+00  0.88000000000E+00 0. -1.
        -11    1    4    4    0    0  0.33925120571E-01 -0.24368816037E-01  0.86107392683E-01  0.95705262115E-01  0.51100000000E-03 0.  1.
         11    1    4    4    0    0  0.70548979766E-03 -0.11912677536E-01  0.29738545345E-01  0.32047648933E-01  0.51100000000E-03 0. -1.
</event>
<event>
 8    1  0.1163913E+005  0.1043930E+01  0.7957747E-01            NaN
         13   -1    0    0    0    0  0.00000000000E+00  0.00000000000E+00  0.74505805969E-08  0.10566000000E+00  0.10566000000E+00 0.  1.
     999900   -1    0    0    0    0 -0.00000000000E+00 -0.00000000000E+00 -0.74505805969E-08  0.93827000000E+00  0.93827000000E+00 0.  1.
     999902    2    1    2    0    0  0.10693367056E-01 -0.15609733841E-02 -0.24014967853E-01  0.10175955469E+01  0.10172547339E+01 0.  0.
     999903    2    3    3    0    0 -0.99817361313E-01 -0.70840824012E-02  0.72968651869E-01  0.12537979483E+00  0.19544281868E-01 0.  0.
         14    1    1    2    0    0 -0.10693367056E-01  0.15609733841E-02  0.24014967853E-01  0.26334453058E-01  0.00000000000E+00 0.  1.
     999901    1    3    3    0    0  0.11051072837E+00  0.55231090171E-02 -0.96983619722E-01  0.89221575211E+00  0.88000000000E+00 0.  1.
        -11    1    4    4    0    0 -0.14562390603E-01 -0.81226952819E-02  0.11180749178E-01  0.20082621141E-01  0.51100000000E-03 0. -1.
         11    1    4    4    0    0 -0.85254970709E-01  0.10386128807E-02  0.61787902691E-01  0.10529717369E+00  0.51100000000E-03 0.  1.
</event>
<event>
 8    1  0.1163913E+005  0.1043930E+01  0.7957747E-01            NaN
         13   -1    0    0    0    0  0.00000000000E+00  0.00000000000E+00  0.74505805969E-08  0.10566000000E+00  0.10566000000E+00 0.  1.
     999900   -1    0    0    0    0 -0.00000000000E+00 -0.00000000000E+00 -0.74505805969E-08  0.93827000000E+00  0.93827000000E+00 0.  1.
     999902    2    1    2    0    0  0.10031375050E-01 -0.49277542076E-02 -0.19767114446E-01  0.10212220705E+01  0.10209695722E+01 0.  0.
     999903    2    3    3    0    0 -0.13035909920E-01  0.12477175736E+00 -0.33349049045E-01  0.13131278759E+00  0.19823287530E-01 0.  0.
         14    1    1    2    0    0 -0.10031375050E-01  0.49277542076E-02  0.19767114446E-01  0.22707929462E-01  0.00000000000E+00 0.  1.
     999901    1    3    3    0    0  0.23067284969E-01 -0.12969951157E+00  0.13581934599E-01  0.88990928295E+00  0.88000000000E+00 0. -1.
        -11    1    4    4    0    0 -0.95374902193E-02  0.23610902012E-01 -0.30430726061E-02  0.25650727580E-01  0.51100000000E-03 0. -1.
         11    1    4    4    0    0 -0.34984197003E-02  0.10116085535E+00 -0.30305976439E-01  0.10566206001E+00  0.51100000000E-03 0.  1.
</event>
<event>
 8    1  0.1163913E+005  0.1043930E+01  0.7957747E-01            NaN
         13   -1    0    0    0    0  0.00000000000E+00  0.00000000000E+00  0.74505805969E-08  0.10566000000E+00  0.10566000000E+00 0.  1.
     999900   -1    0    0    0    0 -0.00000000000E+00 -0.00000000000E+00 -0.74505805969E-08  0.93827000000E+00  0.93827000000E+00 0. -1.
     999902    2    1    2    0    0  0.47825587046E-02  0.17532731926E-02 -0.22694204439E-01  0.10206711576E+01  0.10204061144E+01 0.  0.
     999903    2    3    3    0    0 -0.72265044181E-01  0.51141954889E-01  0.91137119863E-01  0.12863239982E+00  0.20064483698E-01 0.  0.
         14    1    1    2    0    0 -0.47825587046E-02 -0.17532731926E-02  0.22694204439E-01  0.23258842400E-01  0.00000000000E+00 0.  1.
     999901    1    3    3    0    0  0.77047602886E-01 -0.49388681696E-01 -0.11383132430E+00  0.89203875778E+00  0.88000000000E+00 0. -1.
        -11    1    4    4    0    0 -0.61014198032E-01  0.33071643007E-01  0.71999313478E-01  0.10000314093E+00  0.51100000000E-03 0. -1.
         11    1    4    4    0    0 -0.11250846149E-01  0.18070311882E-01  0.19137806385E-01  0.28629258894E-01  0.51100000000E-03 0.  1.
</event>
<event>
 8    1  0.1163913E+005  0.1043930E+01  0.7957747E-01            NaN
         13   -1    0    0    0    0  0.00000000000E+00  0.00000000000E+00  0.74505805969E-08  0.10566000000E+00  0.10566000000E+00 0. -1.
     999900   -1    0    0    0    0 -0.00000000000E+00 -0.00000000000E+00 -0.74505805969E-08  0.93827000000E+00  0.93827000000E+00 0.  1.
     999902    2    1    2    0    0 -0.13695018100E-01  0.19269583626E-01  0.30040416624E-02  0.10200994599E+01  0.10198210694E+01 0.  0.
     999903    2    3    3    0    0 -0.92197382352E-01  0.31446857170E-01  0.87593116818E-01  0.13248117552E+00  0.19734376450E-01 0.  0.
         14    1    1    2    0    0  0.13695018100E-01 -0.19269583626E-01 -0.30040416624E-02  0.23830540073E-01  0.00000000000E+00 0. -1.
     999901    1    3    3    0    0  0.78502364252E-01 -0.12177273544E-01 -0.84589075155E-01  0.88761828441E+00  0.88000000000E+00 0.  1.
        -11    1    4    4    0    0 -0.16750940015E-01  0.10996001580E-01  0.26730537347E-01  0.33410908249E-01  0.51100000000E-03 0. -1.
         11    1    4    4    0    0 -0.75446442337E-01  0.20450855590E-01  0.60862579471E-01  0.99070267268E-01  0.51100000000E-03 0.  1.
</event>
<event>
 8    1  0.1163913E+005  0.1043930E+01  0.7957747E-01            NaN
         13   -1    0    0    0    0  0.00000000000E+00  0.00000000000E+00  0.74505805969E-08  0.10566000000E+00  0.10566000000E+00 0. -1.
     999900   -1    0    0    0    0 -0.00000000000E+00 -0.00000000000E+00 -0.74505805969E-08  0.93827000000E+00  0.93827000000E+00 0.  1.
     999902    2    1    2    0    0  0.22536352628E-01  0.41498589925E-02  0.61761066758E-02  0.10201970522E+01  0.10199209638E+01 0.  0.
     999903    2    3    3    0    0  0.20726118800E-01  0.12675598913E+00  0.19982962638E-01  0.13158793148E+00  0.20479554055E-01 0.  0.
         14    1    1    2    0    0 -0.22536352628E-01 -0.41498589925E-02 -0.61761066758E-02  0.23732947838E-01  0.00000000000E+00 0.  1.
     999901    1    3    3    0    0  0.18102338284E-02 -0.12260613013E+00 -0.13806855962E-01  0.88860912069E+00  0.88000000000E+00 0.  1.
        -11    1    4    4    0    0 -0.33451197077E-02  0.12404040420E-01 -0.85389792175E-03  0.12885662857E-01  0.51100000000E-03 0. -1.
         11    1    4    4    0    0  0.24071238507E-01  0.11435194871E+00  0.20836860560E-01  0.11870226862E+00  0.51100000000E-03 0.  1.
</event>
<event>
 8    1  0.1163913E+005  0.1043930E+01  0.7957747E-01            NaN
         13   -1    0    0    0    0  0.00000000000E+00  0.00000000000E+00  0.74505805969E-08  0.10566000000E+00  0.10566000000E+00 0. -1.
     999900   -1    0    0    0    0 -0.00000000000E+00 -0.00000000000E+00 -0.74505805969E-08  0.93827000000E+00  0.93827000000E+00 0. -1.
     999902    2    1    2    0    0 -0.47055456179E-02  0.23446149273E-01 -0.85208367024E-03  0.10200011446E+01  0.10197204248E+01 0.  0.
     999903    2    3    3    0    0  0.31801081072E-01  0.11040438560E+00 -0.63569505494E-01  0.13274247674E+00  0.19469103298E-01 0.  0.
         14    1    1    2    0    0  0.47055456179E-02 -0.23446149273E-01  0.85208367024E-03  0.23928855424E-01  0.00000000000E+00 0.  1.
     999901    1    3    3    0    0 -0.36506626690E-01 -0.86958236331E-01  0.62717421824E-01  0.88725866784E+00  0.88000000000E+00 0. -1.
        -11    1    4    4    0    0  0.21118464770E-01  0.63446322468E-01 -0.26345820059E-01  0.71873421684E-01  0.51100000000E-03 0. -1.
         11    1    4    4    0    0  0.10682616302E-01  0.46958063136E-01 -0.37223685435E-01  0.60869055052E-01  0.51100000000E-03 0.  1.
</event>
<event>
 8    1  0.1163913E+005  0.1043930E+01  0.7957747E-01            NaN
         13   -1    0    0    0    0  0.00000000000E+00  0.00000000000E+00  0.74505805969E-08  0.10566000000E+00  0.10566000000E+00 0.  1.
     999900   -1    0    0    0    0 -0.00000000000E+00 -0.00000000000E+00 -0.74505805969E-08  0.93827000000E+00  0.93827000000E+00 0. -1.
     999902    2    1    2    0    0 -0.10649592724E-01  0.11232328468E-01  0.17381007455E-01  0.10206560135E+01  0.10203906210E+01 0.  0.
     999903    2    3    3    0    0  0.95881958120E-01 -0.44543404054E-01 -0.69691132747E-01  0.12822032322E+00  0.20152730973E-01 0.  0.
         14    1    1    2    0    0  0.10649592724E-01 -0.11232328468E-01 -0.17381007455E-01  0.23273986512E-01  0.00000000000E+00 0. -1.
     999901    1    3    3    0    0 -0.10653155084E+00  0.55775732521E-01  0.87072140202E-01  0.89243569027E+00  0.88000000000E+00 0.  1.
        -11    1    4    4    0    0  0.30010417316E-01 -0.18411339262E-01 -0.33689703928E-01  0.48732533616E-01  0.51100000000E-03 0.  1.
         11    1    4    4    0    0  0.65871540805E-01 -0.26132064792E-01 -0.36001428818E-01  0.79487789605E-01  0.51100000000E-03 0. -1.
</event>
<event>
 8    1  0.1310455E+005  0.1043930E+01  0.7957747E-01            NaN
         13   -1    0    0    0    0  0.00000000000E+00  0.00000000000E+00  0.74505805969E-08  0.10566000000E+00  0.10566000000E+00 0.  1.
     999900   -1    0    0    0    0 -0.00000000000E+00 -0.00000000000E+00 -0.74505805969E-08  0.93827000000E+00  0.93827000000E+00 0. -1.
     999902    2    1    2    0    0 -0.10987753046E-01 -0.17351923451E-01 -0.11708137347E-01  0.10202889246E+01  0.10200149946E+01 0.  0.
     999903    2    3    3    0    0 -0.92530600962E-01 -0.92083606210E-01  0.13197261474E-01  0.13301538206E+00  0.21854553472E-01 0.  0.
         14    1    1    2    0    0  0.10987753046E-01  0.17351923451E-01  0.11708137347E-01  0.23641075369E-01  0.00000000000E+00 0.  1.
     999901    1    3    3    0    0  0.81542847916E-01  0.74731682758E-01 -0.24905398821E-01  0.88727354257E+00  0.88000000000E+00 0. -1.
        -11    1    4    4    0    0 -0.56237353498E-01 -0.53774742103E-01  0.18487299300E-01  0.79977522925E-01  0.51100000000E-03 0.  1.
         11    1    4    4    0    0 -0.36293247464E-01 -0.38308864106E-01 -0.52900378255E-02  0.53037859137E-01  0.51100000000E-03 0. -1.
</event>
<event>
 8    1  0.1163913E+005  0.1043930E+01  0.7957747E-01            NaN
         13   -1    0    0    0    0  0.00000000000E+00  0.00000000000E+00  0.74505805969E-08  0.10566000000E+00  0.10566000000E+00 0.  1.
     999900   -1    0    0    0    0 -0.00000000000E+00 -0.00000000000E+00 -0.74505805969E-08  0.93827000000E+00  0.93827000000E+00 0. -1.
     999902    2    1    2    0    0  0.87665896278E-02  0.15821560335E-01  0.15321485798E-01  0.10202250893E+01  0.10199496605E+01 0.  0.
     999903    2    3    3    0    0 -0.56733584549E-01  0.11122269882E+00  0.38806999027E-01  0.13233814863E+00  0.20450282700E-01 0.  0.
         14    1    1    2    0    0 -0.87665896278E-02 -0.15821560335E-01 -0.15321485798E-01  0.23704910719E-01  0.00000000000E+00 0. -1.
     999901    1    3    3    0    0  0.65500174177E-01 -0.95401138481E-01 -0.23485513229E-01  0.88788694065E+00  0.88000000000E+00 0.  1.
        -11    1    4    4    0    0 -0.13374769980E-01  0.46597680771E-01  0.18653908782E-01  0.51946681888E-01  0.51100000000E-03 0.  1.
         11    1    4    4    0    0 -0.43358814569E-01  0.64625018045E-01  0.20153090245E-01  0.80391466746E-01  0.51100000000E-03 0. -1.
</event>
<event>
 8    1  0.1163913E+005  0.1043930E+01  0.7957747E-01            NaN
         13   -1    0    0    0    0  0.00000000000E+00  0.00000000000E+00  0.74505805969E-08  0.10566000000E+00  0.10566000000E+00 0.  1.
     999900   -1    0    0    0    0 -0.00000000000E+00 -0.00000000000E+00 -0.74505805969E-08  0.93827000000E+00  0.93827000000E+00 0. -1.
     999902    2    1    2    0    0  0.13852981415E-01  0.15956123614E-01 -0.98803309835E-02  0.10206035362E+01  0.10203369317E+01 0.  0.
     999903    2    3    3    0    0  0.10367079564E+00 -0.76957361453E-01 -0.10885480396E-01  0.13116485599E+00  0.20387653460E-01 0.  0.
         14    1    1    2    0    0 -0.13852981415E-01 -0.15956123614E-01  0.98803309835E-02  0.23326463839E-01  0.00000000000E+00 0.  1.
     999901    1    3    3    0    0 -0.89817814223E-01  0.92913485067E-01  0.10051494122E-02  0.88943868017E+00  0.88000000000E+00 0. -1.
        -11    1    4    4    0    0  0.21353498541E-01 -0.15162696217E-01  0.59595971045E-02  0.26863677618E-01  0.51100000000E-03 0.  1.
         11    1    4    4    0    0  0.82317297096E-01 -0.61794665236E-01 -0.16845077500E-01  0.10430117837E+00  0.51100000000E-03 0. -1.
</event>
<event>
 8    1  0.1163913E+005  0.1043930E+01  0.7957747E-01            NaN
         13   -1    0    0    0    0  0.00000000000E+00  0.00000000000E+00  0.74505805969E-08  0.10566000000E+00  0.10566000000E+00 0. -1.
     999900   -1    0    0    0    0 -0.00000000000E+00 -0.00000000000E+00 -0.74505805969E-08  0.93827000000E+00  0.93827000000E+00 0.  1.
     999902    2    1    2    0    0 -0.20322827952E-01  0.10588282000E-01  0.11992475061E-01  0.10180659611E+01  0.10177373692E+01 0.  0.
     999903    2    3    3    0    0  0.78438568841E-01  0.66832715181E-02 -0.96134170382E-01  0.12595585909E+00  0.20635516070E-01 0.  0.
         14    1    1    2    0    0  0.20322827952E-01 -0.10588282000E-01 -0.11992475061E-01  0.25864038930E-01  0.00000000000E+00 0.  1.
     999901    1    3    3    0    0 -0.98761396793E-01  0.39050104824E-02  0.10812664544E+00  0.89211010198E+00  0.88000000000E+00 0.  1.
        -11    1    4    4    0    0  0.50822454742E-01  0.59628887168E-02 -0.46476945710E-01  0.69129194639E-01  0.51100000000E-03 0. -1.
         11    1    4    4    0    0  0.27616114099E-01  0.72038280126E-03 -0.49657224672E-01  0.56826664449E-01  0.51100000000E-03 0.  1.
</event>
<event>
 8    1  0.1163913E+005  0.1043930E+01  0.7957747E-01            NaN
         13   -1    0    0    0    0  0.00000000000E+00  0.00000000000E+00  0.74505805969E-08  0.10566000000E+00  0.10566000000E+00 0.  1.
     999900   -1    0    0    0    0 -0.00000000000E+00 -0.00000000000E+00 -0.74505805969E-08  0.93827000000E+00  0.93827000000E+00 0.  1.
     999902    2    1    2    0    0 -0.77356319447E-02 -0.38108737979E-02 -0.17071720448E-01  0.10248039340E+01  0.10246254422E+01 0.  0.
     999903    2    3    3    0    0 -0.72481860480E-01 -0.11298997026E+00  0.17303079106E-02  0.13549765074E+00  0.18337554689E-01 0.  0.
         14    1    1    2    0    0  0.77356319447E-02  0.38108737979E-02  0.17071720448E-01  0.19126065977E-01  0.00000000000E+00 0.  1.
     999901    1    3    3    0    0  0.64746228535E-01  0.10917909647E+00 -0.18802028359E-01  0.88930628328E+00  0.88000000000E+00 0. -1.
        -11    1    4    4    0    0 -0.36574105684E-01 -0.72982376212E-01 -0.13758039525E-02  0.81647084465E-01  0.51100000000E-03 0.  1.
         11    1    4    4    0    0 -0.35907754796E-01 -0.40007594052E-01  0.31061118631E-02  0.53850566276E-01  0.51100000000E-03 0. -1.
</event>
<event>
 8    1  0.1163913E+005  0.1043930E+01  0.7957747E-01            NaN
         13   -1    0    0    0    0  0.00000000000E+00  0.00000000000E+00  0.74505805969E-08  0.10566000000E+00  0.10566000000E+00 0. -1.
     999900   -1    0    0    0    0 -0.00000000000E+00 -0.00000000000E+00 -0.74505805969E-08  0.93827000000E+00  0.93827000000E+00 0. -1.
     999902    2    1    2    0    0 -0.21199605042E-01  0.30314377715E-02  0.10400565388E-01  0.10201227610E+01  0.10198449210E+01 0.  0.
     999903    2    3    3    0    0  0.64445395965E-01 -0.10668767931E+00  0.27100744585E-01  0.12902666806E+00  0.19441212295E-01 0.  0.
         14    1    1    2    0    0  0.21199605042E-01 -0.30314377715E-02 -0.10400565388E-01  0.23807239010E-01  0.00000000000E+00 0. -1.
     999901    1    3    3    0    0 -0.85645001006E-01  0.10971911708E+00 -0.16700179197E-01  0.89109609293E+00  0.88000000000E+00 0.  1.
        -11    1    4    4    0    0  0.29190738535E-01 -0.33755460821E-01  0.15213985150E-01  0.47151424333E-01  0.51100000000E-03 0.  1.
         11    1    4    4    0    0  0.35254657430E-01 -0.72932218490E-01  0.11886759435E-01  0.81875243727E-01  0.51100000000E-03 0. -1.
</event>
<event>
 8    1  0.1163913E+005  0.1043930E+01  0.7957747E-01            NaN
         13   -1    0    0    0    0  0.00000000000E+00  0.00000000000E+00  0.74505805969E-08  0.10566000000E+00  0.10566000000E+00 0. -1.
     999900   -1    0    0    0    0 -0.00000000000E+00 -0.00000000000E+00 -0.74505805969E-08  0.93827000000E+00  0.93827000000E+00 0.  1.
     999902    2    1    2    0    0 -0.50480309379E-02  0.18721075417E-01 -0.12618576139E-01  0.10207958317E+01  0.10205336546E+01 0.  0.
     999903    2    3    3    0    0 -0.41492894741E-01 -0.88024412144E-01  0.81691368638E-01  0.12859787554E+00  0.19848839680E-01 0.  0.
         14    1    1    2    0    0  0.50480309379E-02 -0.18721075417E-01  0.12618576139E-01  0.23134168343E-01  0.00000000000E+00 0.  1.
     999901    1    3    3    0    0  0.36444863803E-01  0.10674548756E+00 -0.94309944777E-01  0.89219795612E+00  0.88000000000E+00 0.  1.
        -11    1    4    4    0    0 -0.40287763207E-01 -0.70942835168E-01  0.61824946144E-01  0.10236491006E+00  0.51100000000E-03 0.  1.
         11    1    4    4    0    0 -0.12051315341E-02 -0.17081576976E-01  0.19866422495E-01  0.26232965477E-01  0.51100000000E-03 0. -1.
</event>
<event>
 8    1  0.1163913E+005  0.1043930E+01  0.7957747E-01            NaN
         13   -1    0    0    0    0  0.00000000000E+00  0.00000000000E+00  0.74505805969E-08  0.10566000000E+00  0.10566000000E+00 0. -1.
     999900   -1    0    0    0    0 -0.00000000000E+00 -0.00000000000E+00 -0.74505805969E-08  0.93827000000E+00  0.93827000000E+00 0.  1.
     999902    2    1    2    0    0 -0.80257711984E-02  0.21794353355E-01 -0.93575884762E-02  0.10188906050E+01  0.10185828850E+01 0.  0.
     999903    2    3    3    0    0  0.10160915563E+00 -0.71815738353E-01  0.15310060059E-01  0.12681933016E+00  0.19152644189E-01 0.  0.
         14    1    1    2    0    0  0.80257711984E-02 -0.21794353355E-01  0.93575884762E-02  0.25039395032E-01  0.00000000000E+00 0. -1.
     999901    1    3    3    0    0 -0.10963492683E+00  0.93610091709E-01 -0.24667648535E-01  0.89207127481E+00  0.88000000000E+00 0. -1.
        -11    1    4    4    0    0  0.52080109096E-01 -0.47057823414E-01  0.40363728413E-02  0.70308818328E-01  0.51100000000E-03 0.  1.
         11    1    4    4    0    0  0.49529046538E-01 -0.24757914939E-01  0.11273687218E-01  0.56510511833E-01  0.51100000000E-03 0. -1.
</event>
<event>
 8    1  0.1163913E+005  0.1043930E+01  0.7957747E-01            NaN
         13   -1    0    0    0    0  0.00000000000E+00  0.00000000000E+00  0.74505805969E-08  0.10566000000E+00  0.10566000000E+00 0. -1.
     999900   -1    0    0    0    0 -0.00000000000E+00 -0.00000000000E+00 -0.74505805969E-08  0.93827000000E+00  0.93827000000E+00 0.  1.
     999902    2    1    2    0    0 -0.57744766005E-02 -0.10360587143E-01 -0.20405211571E-01  0.10203279025E+01  0.10200548856E+01 0.  0.
     999903    2    3    3    0    0  0.55837966416E-01 -0.71871969013E-01 -0.94796326338E-01  0.13290817027E+00  0.19869066782E-01 0.  0.
         14    1    1    2    0    0  0.57744766005E-02  0.10360587143E-01  0.20405211571E-01  0.23602097475E-01  0.00000000000E+00 0.  1.
     999901    1    3    3    0    0 -0.61612443017E-01  0.61511381870E-01  0.74391114767E-01  0.88741973225E+00  0.88000000000E+00 0. -1.
        -11    1    4    4    0    0  0.20973741000E-01 -0.26276322087E-01 -0.21907973461E-01  0.40131824480E-01  0.51100000000E-03 0. -1.
         11    1    4    4    0    0  0.34864225416E-01 -0.45595646926E-01 -0.72888352877E-01  0.92776345793E-01  0.51100000000E-03 0.  1.
</event>
<event>
 8    1  0.1163913E+005  0.1043930E+01  0.7957747E-01            NaN
         13   -1    0    0    0    0  0.00000000000E+00  0.00000000000E+00  0.74505805969E-08  0.10566000000E+00  0.10566000000E+00 0. -1.
     999900   -1    0    0    0    0 -0.00000000000E+00 -0.00000000000E+00 -0.74505805969E-08  0.93827000000E+00  0.93827000000E+00 0. -1.
     999902    2    1    2    0    0  0.95085118707E-02 -0.20837602623E-01  0.86226774684E-02  0.10194561763E+01  0.10191623655E+01 0.  0.
     999903    2    3    3    0    0  0.48672382974E-01 -0.68961507461E-01  0.10007340117E+00  0.13254414350E+00  0.20702028336E-01 0.  0.
         14    1    1    2    0    0 -0.95085118707E-02  0.20837602623E-01 -0.86226774684E-02  0.24473823726E-01  0.00000000000E+00 0. -1.
     999901    1    3    3    0    0 -0.39163871103E-01  0.48123904838E-01 -0.91450723707E-01  0.88691203278E+00  0.88000000000E+00 0. -1.
        -11    1    4    4    0    0  0.33913534238E-01 -0.34111496350E-01  0.46142060650E-01  0.66656379063E-01  0.51100000000E-03 0. -1.
         11    1    4    4    0    0  0.14758848736E-01 -0.34850011111E-01  0.53931340525E-01  0.65887764435E-01  0.51100000000E-03 0.  1.
</event>
<event>
 8    1  0.1163913E+005  0.1043930E+01  0.7957747E-01            NaN
         13   -1    0    0    0    0  0.00000000000E+00  0.00000000000E+00  0.74505805969E-08  0.10566000000E+00  0.10566000000E+00 0. -1.
     999900   -1    0    0    0    0 -0.00000000000E+00 -0.00000000000E+00 -0.74505805969E-08  0.93827000000E+00  0.93827000000E+00 0. -1.
     999902    2    1    2    0    0 -0.32980292186E-02 -0.19555178696E-01 -0.11330212781E-01  0.10210902160E+01  0.10208347435E+01 0.  0.
     999903    2    3    3    0    0 -0.37248427418E-01  0.67890791183E-01  0.10122992516E+00  0.12897519438E+00  0.19761025918E-01 0.  0.
         14    1    1    2    0    0  0.32980292186E-02  0.19555178696E-01  0.11330212781E-01  0.22839783979E-01  0.00000000000E+00 0. -1.
     999901    1    3    3    0    0  0.33950398200E-01 -0.87445969879E-01 -0.11256013794E+00  0.89211502164E+00  0.88000000000E+00 0. -1.
        -11    1    4    4    0    0 -0.34008981978E-01  0.67613259043E-01  0.91743120455E-01  0.11893369970E+00  0.51100000000E-03 0.  1.
         11    1    4    4    0    0 -0.32394454409E-02  0.27753213993E-03  0.94868047021E-02  0.10041494675E-01  0.51100000000E-03 0. -1.
</event>
<event>
 8    1  0.1163913E+005  0.1043930E+01  0.7957747E-01            NaN
         13   -1    0    0    0    0  0.00000000000E+00  0.00000000000E+00  0.74505805969E-08  0.10566000000E+00  0.10566000000E+00 0. -1.
     999900   -1    0    0    0    0 -0.00000000000E+00 -0.00000000000E+00 -0.74505805969E-08  0.93827000000E+00  0.93827000000E+00 0.  1.
     999902    2    1    2    0    0 -0.45178054452E-02 -0.14796941954E-01 -0.18911716185E-01  0.10194961492E+01  0.10192033090E+01 0.  0.
     999903    2    3    3    0    0  0.60000606808E-01 -0.21492464444E-01  0.10901759851E+00  0.12788336040E+00  0.20182126680E-01 0.  0.
         14    1    1    2    0    0  0.45178054452E-02  0.14796941954E-01  0.18911716185E-01  0.24433850828E-01  0.00000000000E+00 0. -1.
     999901    1    3    3    0    0 -0.64518412254E-01  0.66955224900E-02 -0.12792931470E+00  0.89161278877E+00  0.88000000000E+00 0.  1.
        -11    1    4    4    0    0  0.25397264396E-01  0.38014325249E-03  0.49590817192E-01  0.55719617896E-01  0.51100000000E-03 0. -1.
         11    1    4    4    0    0  0.34603342413E-01 -0.21872607696E-01  0.59426781318E-01  0.72163742506E-01  0.51100000000E-03 0.  1.
</event>
<event>
 8    1  0.1163913E+005  0.1043930E+01  0.7957747E-01            NaN
         13   -1    0    0    0    0  0.00000000000E+00  0.00000000000E+00  0.74505805969E-08  0.10566000000E+00  0.10566000000E+00 0.  1.
     999900   -1    0    0    0    0 -0.00000000000E+00 -0.00000000000E+00 -0.74505805969E-08  0.93827000000E+00  0.93827000000E+00 0.  1.
     999902    2    1    2    0    0  0.82783796930E-02  0.15321927857E-01 -0.16293284001E-01  0.10200812234E+01  0.10198024015E+01 0.  0.
     999903    2    3    3    0    0  0.89851222107E-02  0.33135279847E-01  0.12290080670E+00  0.12896237053E+00  0.18654906410E-01 0.  0.
         14    1    1    2    0    0 -0.82783796930E-02 -0.15321927857E-01  0.16293284001E-01  0.23848776638E-01  0.00000000000E+00 0. -1.
     999901    1    3    3    0    0 -0.70674251775E-03 -0.17813351991E-01 -0.13919409070E+00  0.89111885284E+00  0.88000000000E+00 0.  1.
        -11    1    4    4    0    0  0.11640906383E-01  0.14266682991E-01  0.78693744588E-01  0.80820885316E-01  0.51100000000E-03 0.  1.
         11    1    4    4    0    0 -0.26557841723E-02  0.18868596857E-01  0.44207062110E-01  0.48141485210E-01  0.51100000000E-03 0. -1.
</event>
<event>
 7    1  0.1163913E+005  0.1043930E+01  0.7957747E-01            NaN
         13   -1    0    0    0    0  0.00000000000E+00  0.00000000000E+00  0.74505805969E-08  0.10566000000E+00  0.10566000000E+00 0. -1.
     999900   -1    0    0    0    0 -0.00000000000E+00 -0.00000000000E+00 -0.74505805969E-08  0.93827000000E+00  0.93827000000E+00 0. -1.
     999903    2    1    2    0    0 -0.92862640995E-01 -0.41910002867E-01 -0.46979954120E-01  0.11386681265E+00  0.19458070329E-01 0.  0.
         14    1    1    2    0    0 -0.23823963687E-01 -0.89913245699E-02  0.31844457250E-01  0.40773700113E-01  0.00000000000E+00 0. -1.
     999901    1    1    2    0    0  0.11668660468E+00  0.50901327437E-01  0.15135496870E-01  0.88928948724E+00  0.88000000000E+00 0. -1.
        -11    1    3    3    0    0 -0.87112437917E-01 -0.42906097972E-01 -0.40736775010E-01  0.10530553662E+00  0.51100000000E-03 0.  1.
         11    1    3    3    0    0 -0.57502030775E-02  0.99609510489E-03 -0.62431791105E-02  0.85612760320E-02  0.51100000000E-03 0. -1.
</event>
<event>
 8    1  0.1163913E+005  0.1043930E+01  0.7957747E-01            NaN
         13   -1    0    0    0    0  0.00000000000E+00  0.00000000000E+00  0.74505805969E-08  0.10566000000E+00  0.10566000000E+00 0. -1.
     999900   -1    0    0    0    0 -0.00000000000E+00 -0.00000000000E+00 -0.74505805969E-08  0.93827000000E+00  0.93827000000E+00 0.  1.
     999902    2    1    2    0    0 -0.11058424174E-01 -0.20814741203E-02  0.20777009195E-01  0.10203015131E+01  0.10200278782E+01 0.  0.
     999903    2    3    3    0    0 -0.59494796826E-01  0.83678927318E-02 -0.11224531850E+00  0.12892605290E+00  0.20328873876E-01 0.  0.
         14    1    1    2    0    0  0.11058424174E-01  0.20814741203E-02 -0.20777009195E-01  0.23628486850E-01  0.00000000000E+00 0.  1.
     999901    1    3    3    0    0  0.48436372652E-01 -0.10449366852E-01  0.13302232770E+00  0.89137546025E+00  0.88000000000E+00 0. -1.
        -11    1    4    4    0    0 -0.52315082154E-01  0.30971444197E-02 -0.10529461861E+00  0.11761665678E+00  0.51100000000E-03 0.  1.
         11    1    4    4    0    0 -0.71797146720E-02  0.52707483121E-02 -0.69506998969E-02  0.11309396120E-01  0.51100000000E-03 0. -1.
</event>
<event>
 8    1  0.1163913E+005  0.1043930E+01  0.7957747E-01            NaN
         13   -1    0    0    0    0  0.00000000000E+00  0.00000000000E+00  0.74505805969E-08  0.10566000000E+00  0.10566000000E+00 0.  1.
     999900   -1    0    0    0    0 -0.00000000000E+00 -0.00000000000E+00 -0.74505805969E-08  0.93827000000E+00  0.93827000000E+00 0.  1.
     999902    2    1    2    0    0 -0.89489706025E-02  0.30771681822E-02  0.17373784374E-01  0.10241461323E+01  0.10239550277E+01 0.  0.
     999903    2    3    3    0    0 -0.11915968902E+00  0.12830716463E-01 -0.56873791940E-01  0.13411566271E+00  0.19716084826E-01 0.  0.
         14    1    1    2    0    0  0.89489706025E-02 -0.30771681822E-02 -0.17373784374E-01  0.19783867730E-01  0.00000000000E+00 0.  1.
     999901    1    3    3    0    0  0.11021071842E+00 -0.97535482812E-02  0.74247576314E-01  0.89003046956E+00  0.88000000000E+00 0. -1.
        -11    1    4    4    0    0 -0.51121368735E-01  0.10425569860E-01 -0.34073548115E-01  0.62316568025E-01  0.51100000000E-03 0.  1.
         11    1    4    4    0    0 -0.68038320289E-01  0.24051466037E-02 -0.22800243825E-01  0.71799094684E-01  0.51100000000E-03 0. -1.
</event>
<event>
 8    1  0.1163913E+005  0.1043930E+01  0.7957747E-01            NaN
         13   -1    0    0    0    0  0.00000000000E+00  0.00000000000E+00  0.74505805969E-08  0.10566000000E+00  0.10566000000E+00 0. -1.
     999900   -1    0    0    0    0 -0.00000000000E+00 -0.00000000000E+00 -0.74505805969E-08  0.93827000000E+00  0.93827000000E+00 0. -1.
     999902    2    1    2    0    0  0.59358867917E-02  0.11960106757E-01  0.19231147523E-01  0.10205181239E+01  0.10202495407E+01 0.  0.
     999903    2    3    3    0    0  0.81917793457E-01  0.18270918074E-01  0.10198892039E+00  0.13335301786E+00  0.18355820816E-01 0.  0.
         14    1    1    2    0    0 -0.59358867917E-02 -0.11960106757E-01 -0.19231147523E-01  0.23411876061E-01  0.00000000000E+00 0.  1.
     999901    1    3    3    0    0 -0.75981906666E-01 -0.63108113169E-02 -0.82757772863E-01  0.88716510608E+00  0.88000000000E+00 0. -1.
        -11    1    4    4    0    0  0.28366388267E-01  0.14860134225E-01  0.42852935140E-01  0.53498698522E-01  0.51100000000E-03 0. -1.
         11    1    4    4    0    0  0.53551405191E-01  0.34107838491E-02  0.59135985246E-01  0.79854319335E-01  0.51100000000E-03 0.  1.
</event>
<event>
 8    1  0.1163913E+005  0.1043930E+01  0.7957747E-01            NaN
         13   -1    0    0    0    0  0.00000000000E+00  0.00000000000E+00  0.74505805969E-08  0.10566000000E+00  0.10566000000E+00 0.  1.
     999900   -1    0    0    0    0 -0.00000000000E+00 -0.00000000000E+00 -0.74505805969E-08  0.93827000000E+00  0.93827000000E+00 0. -1.
     999902    2    1    2    0    0 -0.10788392787E-02 -0.23150128620E-01 -0.64859708306E-02  0.10198642532E+01  0.10195802739E+01 0.  0.
     999903    2    3    3    0    0  0.35854515183E-01 -0.21876595702E-01 -0.12355360229E+00  0.13134271445E+00  0.14875627799E-01 0.  0.
         14    1    1    2    0    0  0.10788392787E-02  0.23150128620E-01  0.64859708306E-02  0.24065746756E-01  0.00000000000E+00 0.  1.
     999901    1    3    3    0    0 -0.36933354461E-01 -0.12735329178E-02  0.11706763146E+00  0.88852153879E+00  0.88000000000E+00 0.  1.
        -11    1    4    4    0    0  0.25513805755E-01 -0.70724866008E-02 -0.71950277456E-01  0.76668623946E-01  0.51100000000E-03 0.  1.
         11    1    4    4    0    0  0.10340709428E-01 -0.14804109102E-01 -0.51603324836E-01  0.54674090508E-01  0.51100000000E-03 0. -1.
</event>
<event>
 8    1  0.1163913E+005  0.1043930E+01  0.7957747E-01            NaN
         13   -1    0    0    0    0  0.00000000000E+00  0.00000000000E+00  0.74505805969E-08  0.10566000000E+00  0.10566000000E+00 0. -1.
     999900   -1    0    0    0    0 -0.00000000000E+00 -0.00000000000E+00 -0.74505805969E-08  0.93827000000E+00  0.93827000000E+00 0. -1.
     999902    2    1    2    0    0  0.24885246801E-02  0.13806127062E-01 -0.19859434224E-01  0.10196154153E+01  0.10193254614E+01 0.  0.
     999903    2    3    3    0    0 -0.10802260139E+00  0.46313423431E-01 -0.55479916505E-01  0.13139345431E+00  0.19297748524E-01 0.  0.
         14    1    1    2    0    0 -0.24885246801E-02 -0.13806127062E-01  0.19859434224E-01  0.24314584661E-01  0.00000000000E+00 0. -1.
     999901    1    3    3    0    0  0.11051112607E+00 -0.32507296369E-01  0.35620482281E-01  0.88822196103E+00  0.88000000000E+00 0.  1.
        -11    1    4    4    0    0 -0.75134446474E-01  0.41247200044E-01 -0.37376236452E-01  0.93508078425E-01  0.51100000000E-03 0. -1.
         11    1    4    4    0    0 -0.32888154917E-01  0.50662233874E-02 -0.18103680053E-01  0.37885375882E-01  0.51100000000E-03 0.  1.
</event>
<event>
 8    1  0.1163913E+005  0.1043930E+01  0.7957747E-01            NaN
         13   -1    0    0    0    0  0.00000000000E+00  0.00000000000E+00  0.74505805969E-08  0.10566000000E+00  0.10566000000E+00 0.  1.
     999900   -1    0    0    0    0 -0.00000000000E+00 -0.00000000000E+00 -0.74505805969E-08  0.93827000000E+00  0.93827000000E+00 0.  1.
     999902    2    1    2    0    0  0.16536569729E-01  0.24394926259E-01  0.40757132635E-02  0.10141779916E+01  0.10137414940E+01 0.  0.
     999903    2    3    3    0    0  0.68708039347E-01  0.10521076247E+00 -0.17313444959E-01  0.12867781784E+00  0.21636224677E-01 0.  0.
         14    1    1    2    0    0 -0.16536569729E-01 -0.24394926259E-01 -0.40757132635E-02  0.29752008406E-01  0.00000000000E+00 0.  1.
     999901    1    3    3    0    0 -0.52171469618E-01 -0.80815836210E-01  0.21389158222E-01  0.88550017375E+00  0.88000000000E+00 0. -1.
        -11    1    4    4    0    0  0.18381683466E-01  0.34836821336E-01 -0.14928680810E-01  0.42126203716E-01  0.51100000000E-03 0. -1.
         11    1    4    4    0    0  0.50326355881E-01  0.70373941133E-01 -0.23847641489E-02  0.86551614126E-01  0.51100000000E-03 0.  1.
</event>
<event>
 8    1  0.1163913E+005  0.1043930E+01  0.7957747E-01            NaN
         13   -1    0    0    0    0  0.00000000000E+00  0.00000000000E+00  0.74505805969E-08  0.10566000000E+00  0.10566000000E+00 0. -1.
     999900   -1    0    0    0    0 -0.00000000000E+00 -0.00000000000E+00 -0.74505805969E-08  0.93827000000E+00  0.93827000000E+00 0.  1.
     999902    2    1    2    0    0 -0.37107560457E-02  0.96225764425E-02  0.23941238296E-01  0.10178618858E+01  0.10175280202E+01 0.  0.
     999903    2    3    3    0    0  0.84109292668E-01 -0.33436513859E-01  0.90989355034E-01  0.12990811662E+00  0.20116720938E-01 0.  0.
         14    1    1    2    0    0  0.37107560457E-02 -0.96225764425E-02 -0.23941238296E-01  0.26068114220E-01  0.00000000000E+00 0.  1.
     999901    1    3    3    0    0 -0.87820048714E-01  0.43059090301E-01 -0.67048116738E-01  0.88795376916E+00  0.88000000000E+00 0. -1.
        -11    1    4    4    0    0  0.48002661648E-01 -0.22017478080E-01  0.39311571575E-01  0.65838329619E-01  0.51100000000E-03 0. -1.
         11    1    4    4    0    0  0.36106631020E-01 -0.11419035778E-01  0.51677783459E-01  0.64069786998E-01  0.51100000000E-03 0.  1.
</event>
<event>
 8    1  0.1163913E+005  0.1043930E+01  0.7957747E-01            NaN
         13   -1    0    0    0    0  0.00000000000E+00  0.00000000000E+00  0.74505805969E-08  0.10566000000E+00  0.10566000000E+00 0.  1.
     999900   -1    0    0    0    0 -0.00000000000E+00 -0.00000000000E+00 -0.74505805969E-08  0.93827000000E+00  0.93827000000E+00 0. -1.
     999902    2    1    2    0    0 -0.90179587886E-02  0.19161328434E-01  0.64040305283E-02  0.10218055408E+01  0.10215659898E+01 0.  0.
     999903    2    3    3    0    0 -0.12782060330E+00  0.19735355690E-01  0.27453085175E-01  0.13357276694E+00  0.18984764675E-01 0.  0.
         14    1    1    2    0    0  0.90179587886E-02 -0.19161328434E-01 -0.64040305283E-02  0.22124459204E-01  0.00000000000E+00 0.  1.
     999901    1    3    3    0    0  0.11880264451E+00 -0.57402725682E-03 -0.21049054646E-01  0.88823277386E+00  0.88000000000E+00 0. -1.
        -11    1    4    4    0    0 -0.35218438920E-01  0.32628281971E-02 -0.74112128848E-03  0.35380713243E-01  0.51100000000E-03 0.  1.
         11    1    4    4    0    0 -0.92602164382E-01  0.16472527493E-01  0.28194206463E-01  0.98192053697E-01  0.51100000000E-03 0. -1.
</event>
<event>
 8    1  0.1163913E+005  0.1043930E+01  0.7957747E-01            NaN
         13   -1    0    0    0    0  0.00000000000E+00  0.00000000000E+00  0.74505805969E-08  0.10566000000E+00  0.10566000000E+00 0.  1.
     999900   -1    0    0    0    0 -0.00000000000E+00 -0.00000000000E+00 -0.74505805969E-08  0.93827000000E+00  0.93827000000E+00 0. -1.
     999902    2    1    2    0    0  0.97659226738E-02 -0.21573528883E-01  0.11419825179E-02  0.10202214674E+01  0.10199459535E+01 0.  0.
     999903    2    3    3    0    0 -0.91620077230E-01 -0.53099052002E-01  0.74045336866E-01  0.13084647412E+00  0.20599514646E-01 0.  0.
         14    1    1    2    0    0 -0.97659226738E-02  0.21573528883E-01 -0.11419825179E-02  0.23708532604E-01  0.00000000000E+00 0. -1.
     999901    1    3    3    0    0  0.10138599990E+00  0.31525523119E-01 -0.72903354348E-01  0.88937499327E+00  0.88000000000E+00 0. -1.
        -11    1    4    4    0    0 -0.18736405382E-01 -0.58619809098E-02  0.22432067846E-01  0.29813998317E-01  0.51100000000E-03 0.  1.
         11    1    4    4    0    0 -0.72883671849E-01 -0.47237071093E-01  0.51613269019E-01  0.10103247581E+00  0.51100000000E-03 0. -1.
</event>
<event>
 7    1  0.1163913E+005  0.1043930E+01  0.7957747E-01            NaN
         13   -1    0    0    0    0  0.00000000000E+00  0.00000000000E+00  0.74505805969E-08  0.10566000000E+00  0.10566000000E+00 0.  1.
     999900   -1    0    0    0    0 -0.00000000000E+00 -0.00000000000E+00 -0.74505805969E-08  0.93827000000E+00  0.93827000000E+00 0.  1.
     999903    2    1    2    0    0  0.11190888924E+00 -0.27984491938E-01  0.19422154796E-01  0.11868387395E+00  0.20047707062E-01 0.  0.
         14    1    1    2    0    0 -0.36722184612E-01 -0.14880006177E-02  0.17650769950E-01  0.40771100897E-01  0.00000000000E+00 0.  1.
     999901    1    1    2    0    0 -0.75186704629E-01  0.29472492556E-01 -0.37072924746E-01  0.88447502515E+00  0.88000000000E+00 0. -1.
        -11    1    3    3    0    0  0.10041960082E+00 -0.28834674936E-01  0.12474708626E-01  0.10522078779E+00  0.51100000000E-03 0.  1.
         11    1    3    3    0    0  0.11489288420E-01  0.85018299737E-03  0.69474461708E-02  0.13463086156E-01  0.51100000000E-03 0. -1.
</event>
<event>
 8    1  0.1163913E+005  0.1043930E+01  0.7957747E-01            NaN
         13   -1    0    0    0    0  0.00000000000E+00  0.00000000000E+00  0.74505805969E-08  0.10566000000E+00  0.10566000000E+00 0.  1.
     999900   -1    0    0    0    0 -0.00000000000E+00 -0.00000000000E+00 -0.74505805969E-08  0.93827000000E+00  0.93827000000E+00 0. -1.
     999902    2    1    2    0    0  0.18602200615E-01 -0.34670217410E-02 -0.12133237917E-01  0.10214516199E+01  0.10212042569E+01 0.  0.
     999903    2    3    3    0    0 -0.42210203771E-01 -0.11086945993E+00 -0.55670794898E-01  0.13177249176E+00  0.13820771830E-01 0.  0.
         14    1    1    2    0    0 -0.18602200615E-01  0.34670217410E-02  0.12133237917E-01  0.22478380053E-01  0.00000000000E+00 0.  1.
     999901    1    3    3    0    0  0.60812404386E-01  0.10740243819E+00  0.43537556981E-01  0.88967912818E+00  0.88000000000E+00 0. -1.
        -11    1    4    4    0    0 -0.28515897167E-01 -0.72980582642E-01 -0.29483072113E-01  0.83718782219E-01  0.51100000000E-03 0. -1.
         11    1    4    4    0    0 -0.13694306603E-01 -0.37888877286E-01 -0.26187722785E-01  0.48053709545E-01  0.51100000000E-03 0.  1.
</event>
<event>
 8    1  0.1163913E+005  0.1043930E+01  0.7957747E-01            NaN
         13   -1    0    0    0    0  0.00000000000E+00  0.00000000000E+00  0.74505805969E-08  0.10566000000E+00  0.10566000000E+00 0. -1.
     999900   -1    0    0    0    0 -0.00000000000E+00 -0.00000000000E+00 -0.74505805969E-08  0.93827000000E+00  0.93827000000E+00 0.  1.
     999902    2    1    2    0    0 -0.24639475979E-01 -0.41483174255E-03 -0.36919183252E-02  0.10190120121E+01  0.10187073057E+01 0.  0.
     999903    2    3    3    0    0 -0.64430730576E-01  0.11005807529E+00 -0.21751057945E-01  0.13102905071E+00  0.20770282340E-01 0.  0.
         14    1    1    2    0    0  0.24639475979E-01  0.41483174255E-03  0.36919183252E-02  0.24917987936E-01  0.00000000000E+00 0.  1.
     999901    1    3    3    0    0  0.39791254597E-01 -0.11047290704E+00  0.18059139620E-01  0.88798296135E+00  0.88000000000E+00 0.  1.
        -11    1    4    4    0    0 -0.44091519015E-01  0.63713441028E-01 -0.21512217155E-01  0.80414558536E-01  0.51100000000E-03 0.  1.
         11    1    4    4    0    0 -0.20339211561E-01  0.46344634265E-01 -0.23884079013E-03  0.50614492173E-01  0.51100000000E-03 0. -1.
</event>
<event>
 8    1  0.1163913E+005  0.1043930E+01  0.7957747E-01            NaN
         13   -1    0    0    0    0  0.00000000000E+00  0.00000000000E+00  0.74505805969E-08  0.10566000000E+00  0.10566000000E+00 0.  1.
     999900   -1    0    0    0    0 -0.00000000000E+00 -0.00000000000E+00 -0.74505805969E-08  0.93827000000E+00  0.93827000000E+00 0.  1.
     999902    2    1    2    0    0  0.19914219123E-01  0.11884907719E-02  0.12540094043E-01  0.10203664139E+01  0.10200942976E+01 0.  0.
     999903    2    3    3    0    0  0.10299323021E+00  0.77617996413E-01  0.24872379760E-01  0.13306957700E+00  0.21370966556E-01 0.  0.
         14    1    1    2    0    0 -0.19914219123E-01 -0.11884907719E-02 -0.12540094043E-01  0.23563586149E-01  0.00000000000E+00 0. -1.
     999901    1    3    3    0    0 -0.83079011088E-01 -0.76429505641E-01 -0.12332285717E-01  0.88729683685E+00  0.88000000000E+00 0.  1.
        -11    1    4    4    0    0  0.10117645502E+00  0.73559356564E-01  0.27214658951E-01  0.12801778303E+00  0.51100000000E-03 0. -1.
         11    1    4    4    0    0  0.18167751874E-02  0.40586398487E-02 -0.23422791903E-02  0.50517939693E-02  0.51100000000E-03 0.  1.
</event>
<event>
 8    1  0.1163913E+005  0.1043930E+01  0.7957747E-01            NaN
         13   -1    0    0    0    0  0.00000000000E+00  0.00000000000E+00  0.74505805969E-08  0.10566000000E+00  0.10566000000E+00 0. -1.
     999900   -1    0    0    0    0 -0.00000000000E+00 -0.00000000000E+00 -0.74505805969E-08  0.93827000000E+00  0.93827000000E+00 0.  1.
     999902    2    1    2    0    0 -0.13870453882E-01  0.19928779330E-01  0.20666609804E-02  0.10195616430E+01  0.10192703895E+01 0.  0.
     999903    2    3    3    0    0 -0.88417853273E-01 -0.60475038056E-01  0.71634944393E-01  0.13003264701E+00  0.17377486149E-01 0.  0.
         14    1    1    2    0    0  0.13870453882E-01 -0.19928779330E-01 -0.20666609804E-02  0.24368357025E-01  0.00000000000E+00 0.  1.
     999901    1    3    3    0    0  0.74547399391E-01  0.80403817386E-01 -0.69568283412E-01  0.88952899597E+00  0.88000000000E+00 0.  1.
        -11    1    4    4    0    0 -0.38061818376E-01 -0.15880191265E-01  0.26340238708E-01  0.48938244644E-01  0.51100000000E-03 0.  1.
         11    1    4    4    0    0 -0.50356034898E-01 -0.44594846791E-01  0.45294705685E-01  0.81094402365E-01  0.51100000000E-03 0. -1.
</event>
<event>
 8    1  0.1163913E+005  0.1043930E+01  0.7957747E-01            NaN
         13   -1    0    0    0    0  0.00000000000E+00  0.00000000000E+00  0.74505805969E-08  0.10566000000E+00  0.10566000000E+00 0.  1.
     999900   -1    0    0    0    0 -0.00000000000E+00 -0.00000000000E+00 -0.74505805969E-08  0.93827000000E+00  0.93827000000E+00 0.  1.
     999902    2    1    2    0    0  0.29820207305E-02 -0.22393126465E-01  0.75965835888E-02  0.10200961450E+01  0.10198176761E+01 0.  0.
     999903    2    3    3    0    0 -0.67202782779E-01  0.10587033999E+00  0.15724311129E-01  0.12799554340E+00  0.20269737745E-01 0.  0.
         14    1    1    2    0    0 -0.29820207305E-02  0.22393126465E-01 -0.75965835888E-02  0.23833854971E-01  0.00000000000E+00 0. -1.
     999901    1    3    3    0    0  0.70184803510E-01 -0.12826346645E+00 -0.81277275398E-02  0.89210060163E+00  0.88000000000E+00 0.  1.
        -11    1    4    4    0    0 -0.88381983312E-02  0.22016145136E-01 -0.36461571619E-02  0.24007914933E-01  0.51100000000E-03 0. -1.
         11    1    4    4    0    0 -0.58364584448E-01  0.83854194849E-01  0.19370468291E-01  0.10398762847E+00  0.51100000000E-03 0.  1.
</event>
<event>
 8    1  0.1163913E+005  0.1043930E+01  0.7957747E-01            NaN
         13   -1    0    0    0    0  0.00000000000E+00  0.00000000000E+00  0.74505805969E-08  0.10566000000E+00  0.10566000000E+00 0.  1.
     999900   -1    0    0    0    0 -0.00000000000E+00 -0.00000000000E+00 -0.74505805969E-08  0.93827000000E+00  0.93827000000E+00 0. -1.
     999902    2    1    2    0    0 -0.13557833103E-01 -0.57829664090E-02 -0.16977732399E-01  0.10214466520E+01  0.10211991784E+01 0.  0.
     999903    2    3    3    0    0 -0.10822029748E+00 -0.61668044667E-01 -0.45479208707E-01  0.13414937473E+00  0.20325250203E-01 0.  0.
         14    1    1    2    0    0  0.13557833103E-01  0.57829664090E-02  0.16977732399E-01  0.22483347979E-01  0.00000000000E+00 0.  1.
     999901    1    3    3    0    0  0.94662464379E-01  0.55885078258E-01  0.28501476308E-01  0.88729727729E+00  0.88000000000E+00 0. -1.
        -11    1    4    4    0    0 -0.64481505838E-01 -0.47944089035E-01 -0.28287030355E-01  0.85187542961E-01  0.51100000000E-03 0. -1.
         11    1    4    4    0    0 -0.43738791645E-01 -0.13723955632E-01 -0.17192178352E-01  0.48961831769E-01  0.51100000000E-03 0.  1.
</event>
<event>
 8    1  0.1163913E+005  0.1043930E+01  0.7957747E-01            NaN
         13   -1    0    0    0    0  0.00000000000E+00  0.00000000000E+00  0.74505805969E-08  0.10566000000E+00  0.10566000000E+00 0.  1.
     999900   -1    0    0    0    0 -0.00000000000E+00 -0.00000000000E+00 -0.74505805969E-08  0.93827000000E+00  0.93827000000E+00 0.  1.
     999902    2    1    2    0    0  0.17656456102E-01 -0.30593650646E-02  0.15344471186E-01  0.10203384135E+01  0.10200656426E+01 0.  0.
     999903    2    3    3    0    0  0.45704786956E-01  0.11693551197E+00 -0.30185434169E-01  0.13058650896E+00  0.19463668119E-01 0.  0.
         14    1    1    2    0    0 -0.17656456102E-01  0.30593650646E-02 -0.15344471186E-01  0.23591586480E-01  0.00000000000E+00 0. -1.
     999901    1    3    3    0    0 -0.28048330854E-01 -0.11999487704E+00  0.45529905355E-01  0.88975190456E+00  0.88000000000E+00 0.  1.
        -11    1    4    4    0    0  0.40686558007E-01  0.87625492522E-01 -0.17185808961E-01  0.98128671105E-01  0.51100000000E-03 0.  1.
         11    1    4    4    0    0  0.50182289488E-02  0.29310019450E-01 -0.12999625208E-01  0.32457837860E-01  0.51100000000E-03 0. -1.
</event>
<event>
 8    1  0.1163913E+005  0.1043930E+01  0.7957747E-01            NaN
         13   -1    0    0    0    0  0.00000000000E+00  0.00000000000E+00  0.74505805969E-08  0.10566000000E+00  0.10566000000E+00 0.  1.
     999900   -1    0    0    0    0 -0.00000000000E+00 -0.00000000000E+00 -0.74505805969E-08  0.93827000000E+00  0.93827000000E+00 0. -1.
     999902    2    1    2    0    0 -0.18684642862E-01 -0.14423591692E-01 -0.79129791218E-02  0.10190347974E+01  0.10187306548E+01 0.  0.
     999903    2    3    3    0    0  0.62408020247E-01 -0.77350599904E-01  0.79430003148E-01  0.12877381038E+00  0.19892022111E-01 0.  0.
         14    1    1    2    0    0  0.18684642862E-01  0.14423591692E-01  0.79129791218E-02  0.24895202645E-01  0.00000000000E+00 0. -1.
     999901    1    3    3    0    0 -0.81092663109E-01  0.62927008213E-01 -0.87342982270E-01  0.89026098697E+00  0.88000000000E+00 0. -1.
        -11    1    4    4    0    0  0.15527941919E-01 -0.29752436032E-01  0.18360646978E-01  0.38258318161E-01  0.51100000000E-03 0.  1.
         11    1    4    4    0    0  0.46880078328E-01 -0.47598163872E-01  0.61069356171E-01  0.90515492222E-01  0.51100000000E-03 0. -1.
</event>
<event>
 8    1  0.1163913E+005  0.1043930E+01  0.7957747E-01            NaN
         13   -1    0    0    0    0  0.00000000000E+00  0.00000000000E+00  0.74505805969E-08  0.10566000000E+00  0.10566000000E+00 0.  1.
     999900   -1    0    0    0    0 -0.00000000000E+00 -0.00000000000E+00 -0.74505805969E-08  0.93827000000E+00  0.93827000000E+00 0.  1.
     999902    2    1    2    0    0  0.54697652436E-03  0.93682302233E-02  0.21467329158E-01  0.10205011899E+01  0.10202322135E+01 0.  0.
     999903    2    3    3    0    0 -0.12426856576E+00 -0.32074500745E-01 -0.97819004255E-02  0.13017937512E+00  0.19481634874E-01 0.  0.
         14    1    1    2    0    0 -0.54697652436E-03 -0.93682302233E-02 -0.21467329158E-01  0.23428810086E-01  0.00000000000E+00 0. -1.
     999901    1    3    3    0    0  0.12481554228E+00  0.41442730968E-01  0.31249229584E-01  0.89032181479E+00  0.88000000000E+00 0. -1.
        -11    1    4    4    0    0 -0.82124748924E-01 -0.12064726801E-01 -0.92405710160E-02  0.83520544134E-01  0.51100000000E-03 0.  1.
         11    1    4    4    0    0 -0.42143816835E-01 -0.20009773943E-01 -0.54132940947E-03  0.46658830988E-01  0.51100000000E-03 0. -1.
</event>
<event>
 8    1  0.1163913E+005  0.1043930E+01  0.7957747E-01            NaN
         13   -1    0    0    0    0  0.00000000000E+00  0.00000000000E+00  0.74505805969E-08  0.10566000000E+00  0.10566000000E+00 0. -1.
     999900   -1    0    0    0    0 -0.00000000000E+00 -0.00000000000E+00 -0.74505805969E-08  0.93827000000E+00  0.93827000000E+00 0.  1.
     999902    2    1    2    0    0  0.96703437251E-02  0.11173047528E-01 -0.78057440785E-02  0.10272182622E+01  0.10270823122E+01 0.  0.
     999903    2    3    3    0    0 -0.36535315846E-01  0.13059999896E+00 -0.15504214153E-01  0.13791683630E+00  0.19735350169E-01 0.  0.
         14    1    1    2    0    0 -0.96703437251E-02 -0.11173047528E-01  0.78057440785E-02  0.16711737775E-01  0.00000000000E+00 0. -1.
     999901    1    3    3    0    0  0.46205659572E-01 -0.11942695143E+00  0.76984700741E-02  0.88930142592E+00  0.88000000000E+00 0. -1.
        -11    1    4    4    0    0 -0.15519307559E-01  0.81149445558E-01 -0.16121173331E-01  0.84179776503E-01  0.51100000000E-03 0. -1.
         11    1    4    4    0    0 -0.21016008287E-01  0.49450553404E-01  0.61695917821E-03  0.53737059800E-01  0.51100000000E-03 0.  1.
</event>
<event>
 8    1  0.1163913E+005  0.1043930E+01  0.7957747E-01            NaN
         13   -1    0    0    0    0  0.00000000000E+00  0.00000000000E+00  0.74505805969E-08  0.10566000000E+00  0.10566000000E+00 0.  1.
     999900   -1    0    0    0    0 -0.00000000000E+00 -0.00000000000E+00 -0.74505805969E-08  0.93827000000E+00  0.93827000000E+00 0. -1.
     999902    2    1    2    0    0 -0.10901260092E-01 -0.20971998625E-01 -0.43740712132E-02  0.10198926396E+01  0.10196093377E+01 0.  0.
     999903    2    3    3    0    0 -0.11385039658E-01  0.10677887450E+00  0.66668717954E-01  0.12783457109E+00  0.19120994899E-01 0.  0.
         14    1    1    2    0    0  0.10901260092E-01  0.20971998625E-01  0.43740712132E-02  0.24037360440E-01  0.00000000000E+00 0.  1.
     999901    1    3    3    0    0  0.48377956535E-03 -0.12775087312E+00 -0.71042789168E-01  0.89205806847E+00  0.88000000000E+00 0. -1.
        -11    1    4    4    0    0 -0.12587922843E-01  0.75235914798E-01  0.55541012474E-01  0.94360817422E-01  0.51100000000E-03 0.  1.
         11    1    4    4    0    0  0.12028831850E-02  0.31542959699E-01  0.11127705481E-01  0.33473753670E-01  0.51100000000E-03 0. -1.
</event>
<event>
 8    1  0.1163913E+005  0.1043930E+01  0.7957747E-01            NaN
         13   -1    0    0    0    0  0.00000000000E+00  0.00000000000E+00  0.74505805969E-08  0.10566000000E+00  0.10566000000E+00 0.  1.
     999900   -1    0    0    0    0 -0.00000000000E+00 -0.00000000000E+00 -0.74505805969E-08  0.93827000000E+00  0.93827000000E+00 0. -1.
     999902    2    1    2    0    0 -0.81126649386E-02 -0.14376563769E-01  0.23833676475E-01  0.10149378450E+01  0.10145236735E+01 0.  0.
     999903    2    3    3    0    0 -0.76173934754E-01  0.60594188153E-01  0.79693863432E-01  0.12737189781E+00  0.19959070857E-01 0.  0.
         14    1    1    2    0    0  0.81126649386E-02  0.14376563769E-01 -0.23833676475E-01  0.28992155017E-01  0.00000000000E+00 0. -1.
     999901    1    3    3    0    0  0.68061269815E-01 -0.74970751922E-01 -0.55860186956E-01  0.88756594717E+00  0.88000000000E+00 0. -1.
        -11    1    4    4    0    0 -0.23103684195E-01  0.30597456734E-01  0.32813011926E-01  0.50467211679E-01  0.51100000000E-03 0.  1.
         11    1    4    4    0    0 -0.53070250558E-01  0.29996731419E-01  0.46880851506E-01  0.76904686132E-01  0.51100000000E-03 0. -1.
</event>
<event>
 8    1  0.1163913E+005  0.1043930E+01  0.7957747E-01            NaN
         13   -1    0    0    0    0  0.00000000000E+00  0.00000000000E+00  0.74505805969E-08  0.10566000000E+00  0.10566000000E+00 0. -1.
     999900   -1    0    0    0    0 -0.00000000000E+00 -0.00000000000E+00 -0.74505805969E-08  0.93827000000E+00  0.93827000000E+00 0.  1.
     999902    2    1    2    0    0  0.16057050730E-01 -0.12891306168E-02  0.17281384984E-01  0.10203050767E+01  0.10200315252E+01 0.  0.
     999903    2    3    3    0    0 -0.15005627406E-03  0.12437705186E+00 -0.32186230287E-01  0.12985479467E+00  0.18884934022E-01 0.  0.
         14    1    1    2    0    0 -0.16057050730E-01  0.12891306168E-02 -0.17281384984E-01  0.23624923341E-01  0.00000000000E+00 0.  1.
     999901    1    3    3    0    0  0.16207107004E-01 -0.12566618247E+00  0.49467615271E-01  0.89045028199E+00  0.88000000000E+00 0.  1.
        -11    1    4    4    0    0 -0.34459069701E-02  0.11071208968E+00 -0.23221485010E-01  0.11317481859E+00  0.51100000000E-03 0. -1.
         11    1    4    4    0    0  0.32958506960E-02  0.13664962182E-01 -0.89647452766E-02  0.16679976083E-01  0.51100000000E-03 0.  1.
</event>
<event>
 8    1  0.1163913E+005  0.1043930E+01  0.7957747E-01            NaN
         13   -1    0    0    0    0  0.00000000000E+00  0.00000000000E+00  0.74505805969E-08  0.10566000000E+00  0.10566000000E+00 0. -1.
     999900   -1    0    0    0    0 -0.00000000000E+00 -0.00000000000E+00 -0.74505805969E-08  0.93827000000E+00  0.93827000000E+00 0.  1.
     999902    2    1    2    0    0 -0.20056083258E-01  0.13991759990E-03  0.12637850337E-01  0.10202238549E+01  0.10199483972E+01 0.  0.
     999903    2    3    3    0    0 -0.98277714141E-01  0.61982612076E-01  0.62078098436E-01  0.13321343756E+00  0.19793340936E-01 0.  0.
         14    1    1    2    0    0  0.20056083258E-01 -0.13991759990E-03 -0.12637850337E-01  0.23706145063E-01  0.00000000000E+00 0. -1.
     999901    1    3    3    0    0  0.78221630882E-01 -0.61842694476E-01 -0.49440248099E-01  0.88701041737E+00  0.88000000000E+00 0.  1.
        -11    1    4    4    0    0 -0.70534485331E-01  0.49383687906E-01  0.54177719481E-01  0.10173174854E+00  0.51100000000E-03 0.  1.
         11    1    4    4    0    0 -0.27743228810E-01  0.12598924170E-01  0.79003789556E-02  0.31481689022E-01  0.51100000000E-03 0. -1.
</event>
<event>
 7    1  0.1163913E+005  0.1043930E+01  0.7957747E-01            NaN
         13   -1    0    0    0    0  0.00000000000E+00  0.00000000000E+00  0.74505805969E-08  0.10566000000E+00  0.10566000000E+00 0. -1.
     999900   -1    0    0    0    0 -0.00000000000E+00 -0.00000000000E+00 -0.74505805969E-08  0.93827000000E+00  0.93827000000E+00 0.  1.
     999903    2    1    2    0    0 -0.40341689941E-01 -0.94575453708E-01 -0.38528603069E-01  0.11157079352E+00  0.19789399182E-01 0.  0.
         14    1    1    2    0    0  0.11337842161E-01 -0.38035042814E-01 -0.89519130373E-02  0.40685966792E-01  0.00000000000E+00 0. -1.
     999901    1    1    2    0    0  0.29003847781E-01  0.13261049652E+00  0.47480516106E-01  0.89167323969E+00  0.88000000000E+00 0.  1.
        -11    1    3    3    0    0 -0.10914813510E-01 -0.49627888587E-01 -0.15604478253E-01  0.53158455038E-01  0.51100000000E-03 0.  1.
         11    1    3    3    0    0 -0.29426876432E-01 -0.44947565121E-01 -0.22924124816E-01  0.58412338478E-01  0.51100000000E-03 0. -1.
</event>
<event>
 8    1  0.1163913E+005  0.1043930E+01  0.7957747E-01            NaN
         13   -1    0    0    0    0  0.00000000000E+00  0.00000000000E+00  0.74505805969E-08  0.10566000000E+00  0.10566000000E+00 0. -1.
     999900   -1    0    0    0    0 -0.00000000000E+00 -0.00000000000E+00 -0.74505805969E-08  0.93827000000E+00  0.93827000000E+00 0.  1.
     999902    2    1    2    0    0 -0.20023073173E-01  0.10436615839E-01 -0.82211228348E-02  0.10199001588E+01  0.10196170362E+01 0.  0.
     999903    2    3    3    0    0 -0.64323056630E-01  0.98813288362E-01 -0.57957787708E-01  0.13296912389E+00  0.20497833560E-01 0.  0.
         14    1    1    2    0    0  0.20023073173E-01 -0.10436615839E-01  0.82211228348E-02  0.24029841242E-01  0.00000000000E+00 0. -1.
     999901    1    3    3    0    0  0.44299983457E-01 -0.88376672524E-01  0.49736664874E-01  0.88693103487E+00  0.88000000000E+00 0.  1.
        -11    1    4    4    0    0 -0.19114313020E-01  0.47734137821E-01 -0.26564266621E-01  0.57877683591E-01  0.51100000000E-03 0. -1.
         11    1    4    4    0    0 -0.45208743610E-01  0.51079150541E-01 -0.31393521087E-01  0.75091440298E-01  0.51100000000E-03 0.  1.
</event>
<event>
 8    1  0.1163913E+005  0.1043930E+01  0.7957747E-01            NaN
         13   -1    0    0    0    0  0.00000000000E+00  0.00000000000E+00  0.74505805969E-08  0.10566000000E+00  0.10566000000E+00 0. -1.
     999900   -1    0    0    0    0 -0.00000000000E+00 -0.00000000000E+00 -0.74505805969E-08  0.93827000000E+00  0.93827000000E+00 0. -1.
     999902    2    1    2    0    0  0.11466376602E-02  0.16965719965E-01  0.15966956422E-01  0.10206041746E+01  0.10203375849E+01 0.  0.
     999903    2    3    3    0    0  0.74108686190E-01  0.34590608019E-01  0.10324261401E+00  0.13310705485E+00  0.19231307098E-01 0.  0.
         14    1    1    2    0    0 -0.11466376602E-02 -0.16965719965E-01 -0.15966956422E-01  0.23325825370E-01  0.00000000000E+00 0.  1.
     999901    1    3    3    0    0 -0.72962048530E-01 -0.17624888055E-01 -0.87275657586E-01  0.88749711978E+00  0.88000000000E+00 0. -1.
        -11    1    4    4    0    0  0.55112102611E-01  0.30538079174E-01  0.88859774500E-01  0.10893226693E+00  0.51100000000E-03 0. -1.
         11    1    4    4    0    0  0.18996583579E-01  0.40525288451E-02  0.14382839507E-01  0.24174787921E-01  0.51100000000E-03 0.  1.
</event>
<event>
 8    1  0.1163913E+005  0.1043930E+01  0.7957747E-01            NaN
         13   -1    0    0    0    0  0.00000000000E+00  0.00000000000E+00  0.74505805969E-08  0.10566000000E+00  0.10566000000E+00 0. -1.
     999900   -1    0    0    0    0 -0.00000000000E+00 -0.00000000000E+00 -0.74505805969E-08  0.93827000000E+00  0.93827000000E+00 0. -1.
     999902    2    1    2    0    0 -0.48852496151E-03  0.55622222047E-03 -0.23193138832E-01  0.10207250495E+01  0.10204612471E+01 0.  0.
     999903    2    3    3    0    0 -0.39611500012E-02  0.63295850882E-01 -0.11596125248E+00  0.13362063452E+00  0.19631771283E-01 0.  0.
         14    1    1    2    0    0  0.48852496151E-03 -0.55622222047E-03  0.23193138832E-01  0.23204950521E-01  0.00000000000E+00 0. -1.
     999901    1    3    3    0    0  0.34726250397E-02 -0.62739628661E-01  0.92768113652E-01  0.88710441496E+00  0.88000000000E+00 0.  1.
        -11    1    4    4    0    0 -0.26614036153E-02  0.38942943960E-01 -0.89437077342E-01  0.97585285151E-01  0.51100000000E-03 0. -1.
         11    1    4    4    0    0 -0.12997463859E-02  0.24352906922E-01 -0.26524175142E-01  0.36035349369E-01  0.51100000000E-03 0.  1.
</event>
<event>
 8    1  0.1163913E+005  0.1043930E+01  0.7957747E-01            NaN
         13   -1    0    0    0    0  0.00000000000E+00  0.00000000000E+00  0.74505805969E-08  0.10566000000E+00  0.10566000000E+00 0.  1.
     999900   -1    0    0    0    0 -0.00000000000E+00 -0.00000000000E+00 -0.74505805969E-08  0.93827000000E+00  0.93827000000E+00 0. -1.
     999902    2    1    2    0    0  0.24443249480E-02 -0.30073792310E-01 -0.15798315144E-01  0.10098713085E+01  0.10092968172E+01 0.  0.
     999903    2    3    3    0    0  0.11756032456E+00  0.18864287458E-01 -0.11070679056E-02  0.12090423271E+00  0.20983723108E-01 0.  0.
         14    1    1    2    0    0 -0.24443249480E-02  0.30073792310E-01  0.15798315144E-01  0.34058691545E-01  0.00000000000E+00 0.  1.
     999901    1    3    3    0    0 -0.11511599961E+00 -0.48938079768E-01 -0.14691247238E-01  0.88896707575E+00  0.88000000000E+00 0. -1.
        -11    1    4    4    0    0  0.45681032966E-01  0.41261181600E-03 -0.79709842207E-02  0.46375906802E-01  0.51100000000E-03 0. -1.
         11    1    4    4    0    0  0.71879291594E-01  0.18451675642E-01  0.68639163151E-02  0.74528325905E-01  0.51100000000E-03 0.  1.
</event>
<event>
 8    1  0.1163913E+005  0.1043930E+01  0.7957747E-01            NaN
         13   -1    0    0    0    0  0.00000000000E+00  0.00000000000E+00  0.74505805969E-08  0.10566000000E+00  0.10566000000E+00 0. -1.
     999900   -1    0    0    0    0 -0.00000000000E+00 -0.00000000000E+00 -0.74505805969E-08  0.93827000000E+00  0.93827000000E+00 0.  1.
     999902    2    1    2    0    0 -0.56767445884E-02  0.18153026712E-01  0.13585506481E-01  0.10205564296E+01  0.10202887347E+01 0.  0.
     999903    2    3    3    0    0  0.58857451118E-01 -0.10249646170E+00  0.48614120740E-01  0.12929442249E+00  0.19595681596E-01 0.  0.
         14    1    1    2    0    0  0.56767445884E-02 -0.18153026712E-01 -0.13585506481E-01  0.23373570422E-01  0.00000000000E+00 0.  1.
     999901    1    3    3    0    0 -0.64534195706E-01  0.12064948841E+00 -0.35028614259E-01  0.89126200709E+00  0.88000000000E+00 0. -1.
        -11    1    4    4    0    0  0.41485067997E-01 -0.60503399643E-01  0.38020159308E-01  0.82628480985E-01  0.51100000000E-03 0.  1.
         11    1    4    4    0    0  0.17372383121E-01 -0.41993062058E-01  0.10593961432E-01  0.46665941501E-01  0.51100000000E-03 0. -1.
</event>
<event>
 8    1  0.1163913E+005  0.1043930E+01  0.7957747E-01            NaN
         13   -1    0    0    0    0  0.00000000000E+00  0.00000000000E+00  0.74505805969E-08  0.10566000000E+00  0.10566000000E+00 0. -1.
     999900   -1    0    0    0    0 -0.00000000000E+00 -0.00000000000E+00 -0.74505805969E-08  0.93827000000E+00  0.93827000000E+00 0.  1.
     999902    2    1    2    0    0 -0.10396620934E-01 -0.12214943291E-01 -0.15372722849E-01  0.10217125480E+01  0.10214709568E+01 0.  0.
     999903    2    3    3    0    0 -0.76104028295E-01 -0.11406265356E-01 -0.10833638529E+00  0.13437926230E+00  0.19977180671E-01 0.  0.
         14    1    1    2    0    0  0.10396620934E-01  0.12214943291E-01  0.15372722849E-01  0.22217452020E-01  0.00000000000E+00 0. -1.
     999901    1    3    3    0    0  0.65707407361E-01 -0.80867793582E-03  0.92963662436E-01  0.88733328568E+00  0.88000000000E+00 0. -1.
        -11    1    4    4    0    0 -0.23309548338E-01  0.56669173963E-02 -0.34167249120E-01  0.41750581192E-01  0.51100000000E-03 0.  1.
         11    1    4    4    0    0 -0.52794479957E-01 -0.17073182752E-01 -0.74169136165E-01  0.92628681108E-01  0.51100000000E-03 0. -1.
</event>
<event>
 8    1  0.1163913E+005  0.1043930E+01  0.7957747E-01            NaN
         13   -1    0    0    0    0  0.00000000000E+00  0.00000000000E+00  0.74505805969E-08  0.10566000000E+00  0.10566000000E+00 0. -1.
     999900   -1    0    0    0    0 -0.00000000000E+00 -0.00000000000E+00 -0.74505805969E-08  0.93827000000E+00  0.93827000000E+00 0. -1.
     999902    2    1    2    0    0 -0.10674505749E-01 -0.76098381767E-02 -0.19291938771E-01  0.10206054719E+01  0.10203389121E+01 0.  0.
     999903    2    3    3    0    0 -0.86806039935E-02 -0.12025383041E+00 -0.52261705933E-01  0.13281064752E+00  0.19262543246E-01 0.  0.
         14    1    1    2    0    0  0.10674505749E-01  0.76098381767E-02  0.19291938771E-01  0.23324528112E-01  0.00000000000E+00 0. -1.
     999901    1    3    3    0    0 -0.19939017560E-02  0.11264399224E+00  0.32969767162E-01  0.88779482437E+00  0.88000000000E+00 0.  1.
        -11    1    4    4    0    0  0.19727247178E-02 -0.52855045657E-01 -0.31135228851E-01  0.61377610664E-01  0.51100000000E-03 0. -1.
         11    1    4    4    0    0 -0.10653328711E-01 -0.67398784757E-01 -0.21126477082E-01  0.71433036855E-01  0.51100000000E-03 0.  1.
</event>
<event>
 8    1  0.1163913E+005  0.1043930E+01  0.7957747E-01            NaN
         13   -1    0    0    0    0  0.00000000000E+00  0.00000000000E+00  0.74505805969E-08  0.10566000000E+00  0.10566000000E+00 0.  1.
     999900   -1    0    0    0    0 -0.00000000000E+00 -0.00000000000E+00 -0.74505805969E-08  0.93827000000E+00  0.93827000000E+00 0.  1.
     999902    2    1    2    0    0  0.48195255679E-03  0.11013932136E-01  0.20905039246E-01  0.10202961335E+01  0.10200223725E+01 0.  0.
     999903    2    3    3    0    0 -0.55620429498E-01 -0.11097384077E+00 -0.27593790343E-01  0.12879143331E+00  0.20420345647E-01 0.  0.
         14    1    1    2    0    0 -0.48195255679E-03 -0.11013932136E-01 -0.20905039246E-01  0.23633866489E-01  0.00000000000E+00 0. -1.
     999901    1    3    3    0    0  0.56102382054E-01  0.12198777290E+00  0.48498829589E-01  0.89150470020E+00  0.88000000000E+00 0. -1.
        -11    1    4    4    0    0 -0.29079840965E-01 -0.39524490977E-01 -0.51904870225E-02  0.49345970596E-01  0.51100000000E-03 0. -1.
         11    1    4    4    0    0 -0.26540588533E-01 -0.71449349790E-01 -0.22403303320E-01  0.79445462713E-01  0.51100000000E-03 0.  1.
</event>
<event>
 8    1  0.1163913E+005  0.1043930E+01  0.7957747E-01            NaN
         13   -1    0    0    0    0  0.00000000000E+00  0.00000000000E+00  0.74505805969E-08  0.10566000000E+00  0.10566000000E+00 0. -1.
     999900   -1    0    0    0    0 -0.00000000000E+00 -0.00000000000E+00 -0.74505805969E-08  0.93827000000E+00  0.93827000000E+00 0.  1.
     999902    2    1    2    0    0  0.20454569621E-01 -0.90789920405E-02 -0.89476326226E-02  0.10198285966E+01  0.10195437651E+01 0.  0.
     999903    2    3    3    0    0 -0.75010189838E-01 -0.38880934136E-01  0.94271950791E-01  0.12816949223E+00  0.20049000350E-01 0.  0.
         14    1    1    2    0    0 -0.20454569621E-01  0.90789920405E-02  0.89476326226E-02  0.24101403370E-01  0.00000000000E+00 0. -1.
     999901    1    3    3    0    0  0.95464759459E-01  0.29801942095E-01 -0.10321958341E+00  0.89165910440E+00  0.88000000000E+00 0.  1.
        -11    1    4    4    0    0 -0.32193437704E-01 -0.21003836218E-01  0.29331088253E-01  0.48354445775E-01  0.51100000000E-03 0.  1.
         11    1    4    4    0    0 -0.42816752134E-01 -0.17877097918E-01  0.64940862538E-01  0.79815046460E-01  0.51100000000E-03 0. -1.
</event>
<event>
 8    1  0.1163913E+005  0.1043930E+01  0.7957747E-01            NaN
         13   -1    0    0    0    0  0.00000000000E+00  0.00000000000E+00  0.74505805969E-08  0.10566000000E+00  0.10566000000E+00 0.  1.
     999900   -1    0    0    0    0 -0.00000000000E+00 -0.00000000000E+00 -0.74505805969E-08  0.93827000000E+00  0.93827000000E+00 0.  1.
     999902    2    1    2    0    0  0.31467107863E-02  0.57418596906E-02  0.21520538713E-01  0.10214354600E+01  0.10211877372E+01 0.  0.
     999903    2    3    3    0    0  0.12872862657E+00  0.22165976740E-01  0.61615552831E-03  0.13212248789E+00  0.19838909671E-01 0.  0.
         14    1    1    2    0    0 -0.31467107863E-02 -0.57418596906E-02 -0.21520538713E-01  0.22494539960E-01  0.00000000000E+00 0. -1.
     999901    1    3    3    0    0 -0.12558191578E+00 -0.16424117050E-01  0.20904383185E-01  0.88931297215E+00  0.88000000000E+00 0.  1.
        -11    1    4    4    0    0  0.12074069809E+00  0.17694932520E-01  0.46179573052E-02  0.12211884974E+00  0.51100000000E-03 0. -1.
         11    1    4    4    0    0  0.79879284775E-02  0.44710442198E-02 -0.40018017769E-02  0.10003638150E-01  0.51100000000E-03 0.  1.
</event>
<event>
 8    1  0.1163913E+005  0.1043930E+01  0.7957747E-01            NaN
         13   -1    0    0    0    0  0.00000000000E+00  0.00000000000E+00  0.74505805969E-08  0.10566000000E+00  0.10566000000E+00 0. -1.
     999900   -1    0    0    0    0 -0.00000000000E+00 -0.00000000000E+00 -0.74505805969E-08  0.93827000000E+00  0.93827000000E+00 0. -1.
     999902    2    1    2    0    0 -0.12103990155E-01 -0.38253167006E-02 -0.19740787087E-01  0.10204600554E+01  0.10201901226E+01 0.  0.
     999903    2    3    3    0    0  0.65168765249E-01  0.10119377254E+00 -0.45105987766E-01  0.13049180806E+00  0.22503650251E-01 0.  0.
         14    1    1    2    0    0  0.12103990155E-01  0.38253167006E-02  0.19740787087E-01  0.23469944618E-01  0.00000000000E+00 0. -1.
     999901    1    3    3    0    0 -0.77272755404E-01 -0.10501908924E+00  0.25365200678E-01  0.88996824732E+00  0.88000000000E+00 0.  1.
        -11    1    4    4    0    0  0.37920726127E-01  0.42556817959E-01 -0.13791626756E-01  0.58647543123E-01  0.51100000000E-03 0.  1.
         11    1    4    4    0    0  0.27248039123E-01  0.58636954579E-01 -0.31314361010E-01  0.71844264940E-01  0.51100000000E-03 0. -1.
</event>
<event>
 8    1  0.1163913E+005  0.1043930E+01  0.7957747E-01            NaN
         13   -1    0    0    0    0  0.00000000000E+00  0.00000000000E+00  0.74505805969E-08  0.10566000000E+00  0.10566000000E+00 0.  1.
     999900   -1    0    0    0    0 -0.00000000000E+00 -0.00000000000E+00 -0.74505805969E-08  0.93827000000E+00  0.93827000000E+00 0. -1.
     999902    2    1    2    0    0  0.18017602573E-01 -0.50430933088E-02  0.22451283342E-02  0.10250857066E+01  0.10249124833E+01 0.  0.
     999903    2    3    3    0    0 -0.77405762015E-01  0.89585266933E-01  0.57638567562E-01  0.13316161892E+00  0.19815151733E-01 0.  0.
         14    1    1    2    0    0 -0.18017602573E-01  0.50430933088E-02 -0.22451283342E-02  0.18844293402E-01  0.00000000000E+00 0.  1.
     999901    1    3    3    0    0  0.95423364588E-01 -0.94628360241E-01 -0.55393439227E-01  0.89192408768E+00  0.88000000000E+00 0.  1.
        -11    1    4    4    0    0 -0.45379580154E-01  0.45610104668E-01  0.21457158199E-01  0.67825206979E-01  0.51100000000E-03 0.  1.
         11    1    4    4    0    0 -0.32026181861E-01  0.43975162265E-01  0.36181409362E-01  0.65336411940E-01  0.51100000000E-03 0. -1.
</event>
<event>
 8    1  0.1163913E+005  0.1043930E+01  0.7957747E-01            NaN
         13   -1    0    0    0    0  0.00000000000E+00  0.00000000000E+00  0.74505805969E-08  0.10566000000E+00  0.10566000000E+00 0.  1.
     999900   -1    0    0    0    0 -0.00000000000E+00 -0.00000000000E+00 -0.74505805969E-08  0.93827000000E+00  0.93827000000E+00 0. -1.
     999902    2    1    2    0    0  0.14931066825E-01  0.18232737542E-01  0.46498652005E-02  0.10199093688E+01  0.10196264659E+01 0.  0.
     999903    2    3    3    0    0 -0.94910445819E-01  0.86879175928E-01 -0.75328731653E-03  0.13041137252E+00  0.21226745052E-01 0.  0.
         14    1    1    2    0    0 -0.14931066825E-01 -0.18232737542E-01 -0.46498652005E-02  0.24020631157E-01  0.00000000000E+00 0.  1.
     999901    1    3    3    0    0  0.10984151264E+00 -0.68646438385E-01  0.54031525170E-02  0.88949799632E+00  0.88000000000E+00 0. -1.
        -11    1    4    4    0    0 -0.54657132584E-01  0.47405690329E-01  0.99190707280E-02  0.73029793256E-01  0.51100000000E-03 0.  1.
         11    1    4    4    0    0 -0.40253313235E-01  0.39473485599E-01 -0.10672358045E-01  0.57381579265E-01  0.51100000000E-03 0. -1.
</event>
<event>
 8    1  0.1163913E+005  0.1043930E+01  0.7957747E-01            NaN
         13   -1    0    0    0    0  0.00000000000E+00  0.00000000000E+00  0.74505805969E-08  0.10566000000E+00  0.10566000000E+00 0. -1.
     999900   -1    0    0    0    0 -0.00000000000E+00 -0.00000000000E+00 -0.74505805969E-08  0.93827000000E+00  0.93827000000E+00 0.  1.
     999902    2    1    2    0    0 -0.22980328877E-01 -0.48854485655E-02  0.42125341174E-02  0.10200614314E+01  0.10197821411E+01 0.  0.
     999903    2    3    3    0    0 -0.57321303593E-01 -0.34553239994E-02  0.11736507260E+00  0.13215105036E+00  0.19790622439E-01 0.  0.
         14    1    1    2    0    0  0.22980328877E-01  0.48854485655E-02 -0.42125341174E-02  0.23868568592E-01  0.00000000000E+00 0. -1.
     999901    1    3    3    0    0  0.34340974716E-01 -0.14301245661E-02 -0.11315253848E+00  0.88791038104E+00  0.88000000000E+00 0.  1.
        -11    1    4    4    0    0 -0.37318760242E-01 -0.16926700863E-02  0.53892839131E-01  0.65576323690E-01  0.51100000000E-03 0.  1.
         11    1    4    4    0    0 -0.20002543351E-01 -0.17626539131E-02  0.63472233468E-01  0.66574726674E-01  0.51100000000E-03 0. -1.
</event>
<event>
 8    1  0.1163913E+005  0.1043930E+01  0.7957747E-01            NaN
         13   -1    0    0    0    0  0.00000000000E+00  0.00000000000E+00  0.74505805969E-08  0.10566000000E+00  0.10566000000E+00 0. -1.
     999900   -1    0    0    0    0 -0.00000000000E+00 -0.00000000000E+00 -0.74505805969E-08  0.93827000000E+00  0.93827000000E+00 0.  1.
     999902    2    1    2    0    0 -0.19335162046E-03 -0.21587162223E-02  0.23728479731E-01  0.10201027427E+01  0.10198244297E+01 0.  0.
     999903    2    3    3    0    0  0.10904517329E+00  0.66642018412E-01  0.18592477122E-01  0.13066866704E+00  0.19915117485E-01 0.  0.
         14    1    1    2    0    0  0.19335162046E-03  0.21587162223E-02 -0.23728479731E-01  0.23827257310E-01  0.00000000000E+00 0.  1.
     999901    1    3    3    0    0 -0.10923852491E+00 -0.68800734635E-01  0.51360026088E-02  0.88943407565E+00  0.88000000000E+00 0. -1.
        -11    1    4    4    0    0  0.51116519602E-01  0.40753714676E-01  0.36335727253E-02  0.65476925767E-01  0.51100000000E-03 0. -1.
         11    1    4    4    0    0  0.57928653685E-01  0.25888303736E-01  0.14958904397E-01  0.65191741270E-01  0.51100000000E-03 0.  1.
</event>
<event>
 8    1  0.1163913E+005  0.1043930E+01  0.7957747E-01            NaN
         13   -1    0    0    0    0  0.00000000000E+00  0.00000000000E+00  0.74505805969E-08  0.10566000000E+00  0.10566000000E+00 0.  1.
     999900   -1    0    0    0    0 -0.00000000000E+00 -0.00000000000E+00 -0.74505805969E-08  0.93827000000E+00  0.93827000000E+00 0. -1.
     999902    2    1    2    0    0  0.55126846488E-02 -0.17719500344E-02 -0.23265368335E-01  0.10199548699E+01  0.10196730504E+01 0.  0.
     999903    2    3    3    0    0 -0.62811027685E-01 -0.92045982773E-01 -0.67020763072E-01  0.13162381382E+00  0.20380322316E-01 0.  0.
         14    1    1    2    0    0 -0.55126846488E-02  0.17719500344E-02  0.23265368335E-01  0.23975130088E-01  0.00000000000E+00 0.  1.
     999901    1    3    3    0    0  0.68323712334E-01  0.90274032738E-01  0.43755394737E-01  0.88833105609E+00  0.88000000000E+00 0. -1.
        -11    1    4    4    0    0 -0.26842873809E-01 -0.45249670033E-01 -0.20489108652E-01  0.56463591869E-01  0.51100000000E-03 0. -1.
         11    1    4    4    0    0 -0.35968153876E-01 -0.46796312740E-01 -0.46531654420E-01  0.75160221948E-01  0.51100000000E-03 0.  1.
</event>
<event>
 8    1  0.1163913E+005  0.1043930E+01  0.7957747E-01            NaN
         13   -1    0    0    0    0  0.00000000000E+00  0.00000000000E+00  0.74505805969E-08  0.10566000000E+00  0.10566000000E+00 0. -1.
     999900   -1    0    0    0    0 -0.00000000000E+00 -0.00000000000E+00 -0.74505805969E-08  0.93827000000E+00  0.93827000000E+00 0.  1.
     999902    2    1    2    0    0  0.48012346054E-02 -0.17107054922E-01  0.16669875443E-01  0.10195663400E+01  0.10192752002E+01 0.  0.
     999903    2    3    3    0    0 -0.36146157652E-02 -0.37756476005E-01  0.12502728302E+00  0.13263987578E+00  0.22866967890E-01 0.  0.
         14    1    1    2    0    0 -0.48012346054E-02  0.17107054922E-01 -0.16669875443E-01  0.24363660011E-01  0.00000000000E+00 0.  1.
     999901    1    3    3    0    0  0.84158503706E-02  0.20649421083E-01 -0.10835740758E+00  0.88692646420E+00  0.88000000000E+00 0.  1.
        -11    1    4    4    0    0  0.86851643934E-02 -0.71869030051E-02  0.34682329508E-01  0.36472027041E-01  0.51100000000E-03 0. -1.
         11    1    4    4    0    0 -0.12299780159E-01 -0.30569573000E-01  0.90344953515E-01  0.96167848744E-01  0.51100000000E-03 0.  1.
</event>
<event>
 8    1  0.1163913E+005  0.1043930E+01  0.7957747E-01            NaN
         13   -1    0    0    0    0  0.00000000000E+00  0.00000000000E+00  0.74505805969E-08  0.10566000000E+00  0.10566000000E+00 0.  1.
     999900   -1    0    0    0    0 -0.00000000000E+00 -0.00000000000E+00 -0.74505805969E-08  0.93827000000E+00  0.93827000000E+00 0.  1.
     999902    2    1    2    0    0  0.12297328377E-01 -0.15970649701E-01 -0.10918272058E-01  0.10210063310E+01  0.10207489570E+01 0.  0.
     999903    2    3    3    0    0 -0.30505180856E-01 -0.76636967830E-01 -0.10258668896E+00  0.13313496889E+00  0.19927375436E-01 0.  0.
         14    1    1    2    0    0 -0.12297328377E-01  0.15970649701E-01  0.10918272058E-01  0.22923669031E-01  0.00000000000E+00 0.  1.
     999901    1    3    3    0    0  0.42802509233E-01  0.60666318129E-01  0.91668416899E-01  0.88787136208E+00  0.88000000000E+00 0. -1.
        -11    1    4    4    0    0 -0.23706769096E-01 -0.42086356328E-01 -0.47462425787E-01  0.67721601226E-01  0.51100000000E-03 0.  1.
         11    1    4    4    0    0 -0.67984117601E-02 -0.34550611502E-01 -0.55124263170E-01  0.65413367660E-01  0.51100000000E-03 0. -1.
</event>
<event>
 8    1  0.1163913E+005  0.1043930E+01  0.7957747E-01            NaN
         13   -1    0    0    0    0  0.00000000000E+00  0.00000000000E+00  0.74505805969E-08  0.10566000000E+00  0.10566000000E+00 0. -1.
     999900   -1    0    0    0    0 -0.00000000000E+00 -0.00000000000E+00 -0.74505805969E-08  0.93827000000E+00  0.93827000000E+00 0. -1.
     999902    2    1    2    0    0  0.21423353854E-01  0.15295618815E-02 -0.11098797873E-01  0.10197539175E+01  0.10194672968E+01 0.  0.
     999903    2    3    3    0    0  0.33356172041E-01  0.51202864587E-01  0.11262121889E+00  0.12963231251E+00  0.19662907902E-01 0.  0.
         14    1    1    2    0    0 -0.21423353854E-01 -0.15295618815E-02  0.11098797873E-01  0.24176082481E-01  0.00000000000E+00 0.  1.
     999901    1    3    3    0    0 -0.11932818187E-01 -0.49673302706E-01 -0.12372001677E+00  0.89012160501E+00  0.88000000000E+00 0. -1.
        -11    1    4    4    0    0  0.14326640719E-01  0.18209964312E-01  0.62647548515E-01  0.66796945219E-01  0.51100000000E-03 0.  1.
         11    1    4    4    0    0  0.19029531322E-01  0.32992900276E-01  0.49973670377E-01  0.62835367293E-01  0.51100000000E-03 0. -1.
</event>
<event>
 8    1  0.1163913E+005  0.1043930E+01  0.7957747E-01            NaN
         13   -1    0    0    0    0  0.00000000000E+00  0.00000000000E+00  0.74505805969E-08  0.10566000000E+00  0.10566000000E+00 0. -1.
     999900   -1    0    0    0    0 -0.00000000000E+00 -0.00000000000E+00 -0.74505805969E-08  0.93827000000E+00  0.93827000000E+00 0.  1.
     999902    2    1    2    0    0 -0.61493232541E-02  0.21809637717E-02 -0.23084217108E-01  0.10199414223E+01  0.10196592829E+01 0.  0.
     999903    2    3    3    0    0  0.12060142469E+00 -0.19969276698E-01 -0.40901002960E-01  0.13040568773E+00  0.19730070969E-01 0.  0.
         14    1    1    2    0    0  0.61493232541E-02 -0.21809637717E-02  0.23084217108E-01  0.23988577677E-01  0.00000000000E+00 0. -1.
     999901    1    3    3    0    0 -0.12675074794E+00  0.22150240470E-01  0.17816785852E-01  0.88953573459E+00  0.88000000000E+00 0. -1.
        -11    1    4    4    0    0  0.73332842137E-01 -0.18285496394E-01 -0.17260793365E-01  0.77525874538E-01  0.51100000000E-03 0.  1.
         11    1    4    4    0    0  0.47268582554E-01 -0.16837803040E-02 -0.23640209595E-01  0.52879813194E-01  0.51100000000E-03 0. -1.
</event>
<event>
 8    1  0.1163913E+005  0.1043930E+01  0.7957747E-01            NaN
         13   -1    0    0    0    0  0.00000000000E+00  0.00000000000E+00  0.74505805969E-08  0.10566000000E+00  0.10566000000E+00 0. -1.
     999900   -1    0    0    0    0 -0.00000000000E+00 -0.00000000000E+00 -0.74505805969E-08  0.93827000000E+00  0.93827000000E+00 0.  1.
     999902    2    1    2    0    0 -0.10302541468E-01 -0.15113294440E-01 -0.16408085471E-01  0.10193580791E+01  0.10190618794E+01 0.  0.
     999903    2    3    3    0    0  0.87692160821E-01  0.31895786364E-01 -0.87810245715E-01  0.12980140080E+00  0.20748690104E-01 0.  0.
         14    1    1    2    0    0  0.10302541468E-01  0.15113294440E-01  0.16408085471E-01  0.24571920933E-01  0.00000000000E+00 0.  1.
     999901    1    3    3    0    0 -0.97994702288E-01 -0.47009080804E-01  0.71402160243E-01  0.88955667826E+00  0.88000000000E+00 0. -1.
        -11    1    4    4    0    0  0.48983867851E-02  0.67107224426E-02 -0.12844528866E-01  0.15305914922E-01  0.51100000000E-03 0.  1.
         11    1    4    4    0    0  0.82793774035E-01  0.25185063921E-01 -0.74965716848E-01  0.11449548588E+00  0.51100000000E-03 0. -1.
</event>
<event>
 8    1  0.1163913E+005  0.1043930E+01  0.7957747E-01            NaN
         13   -1    0    0    0    0  0.00000000000E+00  0.00000000000E+00  0.74505805969E-08  0.10566000000E+00  0.10566000000E+00 0.  1.
     999900   -1    0    0    0    0 -0.00000000000E+00 -0.00000000000E+00 -0.74505805969E-08  0.93827000000E+00  0.93827000000E+00 0.  1.
     999902    2    1    2    0    0  0.28551031454E-02  0.11899798976E-01  0.20833813144E-01  0.10197679513E+01  0.10194816672E+01 0.  0.
     999903    2    3    3    0    0 -0.75429262295E-01  0.59975234820E-01  0.88895105706E-01  0.13237174383E+00  0.18257501019E-01 0.  0.
         14    1    1    2    0    0 -0.28551031454E-02 -0.11899798976E-01 -0.20833813144E-01  0.24162048749E-01  0.00000000000E+00 0. -1.
     999901    1    3    3    0    0  0.78284365440E-01 -0.48075435844E-01 -0.68061292561E-01  0.88739620742E+00  0.88000000000E+00 0.  1.
        -11    1    4    4    0    0 -0.23728195558E-01  0.19893121697E-01  0.17641186050E-01  0.35640372074E-01  0.51100000000E-03 0. -1.
         11    1    4    4    0    0 -0.51701066736E-01  0.40082113124E-01  0.71253919655E-01  0.96731371754E-01  0.51100000000E-03 0.  1.
</event>
<event>
 8    1  0.1163913E+005  0.1043930E+01  0.7957747E-01            NaN
         13   -1    0    0    0    0  0.00000000000E+00  0.00000000000E+00  0.74505805969E-08  0.10566000000E+00  0.10566000000E+00 0. -1.
     999900   -1    0    0    0    0 -0.00000000000E+00 -0.00000000000E+00 -0.74505805969E-08  0.93827000000E+00  0.93827000000E+00 0.  1.
     999902    2    1    2    0    0  0.12777707304E-01 -0.19580925476E-01 -0.56557861102E-02  0.10198744318E+01  0.10195906954E+01 0.  0.
     999903    2    3    3    0    0 -0.12014203342E+00 -0.26719132206E-01 -0.35674897002E-01  0.12935786343E+00  0.17684409371E-01 0.  0.
         14    1    1    2    0    0 -0.12777707304E-01  0.19580925476E-01  0.56557861102E-02  0.24055568232E-01  0.00000000000E+00 0. -1.
     999901    1    3    3    0    0  0.13291974072E+00  0.71382067306E-02  0.30019110892E-01  0.89051656834E+00  0.88000000000E+00 0. -1.
        -11    1    4    4    0    0 -0.10454470552E+00 -0.17008522808E-01 -0.31564805655E-01  0.11052367791E+00  0.51100000000E-03 0.  1.
         11    1    4    4    0    0 -0.15597327894E-01 -0.97106093985E-02 -0.41100913471E-02  0.18834185520E-01  0.51100000000E-03 0. -1.
</event>
<event>
 8    1  0.1163913E+005  0.1043930E+01  0.7957747E-01            NaN
         13   -1    0    0    0    0  0.00000000000E+00  0.00000000000E+00  0.74505805969E-08  0.10566000000E+00  0.10566000000E+00 0. -1.
     999900   -1    0    0    0    0 -0.00000000000E+00 -0.00000000000E+00 -0.74505805969E-08  0.93827000000E+00  0.93827000000E+00 0. -1.
     999902    2    1    2    0    0 -0.27229213197E-02 -0.15696892420E-01 -0.17376552337E-01  0.10203556219E+01  0.10200832534E+01 0.  0.
     999903    2    3    3    0    0  0.10134951851E+00 -0.54107755782E-01 -0.62408513510E-01  0.13224845230E+00  0.19886086568E-01 0.  0.
         14    1    1    2    0    0  0.27229213197E-02  0.15696892420E-01  0.17376552337E-01  0.23574378110E-01  0.00000000000E+00 0.  1.
     999901    1    3    3    0    0 -0.10407243983E+00  0.38410863362E-01  0.45031961173E-01  0.88810716959E+00  0.88000000000E+00 0.  1.
        -11    1    4    4    0    0  0.60273121786E-01 -0.32911566214E-01 -0.48152051815E-01  0.83874320357E-01  0.51100000000E-03 0.  1.
         11    1    4    4    0    0  0.41076396722E-01 -0.21196189568E-01 -0.14256461696E-01  0.48374131940E-01  0.51100000000E-03 0. -1.
</event>
<event>
 8    1  0.1163913E+005  0.1043930E+01  0.7957747E-01            NaN
         13   -1    0    0    0    0  0.00000000000E+00  0.00000000000E+00  0.74505805969E-08  0.10566000000E+00  0.10566000000E+00 0.  1.
     999900   -1    0    0    0    0 -0.00000000000E+00 -0.00000000000E+00 -0.74505805969E-08  0.93827000000E+00  0.93827000000E+00 0.  1.
     999902    2    1    2    0    0  0.96276910161E-02 -0.22245106094E-01 -0.12537405758E-03  0.10196905095E+01  0.10194023653E+01 0.  0.
     999903    2    3    3    0    0 -0.24444798956E-01 -0.12605554131E+00 -0.25800267393E-01  0.13256214161E+00  0.20482184916E-01 0.  0.
         14    1    1    2    0    0 -0.96276910161E-02  0.22245106094E-01  0.12537405758E-03  0.24239490467E-01  0.00000000000E+00 0.  1.
     999901    1    3    3    0    0  0.34072489972E-01  0.10381043521E+00  0.25674893335E-01  0.88712836793E+00  0.88000000000E+00 0. -1.
        -11    1    4    4    0    0 -0.20938272667E-01 -0.91271382850E-01 -0.27373657990E-01  0.97562568961E-01  0.51100000000E-03 0. -1.
         11    1    4    4    0    0 -0.35065262889E-02 -0.34784158460E-01  0.15733905972E-02  0.34999572645E-01  0.51100000000E-03 0.  1.
</event>
<event>
 8    1  0.1163913E+005  0.1043930E+01  0.7957747E-01            NaN
         13   -1    0    0    0    0  0.00000000000E+00  0.00000000000E+00  0.74505805969E-08  0.10566000000E+00  0.10566000000E+00 0.  1.
     999900   -1    0    0    0    0 -0.00000000000E+00 -0.00000000000E+00 -0.74505805969E-08  0.93827000000E+00  0.93827000000E+00 0. -1.
     999902    2    1    2    0    0 -0.22000702529E-01 -0.49097108820E-02 -0.68724815726E-02  0.10203637704E+01  0.10200915924E+01 0.  0.
     999903    2    3    3    0    0  0.45017934443E-01  0.80145072383E-01  0.87686304397E-01  0.12869837475E+00  0.20604286856E-01 0.  0.
         14    1    1    2    0    0  0.22000702529E-01  0.49097108820E-02  0.68724815726E-02  0.23566229560E-01  0.00000000000E+00 0. -1.
     999901    1    3    3    0    0 -0.67018636973E-01 -0.85054783265E-01 -0.94558785970E-01  0.89166539568E+00  0.88000000000E+00 0. -1.
        -11    1    4    4    0    0  0.35393904031E-01  0.60484930452E-01  0.53786897266E-01  0.88342779518E-01  0.51100000000E-03 0.  1.
         11    1    4    4    0    0  0.96240304123E-02  0.19660141931E-01  0.33899407131E-01  0.40355595237E-01  0.51100000000E-03 0. -1.
</event>
<event>
 8    1  0.1163913E+005  0.1043930E+01  0.7957747E-01            NaN
         13   -1    0    0    0    0  0.00000000000E+00  0.00000000000E+00  0.74505805969E-08  0.10566000000E+00  0.10566000000E+00 0.  1.
     999900   -1    0    0    0    0 -0.00000000000E+00 -0.00000000000E+00 -0.74505805969E-08  0.93827000000E+00  0.93827000000E+00 0.  1.
     999902    2    1    2    0    0  0.11790400202E-01 -0.10165401336E-01  0.17326329119E-01  0.10206372844E+01  0.10203714596E+01 0.  0.
     999903    2    3    3    0    0  0.52400100992E-01  0.82774328249E-01  0.86013775016E-01  0.13215267202E+00  0.21647152911E-01 0.  0.
         14    1    1    2    0    0 -0.11790400202E-01  0.10165401336E-01 -0.17326329119E-01  0.23292715642E-01  0.00000000000E+00 0. -1.
     999901    1    3    3    0    0 -0.40609700789E-01 -0.92939729584E-01 -0.68687445897E-01  0.88848461234E+00  0.88000000000E+00 0.  1.
        -11    1    4    4    0    0  0.11636596608E-01  0.12144837126E-01  0.58933789994E-02  0.17829764061E-01  0.51100000000E-03 0. -1.
         11    1    4    4    0    0  0.40763504384E-01  0.70629491122E-01  0.80120396017E-01  0.11432290796E+00  0.51100000000E-03 0.  1.
</event>
<event>
 8    1  0.1163913E+005  0.1043930E+01  0.7957747E-01            NaN
         13   -1    0    0    0    0  0.00000000000E+00  0.00000000000E+00  0.74505805969E-08  0.10566000000E+00  0.10566000000E+00 0.  1.
     999900   -1    0    0    0    0 -0.00000000000E+00 -0.00000000000E+00 -0.74505805969E-08  0.93827000000E+00  0.93827000000E+00 0. -1.
     999902    2    1    2    0    0  0.54997405563E-02 -0.14310246673E-01 -0.12807347083E-01  0.10239535527E+01  0.10237586726E+01 0.  0.
     999903    2    3    3    0    0  0.11794742676E+00 -0.30093181276E-01  0.52891774459E-01  0.13422889998E+00  0.20066458229E-01 0.  0.
         14    1    1    2    0    0 -0.54997405563E-02  0.14310246673E-01  0.12807347083E-01  0.19976447265E-01  0.00000000000E+00 0.  1.
     999901    1    3    3    0    0 -0.11244768620E+00  0.15782934602E-01 -0.65699121542E-01  0.88972465276E+00  0.88000000000E+00 0. -1.
        -11    1    4    4    0    0  0.65122637610E-01 -0.18331754956E-01  0.18625715312E-01  0.70172569861E-01  0.51100000000E-03 0.  1.
         11    1    4    4    0    0  0.52824789145E-01 -0.11761426320E-01  0.34266059147E-01  0.64056330115E-01  0.51100000000E-03 0. -1.
</event>
<event>
 8    1  0.1163913E+005  0.1043930E+01  0.7957747E-01            NaN
         13   -1    0    0    0    0  0.00000000000E+00  0.00000000000E+00  0.74505805969E-08  0.10566000000E+00  0.10566000000E+00 0.  1.
     999900   -1    0    0    0    0 -0.00000000000E+00 -0.00000000000E+00 -0.74505805969E-08  0.93827000000E+00  0.93827000000E+00 0.  1.
     999902    2    1    2    0    0  0.11877979868E-01 -0.14232196006E-01 -0.13269222840E-01  0.10211327615E+01  0.10208782506E+01 0.  0.
     999903    2    3    3    0    0  0.89908969307E-01 -0.87149411505E-01  0.40635535563E-01  0.13303846548E+00  0.19218320922E-01 0.  0.
         14    1    1    2    0    0 -0.11877979868E-01  0.14232196006E-01  0.13269222840E-01  0.22797238510E-01  0.00000000000E+00 0.  1.
     999901    1    3    3    0    0 -0.78030989439E-01  0.72917215498E-01 -0.53904758402E-01  0.88809429601E+00  0.88000000000E+00 0. -1.
        -11    1    4    4    0    0  0.71493423228E-01 -0.68926555520E-01  0.40156558029E-01  0.10712137926E+00  0.51100000000E-03 0.  1.
         11    1    4    4    0    0  0.18415546079E-01 -0.18222855985E-01  0.47897753355E-03  0.25917086220E-01  0.51100000000E-03 0. -1.
</event>
<event>
 8    1  0.1163913E+005  0.1043930E+01  0.7957747E-01            NaN
         13   -1    0    0    0    0  0.00000000000E+00  0.00000000000E+00  0.74505805969E-08  0.10566000000E+00  0.10566000000E+00 0. -1.
     999900   -1    0    0    0    0 -0.00000000000E+00 -0.00000000000E+00 -0.74505805969E-08  0.93827000000E+00  0.93827000000E+00 0. -1.
     999902    2    1    2    0    0 -0.20643471342E-02 -0.70065680983E-02 -0.22441424049E-01  0.10203297661E+01  0.10200567928E+01 0.  0.
     999903    2    3    3    0    0  0.64017042994E-01  0.57117023484E-01 -0.98568155997E-01  0.13225664727E+00  0.20386348488E-01 0.  0.
         14    1    1    2    0    0  0.20643471342E-02  0.70065680983E-02  0.22441424049E-01  0.23600233875E-01  0.00000000000E+00 0. -1.
     999901    1    3    3    0    0 -0.66081390128E-01 -0.64123591582E-01  0.76126731948E-01  0.88807311886E+00  0.88000000000E+00 0.  1.
        -11    1    4    4    0    0  0.40724340636E-01  0.48443534981E-01 -0.72379278426E-01  0.96147121996E-01  0.51100000000E-03 0.  1.
         11    1    4    4    0    0  0.23292702358E-01  0.86734885023E-02 -0.26188877571E-01  0.36109525272E-01  0.51100000000E-03 0. -1.
</event>
<event>
 8    1  0.1163913E+005  0.1043930E+01  0.7957747E-01            NaN
         13   -1    0    0    0    0  0.00000000000E+00  0.00000000000E+00  0.74505805969E-08  0.10566000000E+00  0.10566000000E+00 0. -1.
     999900   -1    0    0    0    0 -0.00000000000E+00 -0.00000000000E+00 -0.74505805969E-08  0.93827000000E+00  0.93827000000E+00 0. -1.
     999902    2    1    2    0    0 -0.14946832103E-01 -0.10091641157E-02  0.17542627333E-01  0.10208611904E+01  0.10206005096E+01 0.  0.
     999903    2    3    3    0    0 -0.65819045019E-01 -0.11271681921E+00  0.89130406796E-02  0.13229996460E+00  0.19662408765E-01 0.  0.
         14    1    1    2    0    0  0.14946832103E-01  0.10091641157E-02 -0.17542627333E-01  0.23068809589E-01  0.00000000000E+00 0.  1.
     999901    1    3    3    0    0  0.50872212915E-01  0.11170765509E+00  0.86295866529E-02  0.88856122581E+00  0.88000000000E+00 0. -1.
        -11    1    4    4    0    0 -0.83614362076E-02 -0.29772675727E-01 -0.73090460861E-03  0.30937375098E-01  0.51100000000E-03 0. -1.
         11    1    4    4    0    0 -0.57457608811E-01 -0.82944143482E-01  0.96439452882E-02  0.10136258950E+00  0.51100000000E-03 0.  1.
</event>
<event>
 8    1  0.1163913E+005  0.1043930E+01  0.7957747E-01            NaN
         13   -1    0    0    0    0  0.00000000000E+00  0.00000000000E+00  0.74505805969E-08  0.10566000000E+00  0.10566000000E+00 0.  1.
     999900   -1    0    0    0    0 -0.00000000000E+00 -0.00000000000E+00 -0.74505805969E-08  0.93827000000E+00  0.93827000000E+00 0.  1.
     999902    2    1    2    0    0 -0.22242959101E-01 -0.19461412760E-01  0.23685947999E-02  0.10142802773E+01  0.10138468202E+01 0.  0.
     999903    2    3    3    0    0 -0.69791320296E-01  0.85515655240E-01 -0.54401291551E-01  0.12495252473E+00  0.21676651815E-01 0.  0.
         14    1    1    2    0    0  0.22242959101E-01  0.19461412760E-01 -0.23685947999E-02  0.29649722722E-01  0.00000000000E+00 0. -1.
     999901    1    3    3    0    0  0.47548361195E-01 -0.10497706800E+00  0.56769886351E-01  0.88932775255E+00  0.88000000000E+00 0. -1.
        -11    1    4    4    0    0 -0.20729291408E-01  0.17572267561E-01 -0.22480325469E-01  0.35272003965E-01  0.51100000000E-03 0.  1.
         11    1    4    4    0    0 -0.49062028888E-01  0.67943387679E-01 -0.31920966082E-01  0.89680520764E-01  0.51100000000E-03 0. -1.
</event>
<event>
 8    1  0.1163913E+005  0.1043930E+01  0.7957747E-01            NaN
         13   -1    0    0    0    0  0.00000000000E+00  0.00000000000E+00  0.74505805969E-08  0.10566000000E+00  0.10566000000E+00 0.  1.
     999900   -1    0    0    0    0 -0.00000000000E+00 -0.00000000000E+00 -0.74505805969E-08  0.93827000000E+00  0.93827000000E+00 0.  1.
     999902    2    1    2    0    0  0.16079782717E-01 -0.16093306494E-01  0.91847344531E-02  0.10193960791E+01  0.10191008060E+01 0.  0.
     999903    2    3    3    0    0  0.58429002973E-02  0.48125331214E-01 -0.11684429726E+00  0.12804197215E+00  0.19798228248E-01 0.  0.
         14    1    1    2    0    0 -0.16079782717E-01  0.16093306494E-01 -0.91847344531E-02  0.24533920868E-01  0.00000000000E+00 0. -1.
     999901    1    3    3    0    0  0.10236882420E-01 -0.64218637708E-01  0.12602903172E+00  0.89135410698E+00  0.88000000000E+00 0. -1.
        -11    1    4    4    0    0  0.60751533230E-02  0.47996708204E-01 -0.99016722496E-01  0.11020509943E+00  0.51100000000E-03 0. -1.
         11    1    4    4    0    0 -0.23225302564E-03  0.12862300947E-03 -0.17827574768E-01  0.17836872721E-01  0.51100000000E-03 0.  1.
</event>
<event>
 8    1  0.1163913E+005  0.1043930E+01  0.7957747E-01            NaN
         13   -1    0    0    0    0  0.00000000000E+00  0.00000000000E+00  0.74505805969E-08  0.10566000000E+00  0.10566000000E+00 0.  1.
     999900   -1    0    0    0    0 -0.00000000000E+00 -0.00000000000E+00 -0.74505805969E-08  0.93827000000E+00  0.93827000000E+00 0.  1.
     999902    2    1    2    0    0 -0.12584352807E-01 -0.14538403955E-02 -0.21372749827E-01  0.10190850000E+01  0.10187820980E+01 0.  0.
     999903    2    3    3    0    0  0.10093728640E+00 -0.58922454147E-01 -0.51379802166E-01  0.12942763492E+00  0.21247052073E-01 0.  0.
         14    1    1    2    0    0  0.12584352807E-01  0.14538403955E-02  0.21372749827E-01  0.24844999952E-01  0.00000000000E+00 0.  1.
     999901    1    3    3    0    0 -0.11352163921E+00  0.57468613752E-01  0.30007052340E-01  0.88965736513E+00  0.88000000000E+00 0.  1.
        -11    1    4    4    0    0  0.67039939796E-01 -0.29016373204E-01 -0.37641101623E-01  0.82179176767E-01  0.51100000000E-03 0. -1.
         11    1    4    4    0    0  0.33897346605E-01 -0.29906080944E-01 -0.13738700543E-01  0.47248458153E-01  0.51100000000E-03 0.  1.
</event>
<event>
 8    1  0.1163913E+005  0.1043930E+01  0.7957747E-01            NaN
         13   -1    0    0    0    0  0.00000000000E+00  0.00000000000E+00  0.74505805969E-08  0.10566000000E+00  0.10566000000E+00 0.  1.
     999900   -1    0    0    0    0 -0.00000000000E+00 -0.00000000000E+00 -0.74505805969E-08  0.93827000000E+00  0.93827000000E+00 0. -1.
     999902    2    1    2    0    0  0.98082801109E-02 -0.94340585411E-02 -0.20284362473E-01  0.10195033920E+01  0.10192107275E+01 0.  0.
     999903    2    3    3    0    0  0.45346933855E-01 -0.99036790012E-01  0.67897310371E-01  0.12985871412E+00  0.19713211056E-01 0.  0.
         14    1    1    2    0    0 -0.98082801109E-02  0.94340585411E-02  0.20284362473E-01  0.24426608037E-01  0.00000000000E+00 0.  1.
     999901    1    3    3    0    0 -0.35538653745E-01  0.89602731471E-01 -0.88181672843E-01  0.88964467785E+00  0.88000000000E+00 0.  1.
        -11    1    4    4    0    0  0.27202018839E-01 -0.50429217149E-01  0.24919101638E-01  0.62484226159E-01  0.51100000000E-03 0. -1.
         11    1    4    4    0    0  0.18144915016E-01 -0.48607572862E-01  0.42978208732E-01  0.67374487956E-01  0.51100000000E-03 0.  1.
</event>
<event>
 8    1  0.1163913E+005  0.1043930E+01  0.7957747E-01            NaN
         13   -1    0    0    0    0  0.00000000000E+00  0.00000000000E+00  0.74505805969E-08  0.10566000000E+00  0.10566000000E+00 0. -1.
     999900   -1    0    0    0    0 -0.00000000000E+00 -0.00000000000E+00 -0.74505805969E-08  0.93827000000E+00  0.93827000000E+00 0.  1.
     999902    2    1    2    0    0  0.23338093994E-01  0.27905123520E-03  0.39645329551E-02  0.10202559209E+01  0.10199812165E+01 0.  0.
     999903    2    3    3    0    0 -0.20420554647E-02  0.69476757172E-01 -0.10806471869E+00  0.13009693074E+00  0.20397014105E-01 0.  0.
         14    1    1    2    0    0 -0.23338093994E-01 -0.27905123520E-03 -0.39645329551E-02  0.23674079125E-01  0.00000000000E+00 0.  1.
     999901    1    3    3    0    0  0.25380149459E-01 -0.69197705937E-01  0.11202925165E+00  0.89015899013E+00  0.88000000000E+00 0.  1.
        -11    1    4    4    0    0 -0.37944817548E-02  0.44670885127E-01 -0.51355722459E-01  0.68172996267E-01  0.51100000000E-03 0.  1.
         11    1    4    4    0    0  0.17524262901E-02  0.24805872045E-01 -0.56708996233E-01  0.61923934473E-01  0.51100000000E-03 0. -1.
</event>
<event>
 8    1  0.1163913E+005  0.1043930E+01  0.7957747E-01            NaN
         13   -1    0    0    0    0  0.00000000000E+00  0.00000000000E+00  0.74505805969E-08  0.10566000000E+00  0.10566000000E+00 0. -1.
     999900   -1    0    0    0    0 -0.00000000000E+00 -0.00000000000E+00 -0.74505805969E-08  0.93827000000E+00  0.93827000000E+00 0. -1.
     999902    2    1    2    0    0  0.15321094987E-01  0.19278122852E-01  0.82141348498E-04  0.10193050387E+01  0.10190075432E+01 0.  0.
     999903    2    3    3    0    0  0.70812575790E-01  0.75801877659E-01 -0.78172707808E-01  0.13228865738E+00  0.25079295810E-01 0.  0.
         14    1    1    2    0    0 -0.15321094987E-01 -0.19278122852E-01 -0.82141348498E-04  0.24624961309E-01  0.00000000000E+00 0.  1.
     999901    1    3    3    0    0 -0.55491480803E-01 -0.56523754808E-01  0.78254849157E-01  0.88701638131E+00  0.88000000000E+00 0.  1.
        -11    1    4    4    0    0  0.59701604734E-01  0.48541637847E-01 -0.51764507665E-01  0.92738328578E-01  0.51100000000E-03 0. -1.
         11    1    4    4    0    0  0.11110971056E-01  0.27260239813E-01 -0.26408200144E-01  0.39550328801E-01  0.51100000000E-03 0.  1.
</event>
<event>
 8    1  0.1163913E+005  0.1043930E+01  0.7957747E-01            NaN
         13   -1    0    0    0    0  0.00000000000E+00  0.00000000000E+00  0.74505805969E-08  0.10566000000E+00  0.10566000000E+00 0. -1.
     999900   -1    0    0    0    0 -0.00000000000E+00 -0.00000000000E+00 -0.74505805969E-08  0.93827000000E+00  0.93827000000E+00 0.  1.
     999902    2    1    2    0    0  0.57893458618E-02 -0.10118643833E-01  0.21452124972E-01  0.10195148993E+01  0.10192225138E+01 0.  0.
     999903    2    3    3    0    0  0.14495399299E-01 -0.95452482375E-01  0.89132700054E-01  0.13275770610E+00  0.18938778160E-01 0.  0.
         14    1    1    2    0    0 -0.57893458618E-02  0.10118643833E-01 -0.21452124972E-01  0.24415100744E-01  0.00000000000E+00 0.  1.
     999901    1    3    3    0    0 -0.87060534375E-02  0.85333838542E-01 -0.67680575081E-01  0.88675719315E+00  0.88000000000E+00 0.  1.
        -11    1    4    4    0    0  0.15447262979E-01 -0.51323252576E-01  0.56372080903E-01  0.77786675047E-01  0.51100000000E-03 0.  1.
         11    1    4    4    0    0 -0.95186367963E-03 -0.44129229799E-01  0.32760619151E-01  0.54971031055E-01  0.51100000000E-03 0. -1.
</event>
<event>
 8    1  0.1163913E+005  0.1043930E+01  0.7957747E-01            NaN
         13   -1    0    0    0    0  0.00000000000E+00  0.00000000000E+00  0.74505805969E-08  0.10566000000E+00  0.10566000000E+00 0. -1.
     999900   -1    0    0    0    0 -0.00000000000E+00 -0.00000000000E+00 -0.74505805969E-08  0.93827000000E+00  0.93827000000E+00 0. -1.
     999902    2    1    2    0    0  0.18449459760E-01  0.18238236573E-01 -0.10479195540E-02  0.10179662951E+01  0.10176351330E+01 0.  0.
     999903    2    3    3    0    0  0.95490775067E-01  0.82673314303E-01  0.31310127540E-01  0.13166257358E+00  0.20033576152E-01 0.  0.
         14    1    1    2    0    0 -0.18449459760E-01 -0.18238236573E-01  0.10479195540E-02  0.25963704938E-01  0.00000000000E+00 0.  1.
     999901    1    3    3    0    0 -0.77041315308E-01 -0.64435077730E-01 -0.32358047094E-01  0.88630372149E+00  0.88000000000E+00 0. -1.
        -11    1    4    4    0    0  0.83355164411E-02  0.15877159936E-01  0.65399376782E-02  0.19094421903E-01  0.51100000000E-03 0. -1.
         11    1    4    4    0    0  0.87155258626E-01  0.66796154367E-01  0.24770189862E-01  0.11256815167E+00  0.51100000000E-03 0.  1.
</event>
<event>
 8    1  0.1163913E+005  0.1043930E+01  0.7957747E-01            NaN
         13   -1    0    0    0    0  0.00000000000E+00  0.00000000000E+00  0.74505805969E-08  0.10566000000E+00  0.10566000000E+00 0. -1.
     999900   -1    0    0    0    0 -0.00000000000E+00 -0.00000000000E+00 -0.74505805969E-08  0.93827000000E+00  0.93827000000E+00 0. -1.
     999902    2    1    2    0    0  0.87465112149E-02  0.18218375792E-01 -0.10539778322E-01  0.10211375100E+01  0.10208831063E+01 0.  0.
     999903    2    3    3    0    0  0.22514406995E-01  0.98029527158E-01  0.83582527166E-01  0.13242024152E+00  0.20794104939E-01 0.  0.
         14    1    1    2    0    0 -0.87465112149E-02 -0.18218375792E-01  0.10539778322E-01  0.22792490035E-01  0.00000000000E+00 0.  1.
     999901    1    3    3    0    0 -0.13767895780E-01 -0.79811151367E-01 -0.94122305489E-01  0.88871726844E+00  0.88000000000E+00 0. -1.
        -11    1    4    4    0    0  0.22139880406E-01  0.59067246019E-01  0.58819372833E-01  0.86250180279E-01  0.51100000000E-03 0. -1.
         11    1    4    4    0    0  0.37452658878E-03  0.38962281139E-01  0.24763154334E-01  0.46170061244E-01  0.51100000000E-03 0.  1.
</event>
<event>
 8    1  0.1163913E+005  0.1043930E+01  0.7957747E-01            NaN
         13   -1    0    0    0    0  0.00000000000E+00  0.00000000000E+00  0.74505805969E-08  0.10566000000E+00  0.10566000000E+00 0.  1.
     999900   -1    0    0    0    0 -0.00000000000E+00 -0.00000000000E+00 -0.74505805969E-08  0.93827000000E+00  0.93827000000E+00 0. -1.
     999902    2    1    2    0    0 -0.52032472684E-02 -0.17118618659E-01  0.15463173944E-01  0.10202819423E+01  0.10200078485E+01 0.  0.
     999903    2    3    3    0    0  0.13283457352E-01  0.12520455349E+00  0.19800784730E-01  0.12864498785E+00  0.17459420630E-01 0.  0.
         14    1    1    2    0    0  0.52032472684E-02  0.17118618659E-01 -0.15463173944E-01  0.23648057750E-01  0.00000000000E+00 0. -1.
     999901    1    3    3    0    0 -0.18486704621E-01 -0.14232317215E+00 -0.43376107863E-02  0.89163695440E+00  0.88000000000E+00 0. -1.
        -11    1    4    4    0    0  0.83401923245E-02  0.11009954090E+00  0.12415009713E-01  0.11111193141E+00  0.51100000000E-03 0. -1.
         11    1    4    4    0    0  0.49432650280E-02  0.15105012590E-01  0.73857750171E-02  0.17533056439E-01  0.51100000000E-03 0.  1.
</event>
<event>
 8    1  0.1163913E+005  0.1043930E+01  0.7957747E-01            NaN
         13   -1    0    0    0    0  0.00000000000E+00  0.00000000000E+00  0.74505805969E-08  0.10566000000E+00  0.10566000000E+00 0. -1.
     999900   -1    0    0    0    0 -0.00000000000E+00 -0.00000000000E+00 -0.74505805969E-08  0.93827000000E+00  0.93827000000E+00 0. -1.
     999902    2    1    2    0    0 -0.13970748211E-01 -0.13960772431E-01  0.69707066553E-02  0.10229854130E+01  0.10227709810E+01 0.  0.
     999903    2    3    3    0    0  0.12290736908E+00  0.37435340907E-01 -0.13009840582E-01  0.13069823855E+00  0.20128275773E-01 0.  0.
         14    1    1    2    0    0  0.13970748211E-01  0.13960772431E-01 -0.69707066553E-02  0.20944586979E-01  0.00000000000E+00 0. -1.
     999901    1    3    3    0    0 -0.13687811729E+00 -0.51396113338E-01  0.19980547238E-01  0.89228717447E+00  0.88000000000E+00 0.  1.
        -11    1    4    4    0    0  0.62398141092E-01  0.21030747594E-01 -0.16569654335E-01  0.67901656253E-01  0.51100000000E-03 0.  1.
         11    1    4    4    0    0  0.60509227985E-01  0.16404593313E-01  0.35598137532E-02  0.62796582296E-01  0.51100000000E-03 0. -1.
</event>
<event>
 8    1  0.1163913E+005  0.1043930E+01  0.7957747E-01            NaN
         13   -1    0    0    0    0  0.00000000000E+00  0.00000000000E+00  0.74505805969E-08  0.10566000000E+00  0.10566000000E+00 0. -1.
     999900   -1    0    0    0    0 -0.00000000000E+00 -0.00000000000E+00 -0.74505805969E-08  0.93827000000E+00  0.93827000000E+00 0.  1.
     999902    2    1    2    0    0 -0.18862411796E-01  0.11971171586E-01  0.36198068410E-02  0.10212981081E+01  0.10210473168E+01 0.  0.
     999903    2    3    3    0    0  0.72549989471E-02 -0.12805179833E+00  0.55467987052E-02  0.12984296930E+00  0.19455889537E-01 0.  0.
         14    1    1    2    0    0  0.18862411796E-01 -0.11971171586E-01 -0.36198068410E-02  0.22631891866E-01  0.00000000000E+00 0.  1.
     999901    1    3    3    0    0 -0.26117410743E-01  0.14002296991E+00 -0.19269918642E-02  0.89145513883E+00  0.88000000000E+00 0.  1.
        -11    1    4    4    0    0 -0.59458331260E-02 -0.65478466959E-01  0.40046797842E-02  0.65871702180E-01  0.51100000000E-03 0. -1.
         11    1    4    4    0    0  0.13200832073E-01 -0.62573331367E-01  0.15421189210E-02  0.63971267125E-01  0.51100000000E-03 0.  1.
</event>
<event>
 8    1  0.1163913E+005  0.1043930E+01  0.7957747E-01            NaN
         13   -1    0    0    0    0  0.00000000000E+00  0.00000000000E+00  0.74505805969E-08  0.10566000000E+00  0.10566000000E+00 0.  1.
     999900   -1    0    0    0    0 -0.00000000000E+00 -0.00000000000E+00 -0.74505805969E-08  0.93827000000E+00  0.93827000000E+00 0. -1.
     999902    2    1    2    0    0 -0.12229168426E-01 -0.15091450420E-01  0.14032421841E-01  0.10199672518E+01  0.10196857269E+01 0.  0.
     999903    2    3    3    0    0  0.10997064286E+00  0.61542872754E-01  0.13579440418E-01  0.12822411700E+00  0.19389571952E-01 0.  0.
         14    1    1    2    0    0  0.12229168426E-01  0.15091450420E-01 -0.14032421841E-01  0.23962748150E-01  0.00000000000E+00 0. -1.
     999901    1    3    3    0    0 -0.12219981128E+00 -0.76634323174E-01  0.45298142255E-03  0.89174313485E+00  0.88000000000E+00 0. -1.
        -11    1    4    4    0    0  0.81607327715E-01  0.43057063306E-01  0.15271385263E-02  0.92283584187E-01  0.51100000000E-03 0.  1.
         11    1    4    4    0    0  0.28363315141E-01  0.18485809448E-01  0.12052301892E-01  0.35940532810E-01  0.51100000000E-03 0. -1.
</event>
<event>
 8    1  0.1163913E+005  0.1043930E+01  0.7957747E-01            NaN
         13   -1    0    0    0    0  0.00000000000E+00  0.00000000000E+00  0.74505805969E-08  0.10566000000E+00  0.10566000000E+00 0.  1.
     999900   -1    0    0    0    0 -0.00000000000E+00 -0.00000000000E+00 -0.74505805969E-08  0.93827000000E+00  0.93827000000E+00 0.  1.
     999902    2    1    2    0    0  0.12652261693E-02  0.20472670293E-01  0.97726883040E-02  0.10212091624E+01  0.10209563736E+01 0.  0.
     999903    2    3    3    0    0  0.84913109311E-01  0.74287173401E-01 -0.66267224509E-01  0.13234750978E+00  0.19892160150E-01 0.  0.
         14    1    1    2    0    0 -0.12652261693E-02 -0.20472670293E-01 -0.97726883040E-02  0.22720837636E-01  0.00000000000E+00 0. -1.
     999901    1    3    3    0    0 -0.83647883142E-01 -0.53814503108E-01  0.76039912813E-01  0.88886165259E+00  0.88000000000E+00 0. -1.
        -11    1    4    4    0    0  0.73483154276E-01  0.63466307014E-01 -0.64344415076E-01  0.11648266378E+00  0.51100000000E-03 0.  1.
         11    1    4    4    0    0  0.11429955036E-01  0.10820866387E-01 -0.19228094322E-02  0.15864845999E-01  0.51100000000E-03 0. -1.
</event>
<event>
 8    1  0.1163913E+005  0.1043930E+01  0.7957747E-01            NaN
         13   -1    0    0    0    0  0.00000000000E+00  0.00000000000E+00  0.74505805969E-08  0.10566000000E+00  0.10566000000E+00 0. -1.
     999900   -1    0    0    0    0 -0.00000000000E+00 -0.00000000000E+00 -0.74505805969E-08  0.93827000000E+00  0.93827000000E+00 0.  1.
     999902    2    1    2    0    0  0.23368921863E-01 -0.43185353152E-02 -0.14460835701E-04  0.10201653947E+01  0.10198885606E+01 0.  0.
     999903    2    3    3    0    0  0.20683167776E-01 -0.12817877114E+00 -0.53291021665E-02  0.13147151224E+00  0.19969186323E-01 0.  0.
         14    1    1    2    0    0 -0.23368921863E-01  0.43185353152E-02  0.14460835701E-04  0.23764605307E-01  0.00000000000E+00 0. -1.
     999901    1    3    3    0    0  0.26857540868E-02  0.12386023582E+00  0.53146413308E-02  0.88869388245E+00  0.88000000000E+00 0.  1.
        -11    1    4    4    0    0 -0.14687032381E-03 -0.12025646707E-01 -0.60276926754E-02  0.13462241627E-01  0.51100000000E-03 0.  1.
         11    1    4    4    0    0  0.20830038100E-01 -0.11615312443E+00  0.69859050890E-03  0.11800927062E+00  0.51100000000E-03 0. -1.
</event>
<event>
 8    1  0.1163913E+005  0.1043930E+01  0.7957747E-01            NaN
         13   -1    0    0    0    0  0.00000000000E+00  0.00000000000E+00  0.74505805969E-08  0.10566000000E+00  0.10566000000E+00 0.  1.
     999900   -1    0    0    0    0 -0.00000000000E+00 -0.00000000000E+00 -0.74505805969E-08  0.93827000000E+00  0.93827000000E+00 0. -1.
     999902    2    1    2    0    0  0.15328316324E-01  0.16976326259E-01  0.14105528784E-01  0.10170577303E+01  0.10167026645E+01 0.  0.
     999903    2    3    3    0    0  0.74987055788E-01  0.10441608446E+00 -0.33636069638E-02  0.13054205241E+00  0.22452981230E-01 0.  0.
         14    1    1    2    0    0 -0.15328316324E-01 -0.16976326259E-01 -0.14105528784E-01  0.26872269663E-01  0.00000000000E+00 0.  1.
     999901    1    3    3    0    0 -0.59658739464E-01 -0.87439758199E-01  0.17469135747E-01  0.88651567793E+00  0.88000000000E+00 0. -1.
        -11    1    4    4    0    0  0.44506277712E-01  0.75641891454E-01 -0.90806868039E-02  0.88233919171E-01  0.51100000000E-03 0.  1.
         11    1    4    4    0    0  0.30480778077E-01  0.28774193003E-01  0.57170798402E-02  0.42308133238E-01  0.51100000000E-03 0. -1.
</event>
<event>
 8    1  0.1163913E+005  0.1043930E+01  0.7957747E-01            NaN
         13   -1    0    0    0    0  0.00000000000E+00  0.00000000000E+00  0.74505805969E-08  0.10566000000E+00  0.10566000000E+00 0.  1.
     999900   -1    0    0    0    0 -0.00000000000E+00 -0.00000000000E+00 -0.74505805969E-08  0.93827000000E+00  0.93827000000E+00 0.  1.
     999902    2    1    2    0    0 -0.72975577563E-02  0.71299723160E-03 -0.20791914729E-01  0.10218830857E+01  0.10216452292E+01 0.  0.
     999903    2    3    3    0    0 -0.80541073582E-01  0.96312435133E-01 -0.40363052355E-01  0.13346488763E+00  0.20512204682E-01 0.  0.
         14    1    1    2    0    0  0.72975577563E-02 -0.71299723160E-03  0.20791914729E-01  0.22046914350E-01  0.00000000000E+00 0.  1.
     999901    1    3    3    0    0  0.73243515825E-01 -0.95599437902E-01  0.19571137626E-01  0.88841819802E+00  0.88000000000E+00 0. -1.
        -11    1    4    4    0    0 -0.22552263438E-01  0.42436571064E-01 -0.15355693846E-01  0.50453202122E-01  0.51100000000E-03 0.  1.
         11    1    4    4    0    0 -0.57988810144E-01  0.53875864069E-01 -0.25007358509E-01  0.83011685513E-01  0.51100000000E-03 0. -1.
</event>
<event>
 8    1  0.1163913E+005  0.1043930E+01  0.7957747E-01            NaN
         13   -1    0    0    0    0  0.00000000000E+00  0.00000000000E+00  0.74505805969E-08  0.10566000000E+00  0.10566000000E+00 0. -1.
     999900   -1    0    0    0    0 -0.00000000000E+00 -0.00000000000E+00 -0.74505805969E-08  0.93827000000E+00  0.93827000000E+00 0.  1.
     999902    2    1    2    0    0 -0.12153345148E-01  0.98474904507E-02 -0.18333900124E-01  0.10198300257E+01  0.10195452283E+01 0.  0.
     999903    2    3    3    0    0  0.12556377985E+00  0.66568630317E-02  0.16807109992E-01  0.12842042446E+00  0.19968721506E-01 0.  0.
         14    1    1    2    0    0  0.12153345148E-01 -0.98474904507E-02  0.18333900124E-01  0.24099974279E-01  0.00000000000E+00 0. -1.
     999901    1    3    3    0    0 -0.13771712500E+00  0.31906274190E-02 -0.35141010116E-01  0.89140960126E+00  0.88000000000E+00 0. -1.
        -11    1    4    4    0    0  0.38775963187E-01 -0.36191754113E-02  0.12555255168E-01  0.40921501745E-01  0.51100000000E-03 0. -1.
         11    1    4    4    0    0  0.86787816660E-01  0.10276038443E-01  0.42518548240E-02  0.87498922720E-01  0.51100000000E-03 0.  1.
</event>
<event>
 8    1  0.1163913E+005  0.1043930E+01  0.7957747E-01            NaN
         13   -1    0    0    0    0  0.00000000000E+00  0.00000000000E+00  0.74505805969E-08  0.10566000000E+00  0.10566000000E+00 0.  1.
     999900   -1    0    0    0    0 -0.00000000000E+00 -0.00000000000E+00 -0.74505805969E-08  0.93827000000E+00  0.93827000000E+00 0.  1.
     999902    2    1    2    0    0  0.23096532550E-04 -0.20630508857E-01 -0.13293252556E-01  0.10193876083E+01  0.10190921287E+01 0.  0.
     999903    2    3    3    0    0  0.41664955232E-01 -0.12391116337E+00  0.64117226801E-03  0.13226016184E+00  0.20059770822E-01 0.  0.
         14    1    1    2    0    0 -0.23096532550E-04  0.20630508857E-01  0.13293252556E-01  0.24542391747E-01  0.00000000000E+00 0.  1.
     999901    1    3    3    0    0 -0.41641858700E-01  0.10328065451E+00 -0.13934424824E-01  0.88712744642E+00  0.88000000000E+00 0. -1.
        -11    1    4    4    0    0  0.36513355304E-01 -0.10489510832E+00  0.76748378435E-02  0.11133451003E+00  0.51100000000E-03 0. -1.
         11    1    4    4    0    0  0.51515999285E-02 -0.19016055042E-01 -0.70336655755E-02  0.20925651808E-01  0.51100000000E-03 0.  1.
</event>
<event>
 8    1  0.1163913E+005  0.1043930E+01  0.7957747E-01            NaN
         13   -1    0    0    0    0  0.00000000000E+00  0.00000000000E+00  0.74505805969E-08  0.10566000000E+00  0.10566000000E+00 0. -1.
     999900   -1    0    0    0    0 -0.00000000000E+00 -0.00000000000E+00 -0.74505805969E-08  0.93827000000E+00  0.93827000000E+00 0. -1.
     999902    2    1    2    0    0 -0.96105842559E-02 -0.16871443820E-01 -0.13270852101E-01  0.10204114018E+01  0.10201403357E+01 0.  0.
     999903    2    3    3    0    0 -0.29779152693E-01  0.10966958776E+00  0.56379196379E-01  0.12840773976E+00  0.19892647619E-01 0.  0.
         14    1    1    2    0    0  0.96105842559E-02  0.16871443820E-01  0.13270852101E-01  0.23518598211E-01  0.00000000000E+00 0. -1.
     999901    1    3    3    0    0  0.20168568437E-01 -0.12654103158E+00 -0.69650048480E-01  0.89200366203E+00  0.88000000000E+00 0. -1.
        -11    1    4    4    0    0 -0.63506352841E-02  0.36193979024E-01  0.28107609888E-01  0.46266981107E-01  0.51100000000E-03 0. -1.
         11    1    4    4    0    0 -0.23428517409E-01  0.73475608741E-01  0.28271586492E-01  0.82140758650E-01  0.51100000000E-03 0.  1.
</event>
<event>
 8    1  0.1163913E+005  0.1043930E+01  0.7957747E-01            NaN
         13   -1    0    0    0    0  0.00000000000E+00  0.00000000000E+00  0.74505805969E-08  0.10566000000E+00  0.10566000000E+00 0. -1.
     999900   -1    0    0    0    0 -0.00000000000E+00 -0.00000000000E+00 -0.74505805969E-08  0.93827000000E+00  0.93827000000E+00 0. -1.
     999902    2    1    2    0    0  0.19624604311E-01 -0.27295690683E-02  0.12448284514E-01  0.10205305250E+01  0.10202622296E+01 0.  0.
     999903    2    3    3    0    0  0.70390763718E-01  0.71455002125E-01  0.84998274694E-01  0.13298105901E+00  0.19964428629E-01 0.  0.
         14    1    1    2    0    0 -0.19624604311E-01  0.27295690683E-02 -0.12448284514E-01  0.23399474973E-01  0.00000000000E+00 0. -1.
     999901    1    3    3    0    0 -0.50766159407E-01 -0.74184571193E-01 -0.72549990180E-01  0.88754946601E+00  0.88000000000E+00 0. -1.
        -11    1    4    4    0    0  0.19559332020E-01  0.33225327144E-01  0.29153175342E-01  0.48338996539E-01  0.51100000000E-03 0.  1.
         11    1    4    4    0    0  0.50831431698E-01  0.38229674980E-01  0.55845099351E-01  0.84642062476E-01  0.51100000000E-03 0. -1.
</event>
<event>
 8    1  0.1163913E+005  0.1043930E+01  0.7957747E-01            NaN
         13   -1    0    0    0    0  0.00000000000E+00  0.00000000000E+00  0.74505805969E-08  0.10566000000E+00  0.10566000000E+00 0. -1.
     999900   -1    0    0    0    0 -0.00000000000E+00 -0.00000000000E+00 -0.74505805969E-08  0.93827000000E+00  0.93827000000E+00 0. -1.
     999902    2    1    2    0    0 -0.97578209682E-02 -0.20311530990E-01  0.69229878229E-02  0.10203566862E+01  0.10200843426E+01 0.  0.
     999903    2    3    3    0    0  0.19842219403E-03  0.68122666420E-01  0.10897213886E+00  0.13000071065E+00  0.19609198565E-01 0.  0.
         14    1    1    2    0    0  0.97578209682E-02  0.20311530990E-01 -0.69229878229E-02  0.23573313760E-01  0.00000000000E+00 0. -1.
     999901    1    3    3    0    0 -0.99562431623E-02 -0.88434197410E-01 -0.10204915104E+00  0.89035597559E+00  0.88000000000E+00 0. -1.
        -11    1    4    4    0    0 -0.54404182081E-02  0.43271606685E-01  0.82084184388E-01  0.92952162659E-01  0.51100000000E-03 0. -1.
         11    1    4    4    0    0  0.56388404021E-02  0.24851059735E-01  0.26887954475E-01  0.37048547986E-01  0.51100000000E-03 0.  1.
</event>
<event>
 8    1  0.1163913E+005  0.1043930E+01  0.7957747E-01            NaN
         13   -1    0    0    0    0  0.00000000000E+00  0.00000000000E+00  0.74505805969E-08  0.10566000000E+00  0.10566000000E+00 0. -1.
     999900   -1    0    0    0    0 -0.00000000000E+00 -0.00000000000E+00 -0.74505805969E-08  0.93827000000E+00  0.93827000000E+00 0.  1.
     999902    2    1    2    0    0  0.54258194409E-02 -0.16024886244E-01 -0.15525880042E-01  0.10209672160E+01  0.10207089530E+01 0.  0.
     999903    2    3    3    0    0  0.10074604786E+00 -0.51535351255E-01  0.63974844504E-01  0.13154757141E+00  0.20157485606E-01 0.  0.
         14    1    1    2    0    0 -0.54258194409E-02  0.16024886244E-01  0.15525880042E-01  0.22962783952E-01  0.00000000000E+00 0.  1.
     999901    1    3    3    0    0 -0.95320228416E-01  0.35510465011E-01 -0.79500724546E-01  0.88941964464E+00  0.88000000000E+00 0.  1.
        -11    1    4    4    0    0  0.46114762354E-01 -0.14831676934E-01  0.34251106118E-01  0.59329160949E-01  0.51100000000E-03 0. -1.
         11    1    4    4    0    0  0.54631285503E-01 -0.36703674321E-01  0.29723738386E-01  0.72218410458E-01  0.51100000000E-03 0.  1.
</event>
<event>
 8    1  0.1163913E+005  0.1043930E+01  0.7957747E-01            NaN
         13   -1    0    0    0    0  0.00000000000E+00  0.00000000000E+00  0.74505805969E-08  0.10566000000E+00  0.10566000000E+00 0.  1.
     999900   -1    0    0    0    0 -0.00000000000E+00 -0.00000000000E+00 -0.74505805969E-08  0.93827000000E+00  0.93827000000E+00 0. -1.
     999902    2    1    2    0    0  0.39317959712E-02 -0.13396794955E-01 -0.19017511429E-01  0.10203376522E+01  0.10200648634E+01 0.  0.
     999903    2    3    3    0    0  0.10965211817E+00 -0.43485206339E-02  0.66351633653E-01  0.12986219001E+00  0.20473213143E-01 0.  0.
         14    1    1    2    0    0 -0.39317959712E-02  0.13396794955E-01  0.19017511429E-01  0.23592347818E-01  0.00000000000E+00 0.  1.
     999901    1    3    3    0    0 -0.10572032220E+00 -0.90482743210E-02 -0.85369145082E-01  0.89047546217E+00  0.88000000000E+00 0. -1.
        -11    1    4    4    0    0  0.46014212796E-01 -0.40766270808E-02  0.16623745907E-01  0.49097216994E-01  0.51100000000E-03 0. -1.
         11    1    4    4    0    0  0.63637905371E-01 -0.27189355317E-03  0.49727887746E-01  0.80764973019E-01  0.51100000000E-03 0.  1.
</event>
<event>
 8    1  0.1163913E+005  0.1043930E+01  0.7957747E-01            NaN
         13   -1    0    0    0    0  0.00000000000E+00  0.00000000000E+00  0.74505805969E-08  0.10566000000E+00  0.10566000000E+00 0.  1.
     999900   -1    0    0    0    0 -0.00000000000E+00 -0.00000000000E+00 -0.74505805969E-08  0.93827000000E+00  0.93827000000E+00 0.  1.
     999902    2    1    2    0    0  0.18804858055E-01 -0.73912327971E-02  0.51459125943E-02  0.10230797380E+01  0.10228672528E+01 0.  0.
     999903    2    3    3    0    0 -0.91735601007E-01 -0.56825513181E-01 -0.72261879199E-01  0.13142122299E+00  0.20129561031E-01 0.  0.
         14    1    1    2    0    0 -0.18804858055E-01  0.73912327971E-02 -0.51459125943E-02  0.20850261993E-01  0.00000000000E+00 0.  1.
     999901    1    3    3    0    0  0.11054045906E+00  0.49434280384E-01  0.77407791793E-01  0.89165851501E+00  0.88000000000E+00 0. -1.
        -11    1    4    4    0    0 -0.59842828381E-01 -0.32616371404E-01 -0.55961738238E-01  0.88187125250E-01  0.51100000000E-03 0. -1.
         11    1    4    4    0    0 -0.31892772626E-01 -0.24209141777E-01 -0.16300140961E-01  0.43234097743E-01  0.51100000000E-03 0.  1.
</event>
<event>
 8    1  0.1163913E+005  0.1043930E+01  0.7957747E-01            NaN
         13   -1    0    0    0    0  0.00000000000E+00  0.00000000000E+00  0.74505805969E-08  0.10566000000E+00  0.10566000000E+00 0. -1.
     999900   -1    0    0    0    0 -0.00000000000E+00 -0.00000000000E+00 -0.74505805969E-08  0.93827000000E+00  0.93827000000E+00 0.  1.
     999902    2    1    2    0    0  0.14495137577E-01 -0.18297363944E-01 -0.11355926147E-02  0.10205592467E+01  0.10202916171E+01 0.  0.
     999903    2    3    3    0    0 -0.26344180613E-01  0.13248924802E-01  0.12519800174E+00  0.13004074865E+00  0.19144367576E-01 0.  0.
         14    1    1    2    0    0 -0.14495137577E-01  0.18297363944E-01  0.11355926147E-02  0.23370753331E-01  0.00000000000E+00 0. -1.
     999901    1    3    3    0    0  0.40839318190E-01 -0.31546288746E-01 -0.12633359436E+00  0.89051849801E+00  0.88000000000E+00 0.  1.
        -11    1    4    4    0    0 -0.23484485656E-01  0.70299686944E-02  0.65315856312E-01  0.69766494345E-01  0.51100000000E-03 0.  1.
         11    1    4    4    0    0 -0.28596949564E-02  0.62189561074E-02  0.59882145429E-01  0.60274254309E-01  0.51100000000E-03 0. -1.
</event>
<event>
 8    1  0.1163913E+005  0.1043930E+01  0.7957747E-01            NaN
         13   -1    0    0    0    0  0.00000000000E+00  0.00000000000E+00  0.74505805969E-08  0.10566000000E+00  0.10566000000E+00 0. -1.
     999900   -1    0    0    0    0 -0.00000000000E+00 -0.00000000000E+00 -0.74505805969E-08  0.93827000000E+00  0.93827000000E+00 0. -1.
     999902    2    1    2    0    0 -0.86506764575E-02  0.23371389082E-01 -0.46658522646E-02  0.10185759824E+01  0.10182603821E+01 0.  0.
     999903    2    3    3    0    0 -0.76866437813E-01  0.11302621300E-01 -0.10284491841E+00  0.13041035918E+00  0.19839002684E-01 0.  0.
         14    1    1    2    0    0  0.86506764575E-02 -0.23371389082E-01  0.46658522646E-02  0.25354017594E-01  0.00000000000E+00 0. -1.
     999901    1    3    3    0    0  0.68215761355E-01  0.12068767783E-01  0.98179066148E-01  0.88816562323E+00  0.88000000000E+00 0.  1.
        -11    1    4    4    0    0 -0.14684938097E-01  0.26946539050E-02 -0.34579463161E-01  0.37668407985E-01  0.51100000000E-03 0.  1.
         11    1    4    4    0    0 -0.62181499715E-01  0.86079673948E-02 -0.68265455251E-01  0.92741951194E-01  0.51100000000E-03 0. -1.
</event>
<event>
 8    1  0.1163913E+005  0.1043930E+01  0.7957747E-01            NaN
         13   -1    0    0    0    0  0.00000000000E+00  0.00000000000E+00  0.74505805969E-08  0.10566000000E+00  0.10566000000E+00 0.  1.
     999900   -1    0    0    0    0 -0.00000000000E+00 -0.00000000000E+00 -0.74505805969E-08  0.93827000000E+00  0.93827000000E+00 0.  1.
     999902    2    1    2    0    0 -0.14436281271E-01  0.13739743625E-01 -0.12873337979E-01  0.10202042839E+01  0.10199283658E+01 0.  0.
     999903    2    3    3    0    0  0.42479837551E-01  0.22160355549E-01  0.11778554296E+00  0.12869876267E+00  0.19857477863E-01 0.  0.
         14    1    1    2    0    0  0.14436281271E-01 -0.13739743625E-01  0.12873337979E-01  0.23725716060E-01  0.00000000000E+00 0. -1.
     999901    1    3    3    0    0 -0.56916118822E-01 -0.84206119241E-02 -0.13065888094E+00  0.89150552127E+00  0.88000000000E+00 0.  1.
        -11    1    4    4    0    0  0.87265488111E-02  0.12674495370E-01  0.23406529253E-01  0.28016463369E-01  0.51100000000E-03 0.  1.
         11    1    4    4    0    0  0.33753288740E-01  0.94858601795E-02  0.94379013703E-01  0.10068229930E+00  0.51100000000E-03 0. -1.
</event>
<event>
 8    1  0.1163913E+005  0.1043930E+01  0.7957747E-01            NaN
         13   -1    0    0    0    0  0.00000000000E+00  0.00000000000E+00  0.74505805969E-08  0.10566000000E+00  0.10566000000E+00 0.  1.
     999900   -1    0    0    0    0 -0.00000000000E+00 -0.00000000000E+00 -0.74505805969E-08  0.93827000000E+00  0.93827000000E+00 0. -1.
     999902    2    1    2    0    0 -0.55388223295E-02  0.17625665022E-01  0.76001614466E-02  0.10239523857E+01  0.10237574825E+01 0.  0.
     999903    2    3    3    0    0  0.51479470528E-01 -0.20027065239E-01 -0.11871992136E+00  0.13231031783E+00  0.18983710129E-01 0.  0.
         14    1    1    2    0    0  0.55388223295E-02 -0.17625665022E-01 -0.76001614466E-02  0.19977614329E-01  0.00000000000E+00 0.  1.
     999901    1    3    3    0    0 -0.57018292857E-01  0.37652730260E-01  0.12632008280E+00  0.89164206784E+00  0.88000000000E+00 0.  1.
        -11    1    4    4    0    0  0.37711522667E-01 -0.50424442028E-02 -0.76748815389E-01  0.85663451775E-01  0.51100000000E-03 0.  1.
         11    1    4    4    0    0  0.13767947861E-01 -0.14984621036E-01 -0.41971105969E-01  0.46646866059E-01  0.51100000000E-03 0. -1.
</event>
<event>
 8    1  0.1163913E+005  0.1043930E+01  0.7957747E-01            NaN
         13   -1    0    0    0    0  0.00000000000E+00  0.00000000000E+00  0.74505805969E-08  0.10566000000E+00  0.10566000000E+00 0.  1.
     999900   -1    0    0    0    0 -0.00000000000E+00 -0.00000000000E+00 -0.74505805969E-08  0.93827000000E+00  0.93827000000E+00 0.  1.
     999902    2    1    2    0    0  0.24906888840E-01 -0.27078186269E-02 -0.23822531455E-02  0.10187633450E+01  0.10184524499E+01 0.  0.
     999903    2    3    3    0    0 -0.61726407846E-01  0.90528720066E-01  0.61152684478E-01  0.12734028689E+00  0.21686384313E-01 0.  0.
         14    1    1    2    0    0 -0.24906888840E-01  0.27078186269E-02  0.23822531455E-02  0.25166654992E-01  0.00000000000E+00 0.  1.
     999901    1    3    3    0    0  0.86633296686E-01 -0.93236538693E-01 -0.63534937623E-01  0.89142305812E+00  0.88000000000E+00 0.  1.
        -11    1    4    4    0    0 -0.26393844039E-01  0.57408329880E-01  0.32270989676E-01  0.70950893148E-01  0.51100000000E-03 0.  1.
         11    1    4    4    0    0 -0.35332563807E-01  0.33120390186E-01  0.28881694802E-01  0.56389393744E-01  0.51100000000E-03 0. -1.
</event>
<event>
 8    1  0.1163913E+005  0.1043930E+01  0.7957747E-01            NaN
         13   -1    0    0    0    0  0.00000000000E+00  0.00000000000E+00  0.74505805969E-08  0.10566000000E+00  0.10566000000E+00 0.  1.
     999900   -1    0    0    0    0 -0.00000000000E+00 -0.00000000000E+00 -0.74505805969E-08  0.93827000000E+00  0.93827000000E+00 0. -1.
     999902    2    1    2    0    0  0.21803232182E-01  0.54644415477E-02 -0.61465904451E-02  0.10206271755E+01  0.10203611173E+01 0.  0.
     999903    2    3    3    0    0 -0.85134943624E-01 -0.77358903498E-01  0.52480706494E-01  0.12836452367E+00  0.22155536696E-01 0.  0.
         14    1    1    2    0    0 -0.21803232182E-01 -0.54644415477E-02  0.61465904451E-02  0.23302824488E-01  0.00000000000E+00 0.  1.
     999901    1    3    3    0    0  0.10693817581E+00  0.82823345045E-01 -0.58627296939E-01  0.89226265184E+00  0.88000000000E+00 0.  1.
        -11    1    4    4    0    0 -0.29315148391E-01 -0.32956772504E-01  0.30851596284E-01  0.53829442625E-01  0.51100000000E-03 0.  1.
         11    1    4    4    0    0 -0.55819795233E-01 -0.44402130994E-01  0.21629110210E-01  0.74535081043E-01  0.51100000000E-03 0. -1.
</event>
<event>
 8    1  0.1163913E+005  0.1043930E+01  0.7957747E-01            NaN
         13   -1    0    0    0    0  0.00000000000E+00  0.00000000000E+00  0.74505805969E-08  0.10566000000E+00  0.10566000000E+00 0.  1.
     999900   -1    0    0    0    0 -0.00000000000E+00 -0.00000000000E+00 -0.74505805969E-08  0.93827000000E+00  0.93827000000E+00 0. -1.
     999902    2    1    2    0    0  0.14182845194E-01  0.11471696520E-01  0.13245834673E-01  0.10213865962E+01  0.10211377840E+01 0.  0.
     999903    2    3    3    0    0 -0.91681784326E-01  0.84794306391E-01  0.36626039010E-01  0.13170678927E+00  0.20238271477E-01 0.  0.
         14    1    1    2    0    0 -0.14182845194E-01 -0.11471696520E-01 -0.13245834673E-01  0.22543403803E-01  0.00000000000E+00 0.  1.
     999901    1    3    3    0    0  0.10586462952E+00 -0.73322609871E-01 -0.23380204337E-01  0.88967980693E+00  0.88000000000E+00 0.  1.
        -11    1    4    4    0    0 -0.10356833380E-01  0.15722897052E-01 -0.18566304467E-03  0.18835314734E-01  0.51100000000E-03 0.  1.
         11    1    4    4    0    0 -0.81324950946E-01  0.69071409339E-01  0.36811702055E-01  0.11287147453E+00  0.51100000000E-03 0. -1.
</event>
<event>
 8    1  0.1163913E+005  0.1043930E+01  0.7957747E-01            NaN
         13   -1    0    0    0    0  0.00000000000E+00  0.00000000000E+00  0.74505805969E-08  0.10566000000E+00  0.10566000000E+00 0.  1.
     999900   -1    0    0    0    0 -0.00000000000E+00 -0.00000000000E+00 -0.74505805969E-08  0.93827000000E+00  0.93827000000E+00 0. -1.
     999902    2    1    2    0    0 -0.40242813138E-02 -0.14057209386E-01  0.18461059857E-01  0.10203798258E+01  0.10201080228E+01 0.  0.
     999903    2    3    3    0    0 -0.54598322179E-01  0.75915866952E-01 -0.85420383940E-01  0.12827879872E+00  0.20362037443E-01 0.  0.
         14    1    1    2    0    0  0.40242813138E-02  0.14057209386E-01 -0.18461059857E-01  0.23550174243E-01  0.00000000000E+00 0. -1.
     999901    1    3    3    0    0  0.50574040865E-01 -0.89973076338E-01  0.10388144380E+00  0.89210102704E+00  0.88000000000E+00 0.  1.
        -11    1    4    4    0    0 -0.15957578274E-01  0.10138252416E-01 -0.22476224246E-01  0.29374653083E-01  0.51100000000E-03 0. -1.
         11    1    4    4    0    0 -0.38640743905E-01  0.65777614536E-01 -0.62944159694E-01  0.98904145637E-01  0.51100000000E-03 0.  1.
</event>
<event>
 8    1  0.1163913E+005  0.1043930E+01  0.7957747E-01            NaN
         13   -1    0    0    0    0  0.00000000000E+00  0.00000000000E+00  0.74505805969E-08  0.10566000000E+00  0.10566000000E+00 0.  1.
     999900   -1    0    0    0    0 -0.00000000000E+00 -0.00000000000E+00 -0.74505805969E-08  0.93827000000E+00  0.93827000000E+00 0. -1.
     999902    2    1    2    0    0 -0.39501798589E-02 -0.33030071582E-02  0.19827215776E-01  0.10234450723E+01  0.10232400421E+01 0.  0.
     999903    2    3    3    0    0  0.96980347197E-01 -0.16109693431E-01 -0.85237254815E-01  0.13137471326E+00  0.18144302450E-01 0.  0.
         14    1    1    2    0    0  0.39501798589E-02  0.33030071582E-02 -0.19827215776E-01  0.20484927694E-01  0.00000000000E+00 0. -1.
     999901    1    3    3    0    0 -0.10093052706E+00  0.12806686273E-01  0.10506447059E+00  0.89207035904E+00  0.88000000000E+00 0.  1.
        -11    1    4    4    0    0  0.52304578103E-01 -0.17541686017E-01 -0.44187022075E-01  0.70684041195E-01  0.51100000000E-03 0.  1.
         11    1    4    4    0    0  0.44675769094E-01  0.14319925859E-02 -0.41050232740E-01  0.60690672067E-01  0.51100000000E-03 0. -1.
</event>
<event>
 8    1  0.1163913E+005  0.1043930E+01  0.7957747E-01            NaN
         13   -1    0    0    0    0  0.00000000000E+00  0.00000000000E+00  0.74505805969E-08  0.10566000000E+00  0.10566000000E+00 0.  1.
     999900   -1    0    0    0    0 -0.00000000000E+00 -0.00000000000E+00 -0.74505805969E-08  0.93827000000E+00  0.93827000000E+00 0.  1.
     999902    2    1    2    0    0 -0.24887090893E-01  0.46993945944E-02 -0.11519807312E-01  0.10161063129E+01  0.10157252983E+01 0.  0.
     999903    2    3    3    0    0 -0.97267858390E-01 -0.74217637331E-01  0.33557718996E-01  0.12846964354E+00  0.20224609782E-01 0.  0.
         14    1    1    2    0    0  0.24887090893E-01 -0.46993945944E-02  0.11519807312E-01  0.27823687088E-01  0.00000000000E+00 0.  1.
     999901    1    3    3    0    0  0.72380767497E-01  0.78917031925E-01 -0.45077526308E-01  0.88763666937E+00  0.88000000000E+00 0. -1.
        -11    1    4    4    0    0 -0.46438177562E-01 -0.42541361456E-01  0.85249988037E-02  0.63554767684E-01  0.51100000000E-03 0. -1.
         11    1    4    4    0    0 -0.50829680829E-01 -0.31676275875E-01  0.25032720193E-01  0.64914875858E-01  0.51100000000E-03 0.  1.
</event>
<event>
 8    1  0.1163913E+005  0.1043930E+01  0.7957747E-01            NaN
         13   -1    0    0    0    0  0.00000000000E+00  0.00000000000E+00  0.74505805969E-08  0.10566000000E+00  0.10566000000E+00 0. -1.
     999900   -1    0    0    0    0 -0.00000000000E+00 -0.00000000000E+00 -0.74505805969E-08  0.93827000000E+00  0.93827000000E+00 0.  1.
     999902    2    1    2    0    0 -0.18818309637E-01  0.74835822723E-02  0.11198523021E-01  0.10207882693E+01  0.10205259189E+01 0.  0.
     999903    2    3    3    0    0 -0.11490841345E+00 -0.28262611764E-01 -0.55787987534E-01  0.13230737980E+00  0.19754100587E-01 0.  0.
         14    1    1    2    0    0  0.18818309637E-01 -0.74835822723E-02 -0.11198523021E-01  0.23141730685E-01  0.00000000000E+00 0. -1.
     999901    1    3    3    0    0  0.96090103816E-01  0.35746194036E-01  0.66986510555E-01  0.88848088952E+00  0.88000000000E+00 0.  1.
        -11    1    4    4    0    0 -0.73934672800E-01 -0.14334578998E-01 -0.44891681057E-01  0.87677477987E-01  0.51100000000E-03 0. -1.
         11    1    4    4    0    0 -0.40973740653E-01 -0.13928032766E-01 -0.10896306478E-01  0.44629901812E-01  0.51100000000E-03 0.  1.
</event>
<event>
 8    1  0.1163913E+005  0.1043930E+01  0.7957747E-01            NaN
         13   -1    0    0    0    0  0.00000000000E+00  0.00000000000E+00  0.74505805969E-08  0.10566000000E+00  0.10566000000E+00 0. -1.
     999900   -1    0    0    0    0 -0.00000000000E+00 -0.00000000000E+00 -0.74505805969E-08  0.93827000000E+00  0.93827000000E+00 0. -1.
     999902    2    1    2    0    0  0.66194029644E-02 -0.22251388611E-01 -0.20342370946E-02  0.10206259465E+01  0.10203598599E+01 0.  0.
     999903    2    3    3    0    0 -0.11217321086E+00  0.59839000873E-01  0.62111982220E-02  0.12881963097E+00  0.19808661775E-01 0.  0.
         14    1    1    2    0    0 -0.66194029644E-02  0.22251388611E-01  0.20342370946E-02  0.23304053538E-01  0.00000000000E+00 0. -1.
     999901    1    3    3    0    0  0.11879261382E+00 -0.82090389484E-01 -0.82454353166E-02  0.89180631549E+00  0.88000000000E+00 0. -1.
        -11    1    4    4    0    0 -0.30673531131E-01  0.24972640356E-01  0.69915201043E-02  0.40170147532E-01  0.51100000000E-03 0. -1.
         11    1    4    4    0    0 -0.81499679726E-01  0.34866360517E-01 -0.78032188226E-03  0.88649483441E-01  0.51100000000E-03 0.  1.
</event>
<event>
 8    1  0.1163913E+005  0.1043930E+01  0.7957747E-01            NaN
         13   -1    0    0    0    0  0.00000000000E+00  0.00000000000E+00  0.74505805969E-08  0.10566000000E+00  0.10566000000E+00 0.  1.
     999900   -1    0    0    0    0 -0.00000000000E+00 -0.00000000000E+00 -0.74505805969E-08  0.93827000000E+00  0.93827000000E+00 0. -1.
     999902    2    1    2    0    0  0.13338021072E-01  0.15652489378E-01  0.11632669875E-01  0.10203032728E+01  0.10200296791E+01 0.  0.
     999903    2    3    3    0    0  0.54068563871E-01 -0.98946997329E-01  0.62512762681E-01  0.13048261485E+00  0.20098492491E-01 0.  0.
         14    1    1    2    0    0 -0.13338021072E-01 -0.15652489378E-01 -0.11632669875E-01  0.23626727201E-01  0.00000000000E+00 0. -1.
     999901    1    3    3    0    0 -0.40730542799E-01  0.11459948671E+00 -0.50880092806E-01  0.88982065795E+00  0.88000000000E+00 0. -1.
        -11    1    4    4    0    0  0.41775049341E-01 -0.59384225492E-01  0.45548956485E-01  0.85712365168E-01  0.51100000000E-03 0. -1.
         11    1    4    4    0    0  0.12293514530E-01 -0.39562771836E-01  0.16963806195E-01  0.44770249681E-01  0.51100000000E-03 0.  1.
</event>
<event>
 8    1  0.1163913E+005  0.1043930E+01  0.7957747E-01            NaN
         13   -1    0    0    0    0  0.00000000000E+00  0.00000000000E+00  0.74505805969E-08  0.10566000000E+00  0.10566000000E+00 0. -1.
     999900   -1    0    0    0    0 -0.00000000000E+00 -0.00000000000E+00 -0.74505805969E-08  0.93827000000E+00  0.93827000000E+00 0. -1.
     999902    2    1    2    0    0 -0.21173842061E-01  0.88853975503E-02 -0.18320226653E-02  0.10208944148E+01  0.10206344929E+01 0.  0.
     999903    2    3    3    0    0  0.66615086984E-01  0.44263491680E-01 -0.10079058693E+00  0.13030399098E+00  0.20580601117E-01 0.  0.
         14    1    1    2    0    0  0.21173842061E-01 -0.88853975503E-02  0.18320226653E-02  0.23035585174E-01  0.00000000000E+00 0.  1.
     999901    1    3    3    0    0 -0.87788929045E-01 -0.35378094130E-01  0.98958564262E-01  0.89059042385E+00  0.88000000000E+00 0.  1.
        -11    1    4    4    0    0  0.36376668610E-01  0.12479221982E-01 -0.52170613748E-01  0.64815330442E-01  0.51100000000E-03 0.  1.
         11    1    4    4    0    0  0.30238418374E-01  0.31784269698E-01 -0.48619973180E-01  0.65488660537E-01  0.51100000000E-03 0. -1.
</event>
<event>
 8    1  0.1163913E+005  0.1043930E+01  0.7957747E-01            NaN
         13   -1    0    0    0    0  0.00000000000E+00  0.00000000000E+00  0.74505805969E-08  0.10566000000E+00  0.10566000000E+00 0. -1.
     999900   -1    0    0    0    0 -0.00000000000E+00 -0.00000000000E+00 -0.74505805969E-08  0.93827000000E+00  0.93827000000E+00 0. -1.
     999902    2    1    2    0    0 -0.21255950073E-01  0.12939370427E-01 -0.47932596190E-02  0.10185879784E+01  0.10182726804E+01 0.  0.
     999903    2    3    3    0    0  0.87922309597E-01 -0.67151084233E-01  0.57977959614E-01  0.12602167876E+00  0.16745718161E-01 0.  0.
         14    1    1    2    0    0  0.21255950073E-01 -0.12939370427E-01  0.47932596190E-02  0.25342021591E-01  0.00000000000E+00 0.  1.
     999901    1    3    3    0    0 -0.10917825967E+00  0.80090454661E-01 -0.62771219233E-01  0.89256629965E+00  0.88000000000E+00 0. -1.
        -11    1    4    4    0    0  0.44476645089E-01 -0.37616231388E-01  0.21640207742E-01  0.62142678847E-01  0.51100000000E-03 0.  1.
         11    1    4    4    0    0  0.43445664508E-01 -0.29534852845E-01  0.36337751872E-01  0.63878999908E-01  0.51100000000E-03 0. -1.
</event>
<event>
 8    1  0.1163913E+005  0.1043930E+01  0.7957747E-01            NaN
         13   -1    0    0    0    0  0.00000000000E+00  0.00000000000E+00  0.74505805969E-08  0.10566000000E+00  0.10566000000E+00 0. -1.
     999900   -1    0    0    0    0 -0.00000000000E+00 -0.00000000000E+00 -0.74505805969E-08  0.93827000000E+00  0.93827000000E+00 0. -1.
     999902    2    1    2    0    0 -0.23327239004E-02  0.15981065484E-01 -0.17542049602E-01  0.10200855130E+01  0.10198067926E+01 0.  0.
     999903    2    3    3    0    0 -0.11796902928E+00  0.54458847640E-01  0.20242066959E-02  0.13147134860E+00  0.19953950320E-01 0.  0.
         14    1    1    2    0    0  0.23327239004E-02 -0.15981065484E-01  0.17542049602E-01  0.23844486974E-01  0.00000000000E+00 0. -1.
     999901    1    3    3    0    0  0.11563630538E+00 -0.38477782157E-01 -0.19566256298E-01  0.88861416443E+00  0.88000000000E+00 0.  1.
        -11    1    4    4    0    0 -0.51853927589E-01  0.16541691074E-01  0.80172300576E-02  0.55018128365E-01  0.51100000000E-03 0.  1.
         11    1    4    4    0    0 -0.66115101690E-01  0.37917156567E-01 -0.59930233617E-02  0.76453220230E-01  0.51100000000E-03 0. -1.
</event>
<event>
 8    1  0.1209193E+005  0.1043930E+01  0.7957747E-01            NaN
         13   -1    0    0    0    0  0.00000000000E+00  0.00000000000E+00  0.74505805969E-08  0.10566000000E+00  0.10566000000E+00 0. -1.
     999900   -1    0    0    0    0 -0.00000000000E+00 -0.00000000000E+00 -0.74505805969E-08  0.93827000000E+00  0.93827000000E+00 0.  1.
     999902    2    1    2    0    0 -0.85615842982E-02 -0.22318954374E-01  0.98407095228E-02  0.10180789649E+01  0.10177507076E+01 0.  0.
     999903    2    3    3    0    0 -0.29199887983E-01  0.59524245869E-01  0.10828821415E+00  0.12857564275E+00  0.20238312234E-01 0.  0.
         14    1    1    2    0    0  0.85615842982E-02  0.22318954374E-01 -0.98407095228E-02  0.25851035065E-01  0.00000000000E+00 0. -1.
     999901    1    3    3    0    0  0.20638303684E-01 -0.81843200243E-01 -0.98447504623E-01  0.88950332218E+00  0.88000000000E+00 0.  1.
        -11    1    4    4    0    0 -0.20641908246E-01  0.20821049882E-01  0.52559804723E-01  0.60186366294E-01  0.51100000000E-03 0.  1.
         11    1    4    4    0    0 -0.85579797369E-02  0.38703195987E-01  0.55728409423E-01  0.68389276459E-01  0.51100000000E-03 0. -1.
</event>
<event>
 8    1  0.1163913E+005  0.1043930E+01  0.7957747E-01            NaN
         13   -1    0    0    0    0  0.00000000000E+00  0.00000000000E+00  0.74505805969E-08  0.10566000000E+00  0.10566000000E+00 0.  1.
     999900   -1    0    0    0    0 -0.00000000000E+00 -0.00000000000E+00 -0.74505805969E-08  0.93827000000E+00  0.93827000000E+00 0.  1.
     999902    2    1    2    0    0  0.21782643410E-01  0.93363999103E-03  0.55079903262E-02  0.10214423768E+01  0.10211948081E+01 0.  0.
     999903    2    3    3    0    0  0.68250910236E-01  0.11248933620E+00  0.20576355690E-02  0.13317671944E+00  0.20488221787E-01 0.  0.
         14    1    1    2    0    0 -0.21782643410E-01 -0.93363999103E-03 -0.55079903262E-02  0.22487623151E-01  0.00000000000E+00 0. -1.
     999901    1    3    3    0    0 -0.46468266827E-01 -0.11155569620E+00  0.34503547573E-02  0.88826565741E+00  0.88000000000E+00 0. -1.
        -11    1    4    4    0    0  0.35325090379E-01  0.77066431517E-01  0.26448489971E-03  0.84778699862E-01  0.51100000000E-03 0.  1.
         11    1    4    4    0    0  0.32925819858E-01  0.35422904679E-01  0.17931506692E-02  0.48398019582E-01  0.51100000000E-03 0. -1.
</event>
<event>
 8    1  0.1163913E+005  0.1043930E+01  0.7957747E-01            NaN
         13   -1    0    0    0    0  0.00000000000E+00  0.00000000000E+00  0.74505805969E-08  0.10566000000E+00  0.10566000000E+00 0. -1.
     999900   -1    0    0    0    0 -0.00000000000E+00 -0.00000000000E+00 -0.74505805969E-08  0.93827000000E+00  0.93827000000E+00 0. -1.
     999902    2    1    2    0    0 -0.18188294350E-01 -0.99751363591E-02 -0.11417886410E-01  0.10202512009E+01  0.10199763857E+01 0.  0.
     999903    2    3    3    0    0  0.43749174891E-01  0.39020710280E-01  0.11180262658E+00  0.12816368395E+00  0.22124566409E-01 0.  0.
         14    1    1    2    0    0  0.18188294350E-01  0.99751363591E-02  0.11417886410E-01  0.23678799100E-01  0.00000000000E+00 0. -1.
     999901    1    3    3    0    0 -0.61937469241E-01 -0.48995846639E-01 -0.12322051299E+00  0.89208751695E+00  0.88000000000E+00 0. -1.
        -11    1    4    4    0    0  0.18214484436E-01  0.68316429233E-02  0.52722075639E-01  0.56198907186E-01  0.51100000000E-03 0.  1.
         11    1    4    4    0    0  0.25534690456E-01  0.32189067356E-01  0.59080550938E-01  0.71964776760E-01  0.51100000000E-03 0. -1.
</event>
<event>
 8    1  0.1163913E+005  0.1043930E+01  0.7957747E-01            NaN
         13   -1    0    0    0    0  0.00000000000E+00  0.00000000000E+00  0.74505805969E-08  0.10566000000E+00  0.10566000000E+00 0.  1.
     999900   -1    0    0    0    0 -0.00000000000E+00 -0.00000000000E+00 -0.74505805969E-08  0.93827000000E+00  0.93827000000E+00 0. -1.
     999902    2    1    2    0    0 -0.19988017533E-01 -0.40337305468E-02  0.12735669903E-01  0.10198885958E+01  0.10196051975E+01 0.  0.
     999903    2    3    3    0    0 -0.27339781117E-01  0.40594353720E-01  0.12113183001E+00  0.13208487773E+00  0.19445552112E-01 0.  0.
         14    1    1    2    0    0  0.19988017533E-01  0.40337305468E-02 -0.12735669903E-01  0.24041404179E-01  0.00000000000E+00 0.  1.
     999901    1    3    3    0    0  0.73517635837E-02 -0.44628084267E-01 -0.10839616011E+00  0.88780371809E+00  0.88000000000E+00 0. -1.
        -11    1    4    4    0    0 -0.24783627314E-01  0.35694131312E-01  0.84350623358E-01  0.94887238208E-01  0.51100000000E-03 0. -1.
         11    1    4    4    0    0 -0.25561538029E-02  0.49002224081E-02  0.36781206654E-01  0.37197639520E-01  0.51100000000E-03 0.  1.
</event>
<event>
 8    1  0.1163913E+005  0.1043930E+01  0.7957747E-01            NaN
         13   -1    0    0    0    0  0.00000000000E+00  0.00000000000E+00  0.74505805969E-08  0.10566000000E+00  0.10566000000E+00 0. -1.
     999900   -1    0    0    0    0 -0.00000000000E+00 -0.00000000000E+00 -0.74505805969E-08  0.93827000000E+00  0.93827000000E+00 0.  1.
     999902    2    1    2    0    0 -0.14518000421E-01 -0.86501881878E-02 -0.17791608283E-01  0.10193914708E+01  0.10190960854E+01 0.  0.
     999903    2    3    3    0    0 -0.91287683410E-01  0.84988081105E-02  0.88951988974E-01  0.12945783961E+00  0.21004880674E-01 0.  0.
         14    1    1    2    0    0  0.14518000421E-01  0.86501881878E-02  0.17791608283E-01  0.24538529239E-01  0.00000000000E+00 0. -1.
     999901    1    3    3    0    0  0.76769682989E-01 -0.17148996298E-01 -0.10674359726E+00  0.88993363115E+00  0.88000000000E+00 0.  1.
        -11    1    4    4    0    0 -0.72521402117E-01  0.13774457204E-01  0.63354562574E-01  0.97278729207E-01  0.51100000000E-03 0. -1.
         11    1    4    4    0    0 -0.18766281293E-01 -0.52756490939E-02  0.25597426400E-01  0.32179110402E-01  0.51100000000E-03 0.  1.
</event>
<event>
 8    1  0.1163913E+005  0.1043930E+01  0.7957747E-01            NaN
         13   -1    0    0    0    0  0.00000000000E+00  0.00000000000E+00  0.74505805969E-08  0.10566000000E+00  0.10566000000E+00 0.  1.
     999900   -1    0    0    0    0 -0.00000000000E+00 -0.00000000000E+00 -0.74505805969E-08  0.93827000000E+00  0.93827000000E+00 0. -1.
     999902    2    1    2    0    0  0.18627844970E-02  0.22503783649E-01  0.99302851184E-02  0.10192621909E+01  0.10189636465E+01 0.  0.
     999903    2    3    3    0    0  0.94902344086E-01 -0.13733043818E-01 -0.83415844608E-01  0.12871013330E+00  0.20323480926E-01 0.  0.
         14    1    1    2    0    0 -0.18627844970E-02 -0.22503783649E-01 -0.99302851184E-02  0.24667809127E-01  0.00000000000E+00 0.  1.
     999901    1    3    3    0    0 -0.93039559589E-01  0.36236827466E-01  0.93346129726E-01  0.89055205757E+00  0.88000000000E+00 0.  1.
        -11    1    4    4    0    0  0.32838904192E-01  0.47238864966E-02 -0.25701572541E-01  0.41970712220E-01  0.51100000000E-03 0. -1.
         11    1    4    4    0    0  0.62063439894E-01 -0.18456930314E-01 -0.57714272067E-01  0.86739421080E-01  0.51100000000E-03 0.  1.
</event>
<event>
 8    1  0.1163913E+005  0.1043930E+01  0.7957747E-01            NaN
         13   -1    0    0    0    0  0.00000000000E+00  0.00000000000E+00  0.74505805969E-08  0.10566000000E+00  0.10566000000E+00 0. -1.
     999900   -1    0    0    0    0 -0.00000000000E+00 -0.00000000000E+00 -0.74505805969E-08  0.93827000000E+00  0.93827000000E+00 0.  1.
     999902    2    1    2    0    0  0.99733564410E-02  0.93117449020E-03 -0.20278844243E-01  0.10213121653E+01  0.10210616889E+01 0.  0.
     999903    2    3    3    0    0  0.38587092422E-01  0.12153874221E+00  0.25554404299E-01  0.13144385031E+00  0.19074292763E-01 0.  0.
         14    1    1    2    0    0 -0.99733564410E-02 -0.93117449020E-03  0.20278844243E-01  0.22617834743E-01  0.00000000000E+00 0. -1.
     999901    1    3    3    0    0 -0.28613735981E-01 -0.12060756772E+00 -0.45833248542E-01  0.88986831495E+00  0.88000000000E+00 0.  1.
        -11    1    4    4    0    0  0.16838620321E-01  0.78862591656E-01  0.11052681532E-01  0.81395763938E-01  0.51100000000E-03 0.  1.
         11    1    4    4    0    0  0.21748472101E-01  0.42676150557E-01  0.14501722767E-01  0.50048086370E-01  0.51100000000E-03 0. -1.
</event>
<event>
 8    1  0.1163913E+005  0.1043930E+01  0.7957747E-01            NaN
         13   -1    0    0    0    0  0.00000000000E+00  0.00000000000E+00  0.74505805969E-08  0.10566000000E+00  0.10566000000E+00 0.  1.
     999900   -1    0    0    0    0 -0.00000000000E+00 -0.00000000000E+00 -0.74505805969E-08  0.93827000000E+00  0.93827000000E+00 0. -1.
     999902    2    1    2    0    0  0.15354582812E-01 -0.15808852889E-01  0.10370750297E-01  0.10195735736E+01  0.10192826088E+01 0.  0.
     999903    2    3    3    0    0  0.34861499547E-01 -0.87824071398E-01 -0.88424208573E-01  0.13090763225E+00  0.19737675960E-01 0.  0.
         14    1    1    2    0    0 -0.15354582812E-01  0.15808852889E-01 -0.10370750297E-01  0.24356426354E-01  0.00000000000E+00 0. -1.
     999901    1    3    3    0    0 -0.19506916735E-01  0.72015218509E-01  0.98794958870E-01  0.88866594140E+00  0.88000000000E+00 0.  1.
        -11    1    4    4    0    0  0.29916558757E-01 -0.56542456971E-01 -0.67198986251E-01  0.92779387810E-01  0.51100000000E-03 0.  1.
         11    1    4    4    0    0  0.49449407900E-02 -0.31281614427E-01 -0.21225222322E-01  0.38128244442E-01  0.51100000000E-03 0. -1.
</event>
<event>
 8    1  0.1163913E+005  0.1043930E+01  0.7957747E-01            NaN
         13   -1    0    0    0    0  0.00000000000E+00  0.00000000000E+00  0.74505805969E-08  0.10566000000E+00  0.10566000000E+00 0.  1.
     999900   -1    0    0    0    0 -0.00000000000E+00 -0.00000000000E+00 -0.74505805969E-08  0.93827000000E+00  0.93827000000E+00 0. -1.
     999902    2    1    2    0    0  0.23472858082E-01  0.34106213370E-02  0.38664912542E-02  0.10198975811E+01  0.10196143971E+01 0.  0.
     999903    2    3    3    0    0  0.48448490511E-02 -0.51350138602E-01  0.11832772160E+00  0.13060172660E+00  0.19875914912E-01 0.  0.
         14    1    1    2    0    0 -0.23472858082E-01 -0.34106213370E-02 -0.38664912542E-02  0.24032418918E-01  0.00000000000E+00 0. -1.
     999901    1    3    3    0    0  0.18628009031E-01  0.54760759939E-01 -0.11446123035E+00  0.88929585448E+00  0.88000000000E+00 0. -1.
        -11    1    4    4    0    0 -0.31049707314E-02 -0.39249027844E-01  0.72023856564E-01  0.82084249800E-01  0.51100000000E-03 0.  1.
         11    1    4    4    0    0  0.79498197824E-02 -0.12101110758E-01  0.46303865041E-01  0.48517476798E-01  0.51100000000E-03 0. -1.
</event>
<event>
 8    1  0.1163913E+005  0.1043930E+01  0.7957747E-01            NaN
         13   -1    0    0    0    0  0.00000000000E+00  0.00000000000E+00  0.74505805969E-08  0.10566000000E+00  0.10566000000E+00 0.  1.
     999900   -1    0    0    0    0 -0.00000000000E+00 -0.00000000000E+00 -0.74505805969E-08  0.93827000000E+00  0.93827000000E+00 0. -1.
     999902    2    1    2    0    0  0.51251519048E-02  0.88079179938E-02  0.21964989560E-01  0.10197162153E+01  0.10194286892E+01 0.  0.
     999903    2    3    3    0    0  0.10984508170E+00  0.51952469865E-01 -0.42469492248E-01  0.13012107231E+00  0.19048217429E-01 0.  0.
         14    1    1    2    0    0 -0.51251519048E-02 -0.88079179938E-02 -0.21964989560E-01  0.24213784665E-01  0.00000000000E+00 0. -1.
     999901    1    3    3    0    0 -0.10471992980E+00 -0.43144551871E-01  0.64434481808E-01  0.88959514303E+00  0.88000000000E+00 0. -1.
        -11    1    4    4    0    0  0.74478934743E-01  0.26501795394E-01 -0.22544395945E-01  0.82206859745E-01  0.51100000000E-03 0.  1.
         11    1    4    4    0    0  0.35366146959E-01  0.25450674471E-01 -0.19925096303E-01  0.47914212562E-01  0.51100000000E-03 0. -1.
</event>
<event>
 8    1  0.1163913E+005  0.1043930E+01  0.7957747E-01            NaN
         13   -1    0    0    0    0  0.00000000000E+00  0.00000000000E+00  0.74505805969E-08  0.10566000000E+00  0.10566000000E+00 0.  1.
     999900   -1    0    0    0    0 -0.00000000000E+00 -0.00000000000E+00 -0.74505805969E-08  0.93827000000E+00  0.93827000000E+00 0.  1.
     999902    2    1    2    0    0  0.17802501225E-01  0.15735030830E-01  0.22343252850E-02  0.10200655399E+01  0.10197863469E+01 0.  0.
     999903    2    3    3    0    0  0.19464533586E-01  0.41230827413E-01  0.12109353220E+00  0.13170733005E+00  0.24583084620E-01 0.  0.
         14    1    1    2    0    0 -0.17802501225E-01 -0.15735030830E-01 -0.22343252850E-02  0.23864460073E-01  0.00000000000E+00 0.  1.
     999901    1    3    3    0    0 -0.16620323617E-02 -0.25495796583E-01 -0.11885920692E+00  0.88835820988E+00  0.88000000000E+00 0.  1.
        -11    1    4    4    0    0  0.17669155194E-01  0.10328680135E-01  0.56050848868E-01  0.59672769824E-01  0.51100000000E-03 0.  1.
         11    1    4    4    0    0  0.17953783927E-02  0.30902147278E-01  0.65042683335E-01  0.72034560222E-01  0.51100000000E-03 0. -1.
</event>
<event>
 8    1  0.1163913E+005  0.1043930E+01  0.7957747E-01            NaN
         13   -1    0    0    0    0  0.00000000000E+00  0.00000000000E+00  0.74505805969E-08  0.10566000000E+00  0.10566000000E+00 0. -1.
     999900   -1    0    0    0    0 -0.00000000000E+00 -0.00000000000E+00 -0.74505805969E-08  0.93827000000E+00  0.93827000000E+00 0. -1.
     999902    2    1    2    0    0 -0.49004507059E-02  0.43633538149E-03  0.23077122077E-01  0.10203342722E+01  0.10200614044E+01 0.  0.
     999903    2    3    3    0    0 -0.10987871547E+00  0.33579263689E-01  0.62397553558E-01  0.13260402824E+00  0.22124071773E-01 0.  0.
         14    1    1    2    0    0  0.49004507059E-02 -0.43633538149E-03 -0.23077122077E-01  0.23595727771E-01  0.00000000000E+00 0.  1.
     999901    1    3    3    0    0  0.10497826476E+00 -0.33142928307E-01 -0.39320431481E-01  0.88773024399E+00  0.88000000000E+00 0.  1.
        -11    1    4    4    0    0 -0.84167120054E-01  0.34553595500E-01  0.44712570043E-01  0.10137815396E+00  0.51100000000E-03 0. -1.
         11    1    4    4    0    0 -0.25711595413E-01 -0.97433181137E-03  0.17684983515E-01  0.31225874273E-01  0.51100000000E-03 0.  1.
</event>
<event>
 8    1  0.1163913E+005  0.1043930E+01  0.7957747E-01            NaN
         13   -1    0    0    0    0  0.00000000000E+00  0.00000000000E+00  0.74505805969E-08  0.10566000000E+00  0.10566000000E+00 0. -1.
     999900   -1    0    0    0    0 -0.00000000000E+00 -0.00000000000E+00 -0.74505805969E-08  0.93827000000E+00  0.93827000000E+00 0.  1.
     999902    2    1    2    0    0  0.19417711680E-01  0.69534555994E-02  0.12888443655E-01  0.10196090203E+01  0.10193189120E+01 0.  0.
     999903    2    3    3    0    0 -0.35656942933E-01  0.69768881851E-01 -0.99896335473E-01  0.12848646886E+00  0.19758046094E-01 0.  0.
         14    1    1    2    0    0 -0.19417711680E-01 -0.69534555994E-02 -0.12888443655E-01  0.24320979657E-01  0.00000000000E+00 0.  1.
     999901    1    3    3    0    0  0.55074654612E-01 -0.62815426251E-01  0.11278477913E+00  0.89112255148E+00  0.88000000000E+00 0. -1.
        -11    1    4    4    0    0 -0.29968682881E-01  0.59592387833E-01 -0.71495268638E-01  0.97781435865E-01  0.51100000000E-03 0. -1.
         11    1    4    4    0    0 -0.56882600516E-02  0.10176494018E-01 -0.28401066836E-01  0.30705032997E-01  0.51100000000E-03 0.  1.
</event>
<event>
 8    1  0.1163913E+005  0.1043930E+01  0.7957747E-01            NaN
         13   -1    0    0    0    0  0.00000000000E+00  0.00000000000E+00  0.74505805969E-08  0.10566000000E+00  0.10566000000E+00 0. -1.
     999900   -1    0    0    0    0 -0.00000000000E+00 -0.00000000000E+00 -0.74505805969E-08  0.93827000000E+00  0.93827000000E+00 0. -1.
     999902    2    1    2    0    0 -0.40412397604E-02 -0.17891421489E-01 -0.15540177393E-01  0.10198897900E+01  0.10196064202E+01 0.  0.
     999903    2    3    3    0    0  0.84226654176E-01  0.63479391198E-01  0.68966345602E-01  0.12772737058E+00  0.20836554165E-01 0.  0.
         14    1    1    2    0    0  0.40412397604E-02  0.17891421489E-01  0.15540177393E-01  0.24040209964E-01  0.00000000000E+00 0. -1.
     999901    1    3    3    0    0 -0.88267893936E-01 -0.81370812687E-01 -0.84506522995E-01  0.89216241945E+00  0.88000000000E+00 0. -1.
        -11    1    4    4    0    0  0.32982300575E-01  0.31080642944E-01  0.18927797663E-01  0.49115793412E-01  0.51100000000E-03 0. -1.
         11    1    4    4    0    0  0.51244353601E-01  0.32398748254E-01  0.50038547939E-01  0.78611577171E-01  0.51100000000E-03 0.  1.
</event>
<event>
 8    1  0.1163913E+005  0.1043930E+01  0.7957747E-01            NaN
         13   -1    0    0    0    0  0.00000000000E+00  0.00000000000E+00  0.74505805969E-08  0.10566000000E+00  0.10566000000E+00 0.  1.
     999900   -1    0    0    0    0 -0.00000000000E+00 -0.00000000000E+00 -0.74505805969E-08  0.93827000000E+00  0.93827000000E+00 0. -1.
     999902    2    1    2    0    0 -0.22062109429E-01 -0.98989290854E-04  0.83373682800E-02  0.10203448737E+01  0.10200722539E+01 0.  0.
     999903    2    3    3    0    0  0.11680227925E+00 -0.47102433695E-01  0.14641980370E-01  0.12819444339E+00  0.18921311477E-01 0.  0.
         14    1    1    2    0    0  0.22062109429E-01  0.98989290854E-04 -0.83373682800E-02  0.23585126270E-01  0.00000000000E+00 0. -1.
     999901    1    3    3    0    0 -0.13886438868E+00  0.47003444405E-01 -0.63046120899E-02  0.89215043034E+00  0.88000000000E+00 0.  1.
        -11    1    4    4    0    0  0.50949348922E-01 -0.25603708194E-01 -0.15803166262E-02  0.57045109787E-01  0.51100000000E-03 0. -1.
         11    1    4    4    0    0  0.65852930328E-01 -0.21498725501E-01  0.16222296996E-01  0.71149333600E-01  0.51100000000E-03 0.  1.
</event>
<event>
 8    1  0.1163913E+005  0.1043930E+01  0.7957747E-01            NaN
         13   -1    0    0    0    0  0.00000000000E+00  0.00000000000E+00  0.74505805969E-08  0.10566000000E+00  0.10566000000E+00 0. -1.
     999900   -1    0    0    0    0 -0.00000000000E+00 -0.00000000000E+00 -0.74505805969E-08  0.93827000000E+00  0.93827000000E+00 0.  1.
     999902    2    1    2    0    0  0.86335487390E-02 -0.33214665118E-02 -0.88962618656E-02  0.10310959134E+01  0.10310160371E+01 0.  0.
     999903    2    3    3    0    0 -0.36345654886E-01 -0.51735422229E-01 -0.12451740583E+00  0.14107608846E+00  0.20007944359E-01 0.  0.
         14    1    1    2    0    0 -0.86335487390E-02  0.33214665118E-02  0.88962618656E-02  0.12834086598E-01  0.00000000000E+00 0. -1.
     999901    1    3    3    0    0  0.44979203625E-01  0.48413955717E-01  0.11562114396E+00  0.89001982495E+00  0.88000000000E+00 0. -1.
        -11    1    4    4    0    0 -0.20229556758E-01 -0.12835300401E-01 -0.51096359993E-01  0.56436504397E-01  0.51100000000E-03 0.  1.
         11    1    4    4    0    0 -0.16116098128E-01 -0.38900121828E-01 -0.73421045835E-01  0.84639584058E-01  0.51100000000E-03 0. -1.
</event>
<event>
 8    1  0.1163913E+005  0.1043930E+01  0.7957747E-01            NaN
         13   -1    0    0    0    0  0.00000000000E+00  0.00000000000E+00  0.74505805969E-08  0.10566000000E+00  0.10566000000E+00 0. -1.
     999900   -1    0    0    0    0 -0.00000000000E+00 -0.00000000000E+00 -0.74505805969E-08  0.93827000000E+00  0.93827000000E+00 0. -1.
     999902    2    1    2    0    0  0.18178843167E-02 -0.17858649858E-01 -0.14853675529E-01  0.10206304774E+01  0.10203644955E+01 0.  0.
     999903    2    3    3    0    0 -0.11571154747E+00  0.22581698551E-01 -0.53573672237E-01  0.13105314669E+00  0.20141836349E-01 0.  0.
         14    1    1    2    0    0 -0.18178843167E-02  0.17858649858E-01  0.14853675529E-01  0.23299522631E-01  0.00000000000E+00 0. -1.
     999901    1    3    3    0    0  0.11752943179E+00 -0.40440348409E-01  0.38719996709E-01  0.88957733068E+00  0.88000000000E+00 0. -1.
        -11    1    4    4    0    0 -0.70430334300E-01  0.36954824563E-02 -0.30806362991E-01  0.76963508898E-01  0.51100000000E-03 0. -1.
         11    1    4    4    0    0 -0.45281213174E-01  0.18886216095E-01 -0.22767309246E-01  0.54089637789E-01  0.51100000000E-03 0.  1.
</event>
<event>
 8    1  0.1163913E+005  0.1043930E+01  0.7957747E-01            NaN
         13   -1    0    0    0    0  0.00000000000E+00  0.00000000000E+00  0.74505805969E-08  0.10566000000E+00  0.10566000000E+00 0. -1.
     999900   -1    0    0    0    0 -0.00000000000E+00 -0.00000000000E+00 -0.74505805969E-08  0.93827000000E+00  0.93827000000E+00 0. -1.
     999902    2    1    2    0    0 -0.16645935849E-01 -0.67421319431E-02  0.14582057542E-01  0.10207960439E+01  0.10205338717E+01 0.  0.
     999903    2    3    3    0    0  0.10156872016E+00 -0.75263807531E-01  0.23152536051E-01  0.13021006936E+00  0.20923111583E-01 0.  0.
         14    1    1    2    0    0  0.16645935849E-01  0.67421319431E-02 -0.14582057542E-01  0.23133956116E-01  0.00000000000E+00 0.  1.
     999901    1    3    3    0    0 -0.11821465601E+00  0.68521675588E-01 -0.85704785091E-02  0.89058597453E+00  0.88000000000E+00 0. -1.
        -11    1    4    4    0    0  0.62159116384E-01 -0.50549539824E-01  0.50099475924E-02  0.80276848605E-01  0.51100000000E-03 0. -1.
         11    1    4    4    0    0  0.39409603773E-01 -0.24714267707E-01  0.18142588458E-01  0.49933220754E-01  0.51100000000E-03 0.  1.
</event>
<event>
 8    1  0.1163913E+005  0.1043930E+01  0.7957747E-01            NaN
         13   -1    0    0    0    0  0.00000000000E+00  0.00000000000E+00  0.74505805969E-08  0.10566000000E+00  0.10566000000E+00 0.  1.
     999900   -1    0    0    0    0 -0.00000000000E+00 -0.00000000000E+00 -0.74505805969E-08  0.93827000000E+00  0.93827000000E+00 0. -1.
     999902    2    1    2    0    0  0.23529960593E-03  0.20235234116E-01 -0.11943210141E-01  0.10204319079E+01  0.10201613197E+01 0.  0.
     999903    2    3    3    0    0 -0.11777453477E+00 -0.36846571418E-01  0.32873775274E-01  0.12959341761E+00  0.22028570546E-01 0.  0.
         14    1    1    2    0    0 -0.23529960593E-03 -0.20235234116E-01  0.11943210141E-01  0.23498092138E-01  0.00000000000E+00 0. -1.
     999901    1    3    3    0    0  0.11800983438E+00  0.57081805534E-01 -0.44816985415E-01  0.89083849025E+00  0.88000000000E+00 0. -1.
        -11    1    4    4    0    0 -0.60011612352E-01 -0.12206281019E-01  0.68883646239E-02  0.61628707609E-01  0.51100000000E-03 0. -1.
         11    1    4    4    0    0 -0.57762922423E-01 -0.24640290399E-01  0.25985410650E-01  0.67964710000E-01  0.51100000000E-03 0.  1.
</event>
<event>
 8    1  0.1163913E+005  0.1043930E+01  0.7957747E-01            NaN
         13   -1    0    0    0    0  0.00000000000E+00  0.00000000000E+00  0.74505805969E-08  0.10566000000E+00  0.10566000000E+00 0. -1.
     999900   -1    0    0    0    0 -0.00000000000E+00 -0.00000000000E+00 -0.74505805969E-08  0.93827000000E+00  0.93827000000E+00 0.  1.
     999902    2    1    2    0    0 -0.27488992368E-02  0.63875367655E-02  0.22958572414E-01  0.10199413960E+01  0.10196592559E+01 0.  0.
     999903    2    3    3    0    0  0.53617044408E-01 -0.10855649704E+00  0.44055091504E-01  0.13042786965E+00  0.20279980091E-01 0.  0.
         14    1    1    2    0    0  0.27488992368E-02 -0.63875367655E-02 -0.22958572414E-01  0.23988603965E-01  0.00000000000E+00 0.  1.
     999901    1    3    3    0    0 -0.56365943645E-01  0.11494403380E+00 -0.21096519091E-01  0.88951352639E+00  0.88000000000E+00 0.  1.
        -11    1    4    4    0    0  0.49619513302E-01 -0.93396035048E-01  0.44485325371E-01  0.11473500232E+00  0.51100000000E-03 0.  1.
         11    1    4    4    0    0  0.39975311062E-02 -0.15160461991E-01 -0.43023386702E-03  0.15692867326E-01  0.51100000000E-03 0. -1.
</event>
<event>
 8    1  0.1163913E+005  0.1043930E+01  0.7957747E-01            NaN
         13   -1    0    0    0    0  0.00000000000E+00  0.00000000000E+00  0.74505805969E-08  0.10566000000E+00  0.10566000000E+00 0.  1.
     999900   -1    0    0    0    0 -0.00000000000E+00 -0.00000000000E+00 -0.74505805969E-08  0.93827000000E+00  0.93827000000E+00 0. -1.
     999902    2    1    2    0    0 -0.22613044079E-01 -0.65448213613E-03 -0.69607365604E-02  0.10202608225E+01  0.10199862332E+01 0.  0.
     999903    2    3    3    0    0 -0.10817035550E-01 -0.12622183093E+00 -0.27144272077E-01  0.13103999504E+00  0.19639499331E-01 0.  0.
         14    1    1    2    0    0  0.22613044079E-01  0.65448213613E-03  0.69607365604E-02  0.23669177486E-01  0.00000000000E+00 0.  1.
     999901    1    3    3    0    0 -0.11796008529E-01  0.12556734879E+00  0.20183535517E-01  0.88922082747E+00  0.88000000000E+00 0.  1.
        -11    1    4    4    0    0 -0.21558386352E-02 -0.79019426581E-01 -0.25341146103E-01  0.83012964193E-01  0.51100000000E-03 0. -1.
         11    1    4    4    0    0 -0.86611969151E-02 -0.47202404347E-01 -0.18031259740E-02  0.48027030851E-01  0.51100000000E-03 0.  1.
</event>
<event>
 8    1  0.1163913E+005  0.1043930E+01  0.7957747E-01            NaN
         13   -1    0    0    0    0  0.00000000000E+00  0.00000000000E+00  0.74505805969E-08  0.10566000000E+00  0.10566000000E+00 0.  1.
     999900   -1    0    0    0    0 -0.00000000000E+00 -0.00000000000E+00 -0.74505805969E-08  0.93827000000E+00  0.93827000000E+00 0. -1.
     999902    2    1    2    0    0  0.12038240916E-01 -0.80822003532E-02 -0.34971528818E-02  0.10290145287E+01  0.10289064238E+01 0.  0.
     999903    2    3    3    0    0  0.12754304040E+00 -0.89316611653E-02  0.51630349544E-01  0.13975578015E+00  0.22781206434E-01 0.  0.
         14    1    1    2    0    0 -0.12038240916E-01  0.80822003532E-02  0.34971528818E-02  0.14915471336E-01  0.00000000000E+00 0. -1.
     999901    1    3    3    0    0 -0.11550479948E+00  0.84946081211E-03 -0.55127502426E-01  0.88925874851E+00  0.88000000000E+00 0. -1.
        -11    1    4    4    0    0  0.52236206438E-01 -0.73177049760E-03  0.32834554526E-01  0.61705152483E-01  0.51100000000E-03 0. -1.
         11    1    4    4    0    0  0.75306833957E-01 -0.81998906677E-02  0.18795795018E-01  0.78050627666E-01  0.51100000000E-03 0.  1.
</event>
<event>
 8    1  0.1163913E+005  0.1043930E+01  0.7957747E-01            NaN
         13   -1    0    0    0    0  0.00000000000E+00  0.00000000000E+00  0.74505805969E-08  0.10566000000E+00  0.10566000000E+00 0.  1.
     999900   -1    0    0    0    0 -0.00000000000E+00 -0.00000000000E+00 -0.74505805969E-08  0.93827000000E+00  0.93827000000E+00 0.  1.
     999902    2    1    2    0    0 -0.48879456452E-02  0.16857481205E-01 -0.14438639521E-01  0.10212024617E+01  0.10209495222E+01 0.  0.
     999903    2    3    3    0    0  0.26587640612E-01  0.11543412007E+00 -0.54765774244E-01  0.13422199741E+00  0.31373808378E-01 0.  0.
         14    1    1    2    0    0  0.48879456452E-02 -0.16857481205E-01  0.14438639521E-01  0.22727538284E-01  0.00000000000E+00 0.  1.
     999901    1    3    3    0    0 -0.31475586257E-01 -0.98576638862E-01  0.40327134723E-01  0.88698046430E+00  0.88000000000E+00 0. -1.
        -11    1    4    4    0    0  0.17729160752E-01  0.46453937128E-01 -0.38262829890E-01  0.62742303813E-01  0.51100000000E-03 0. -1.
         11    1    4    4    0    0  0.88584798602E-02  0.68980182940E-01 -0.16502944354E-01  0.71479693600E-01  0.51100000000E-03 0.  1.
</event>
<event>
 8    1  0.1163913E+005  0.1043930E+01  0.7957747E-01            NaN
         13   -1    0    0    0    0  0.00000000000E+00  0.00000000000E+00  0.74505805969E-08  0.10566000000E+00  0.10566000000E+00 0. -1.
     999900   -1    0    0    0    0 -0.00000000000E+00 -0.00000000000E+00 -0.74505805969E-08  0.93827000000E+00  0.93827000000E+00 0. -1.
     999902    2    1    2    0    0  0.16932380317E-01  0.11836171588E-01  0.12222462926E-01  0.10199260616E+01  0.10196435563E+01 0.  0.
     999903    2    3    3    0    0  0.41737913220E-01 -0.52466154281E-01  0.11155115791E+00  0.13166017049E+00  0.19899470307E-01 0.  0.
         14    1    1    2    0    0 -0.16932380317E-01 -0.11836171588E-01 -0.12222462926E-01  0.24003938449E-01  0.00000000000E+00 0.  1.
     999901    1    3    3    0    0 -0.24805532903E-01  0.64302325870E-01 -0.99328694980E-01  0.88826589106E+00  0.88000000000E+00 0. -1.
        -11    1    4    4    0    0  0.30244441832E-01 -0.24495980934E-01  0.52977889414E-01  0.65739616909E-01  0.51100000000E-03 0. -1.
         11    1    4    4    0    0  0.11493471388E-01 -0.27970173348E-01  0.58573268492E-01  0.65920553582E-01  0.51100000000E-03 0.  1.
</event>
<event>
 8    1  0.1163913E+005  0.1043930E+01  0.7957747E-01            NaN
         13   -1    0    0    0    0  0.00000000000E+00  0.00000000000E+00  0.74505805969E-08  0.10566000000E+00  0.10566000000E+00 0. -1.
     999900   -1    0    0    0    0 -0.00000000000E+00 -0.00000000000E+00 -0.74505805969E-08  0.93827000000E+00  0.93827000000E+00 0.  1.
     999902    2    1    2    0    0  0.19625277966E-01 -0.11210003374E-01  0.76938199165E-02  0.10200551057E+01  0.10197756656E+01 0.  0.
     999903    2    3    3    0    0 -0.34658169833E-01 -0.25559905228E-01 -0.12003375764E+00  0.12906299217E+00  0.19865937764E-01 0.  0.
         14    1    1    2    0    0 -0.19625277966E-01  0.11210003374E-01 -0.76938199165E-02  0.23874894258E-01  0.00000000000E+00 0.  1.
     999901    1    3    3    0    0  0.54283447800E-01  0.14349901854E-01  0.12772757755E+00  0.89099211358E+00  0.88000000000E+00 0. -1.
        -11    1    4    4    0    0 -0.23416278734E-01 -0.21772949232E-01 -0.61288158760E-01  0.69129465159E-01  0.51100000000E-03 0.  1.
         11    1    4    4    0    0 -0.11241891099E-01 -0.37869559957E-02 -0.58745598875E-01  0.59933527006E-01  0.51100000000E-03 0. -1.
</event>
<event>
 8    1  0.1163913E+005  0.1043930E+01  0.7957747E-01            NaN
         13   -1    0    0    0    0  0.00000000000E+00  0.00000000000E+00  0.74505805969E-08  0.10566000000E+00  0.10566000000E+00 0.  1.
     999900   -1    0    0    0    0 -0.00000000000E+00 -0.00000000000E+00 -0.74505805969E-08  0.93827000000E+00  0.93827000000E+00 0. -1.
     999902    2    1    2    0    0 -0.44495360432E-02  0.11048999270E-01 -0.20384538458E-01  0.10203205069E+01  0.10200473169E+01 0.  0.
     999903    2    3    3    0    0 -0.17717719511E-01  0.65445357874E-01 -0.11344938132E+00  0.13364352317E+00  0.19819604216E-01 0.  0.
         14    1    1    2    0    0  0.44495360432E-02 -0.11048999270E-01  0.20384538458E-01  0.23609493090E-01  0.00000000000E+00 0.  1.
     999901    1    3    3    0    0  0.13268183468E-01 -0.54396358604E-01  0.93064842860E-01  0.88667698374E+00  0.88000000000E+00 0.  1.
        -11    1    4    4    0    0 -0.11853286520E-01  0.62444495486E-01 -0.97605388646E-01  0.11647698670E+00  0.51100000000E-03 0.  1.
         11    1    4    4    0    0 -0.58644329907E-02  0.30008623879E-02 -0.15843992672E-01  0.17166536463E-01  0.51100000000E-03 0. -1.
</event>
<event>
 8    1  0.1163913E+005  0.1043930E+01  0.7957747E-01            NaN
         13   -1    0    0    0    0  0.00000000000E+00  0.00000000000E+00  0.74505805969E-08  0.10566000000E+00  0.10566000000E+00 0.  1.
     999900   -1    0    0    0    0 -0.00000000000E+00 -0.00000000000E+00 -0.74505805969E-08  0.93827000000E+00  0.93827000000E+00 0. -1.
     999902    2    1    2    0    0 -0.10539302486E-01  0.12120874640E-01  0.17207915093E-01  0.10203905684E+01  0.10201190162E+01 0.  0.
     999903    2    3    3    0    0  0.11001599432E+00  0.39551125116E-02  0.67617942953E-01  0.13070442700E+00  0.19806542069E-01 0.  0.
         14    1    1    2    0    0  0.10539302486E-01 -0.12120874640E-01 -0.17207915093E-01  0.23539431615E-01  0.00000000000E+00 0. -1.
     999901    1    3    3    0    0 -0.12055529680E+00  0.81657621288E-02 -0.50410027860E-01  0.88968614138E+00  0.88000000000E+00 0. -1.
        -11    1    4    4    0    0  0.87231911770E-01  0.66837740674E-02  0.61526646241E-01  0.10695732133E+00  0.51100000000E-03 0. -1.
         11    1    4    4    0    0  0.22784082546E-01 -0.27286615558E-02  0.60912967119E-02  0.23747105676E-01  0.51100000000E-03 0.  1.
</event>
<event>
 8    1  0.1163913E+005  0.1043930E+01  0.7957747E-01            NaN
         13   -1    0    0    0    0  0.00000000000E+00  0.00000000000E+00  0.74505805969E-08  0.10566000000E+00  0.10566000000E+00 0.  1.
     999900   -1    0    0    0    0 -0.00000000000E+00 -0.00000000000E+00 -0.74505805969E-08  0.93827000000E+00  0.93827000000E+00 0.  1.
     999902    2    1    2    0    0  0.23938811102E-01 -0.57868885868E-02  0.52174012949E-04  0.10193016123E+01  0.10190040331E+01 0.  0.
     999903    2    3    3    0    0 -0.85853150572E-01 -0.90146298157E-01 -0.23080244081E-01  0.12817541836E+00  0.19978029701E-01 0.  0.
         14    1    1    2    0    0 -0.23938811102E-01  0.57868885868E-02 -0.52174012949E-04  0.24628387658E-01  0.00000000000E+00 0.  1.
     999901    1    3    3    0    0  0.10979196167E+00  0.84359409571E-01  0.23132418094E-01  0.89112619398E+00  0.88000000000E+00 0.  1.
        -11    1    4    4    0    0 -0.34575203191E-01 -0.47001595624E-01 -0.17541835446E-01  0.60930877055E-01  0.51100000000E-03 0. -1.
         11    1    4    4    0    0 -0.51277947381E-01 -0.43144702534E-01 -0.55384086343E-02  0.67244541307E-01  0.51100000000E-03 0.  1.
</event>
<event>
 8    1  0.1163913E+005  0.1043930E+01  0.7957747E-01            NaN
         13   -1    0    0    0    0  0.00000000000E+00  0.00000000000E+00  0.74505805969E-08  0.10566000000E+00  0.10566000000E+00 0.  1.
     999900   -1    0    0    0    0 -0.00000000000E+00 -0.00000000000E+00 -0.74505805969E-08  0.93827000000E+00  0.93827000000E+00 0. -1.
     999902    2    1    2    0    0  0.91573366128E-02 -0.16315982868E-01  0.15092688695E-01  0.10198913361E+01  0.10196080031E+01 0.  0.
     999903    2    3    3    0    0 -0.10705254119E+00 -0.67493936142E-01 -0.24723012574E-01  0.12988616269E+00  0.15604804304E-01 0.  0.
         14    1    1    2    0    0 -0.91573366128E-02  0.16315982868E-01 -0.15092688695E-01  0.24038663915E-01  0.00000000000E+00 0. -1.
     999901    1    3    3    0    0  0.11620987780E+00  0.51177953274E-01  0.39815701269E-01  0.89000517339E+00  0.88000000000E+00 0.  1.
        -11    1    4    4    0    0 -0.40130520785E-01 -0.27613754677E-01 -0.20942263399E-02  0.48760896739E-01  0.51100000000E-03 0.  1.
         11    1    4    4    0    0 -0.66922020403E-01 -0.39880181465E-01 -0.22628786234E-01  0.81125265953E-01  0.51100000000E-03 0. -1.
</event>
<event>
 8    1  0.1163913E+005  0.1043930E+01  0.7957747E-01            NaN
         13   -1    0    0    0    0  0.00000000000E+00  0.00000000000E+00  0.74505805969E-08  0.10566000000E+00  0.10566000000E+00 0. -1.
     999900   -1    0    0    0    0 -0.00000000000E+00 -0.00000000000E+00 -0.74505805969E-08  0.93827000000E+00  0.93827000000E+00 0.  1.
     999902    2    1    2    0    0  0.22046775436E-01 -0.31504327594E-02 -0.35844050870E-02  0.10213726621E+01  0.10211235387E+01 0.  0.
     999903    2    3    3    0    0  0.62764786960E-02  0.18342110991E-01  0.12795636257E+00  0.13119649680E+00  0.21537474999E-01 0.  0.
         14    1    1    2    0    0 -0.22046775436E-01  0.31504327594E-02  0.35844050870E-02  0.22557337908E-01  0.00000000000E+00 0. -1.
     999901    1    3    3    0    0  0.15770296740E-01 -0.21492543750E-01 -0.13154076766E+00  0.89017616529E+00  0.88000000000E+00 0.  1.
        -11    1    4    4    0    0 -0.50813885780E-02  0.15554703513E-01  0.57951660809E-01  0.60219809222E-01  0.51100000000E-03 0. -1.
         11    1    4    4    0    0  0.11357867274E-01  0.27874074777E-02  0.70004701764E-01  0.70976687578E-01  0.51100000000E-03 0.  1.
</event>
<event>
 8    1  0.1163913E+005  0.1043930E+01  0.7957747E-01            NaN
         13   -1    0    0    0    0  0.00000000000E+00  0.00000000000E+00  0.74505805969E-08  0.10566000000E+00  0.10566000000E+00 0.  1.
     999900   -1    0    0    0    0 -0.00000000000E+00 -0.00000000000E+00 -0.74505805969E-08  0.93827000000E+00  0.93827000000E+00 0. -1.
     999902    2    1    2    0    0  0.22923380885E-01  0.57293309250E-02  0.53797308539E-03  0.10202953636E+01  0.10200215845E+01 0.  0.
     999903    2    3    3    0    0 -0.35432619906E-01  0.73579262214E-01  0.99230399870E-01  0.13026770608E+00  0.21298464883E-01 0.  0.
         14    1    1    2    0    0 -0.22923380885E-01 -0.57293309250E-02 -0.53797308539E-03  0.23634636428E-01  0.00000000000E+00 0. -1.
     999901    1    3    3    0    0  0.58356000791E-01 -0.67849931289E-01 -0.98692426784E-01  0.89002765750E+00  0.88000000000E+00 0. -1.
        -11    1    4    4    0    0 -0.16409293684E-01  0.41207409134E-01  0.37846709922E-01  0.58309090712E-01  0.51100000000E-03 0.  1.
         11    1    4    4    0    0 -0.19023326222E-01  0.32371853081E-01  0.61383689947E-01  0.71958615363E-01  0.51100000000E-03 0. -1.
</event>
<event>
 8    1  0.1163913E+005  0.1043930E+01  0.7957747E-01            NaN
         13   -1    0    0    0    0  0.00000000000E+00  0.00000000000E+00  0.74505805969E-08  0.10566000000E+00  0.10566000000E+00 0.  1.
     999900   -1    0    0    0    0 -0.00000000000E+00 -0.00000000000E+00 -0.74505805969E-08  0.93827000000E+00  0.93827000000E+00 0.  1.
     999902    2    1    2    0    0  0.45593525029E-02  0.22546681294E-01 -0.52064456914E-02  0.10203450979E+01  0.10200724833E+01 0.  0.
     999903    2    3    3    0    0 -0.12090440595E-01  0.81357983234E-01  0.10089731369E+00  0.13186662732E+00  0.21053249150E-01 0.  0.
         14    1    1    2    0    0 -0.45593525029E-02 -0.22546681294E-01  0.52064456914E-02  0.23584902148E-01  0.00000000000E+00 0. -1.
     999901    1    3    3    0    0  0.16649793098E-01 -0.58811301941E-01 -0.10610375939E+00  0.88847847053E+00  0.88000000000E+00 0.  1.
        -11    1    4    4    0    0  0.38457814416E-02  0.18220943589E-01  0.32267884215E-01  0.37259499364E-01  0.51100000000E-03 0.  1.
         11    1    4    4    0    0 -0.15936222037E-01  0.63137039645E-01  0.68629429479E-01  0.94607127954E-01  0.51100000000E-03 0. -1.
</event>
<event>
 8    1  0.1163913E+005  0.1043930E+01  0.7957747E-01            NaN
         13   -1    0    0    0    0  0.00000000000E+00  0.00000000000E+00  0.74505805969E-08  0.10566000000E+00  0.10566000000E+00 0. -1.
     999900   -1    0    0    0    0 -0.00000000000E+00 -0.00000000000E+00 -0.74505805969E-08  0.93827000000E+00  0.93827000000E+00 0.  1.
     999902    2    1    2    0    0 -0.20331317790E-01  0.72502452534E-02  0.12788945844E-01  0.10188404469E+01  0.10185314774E+01 0.  0.
     999903    2    3    3    0    0  0.37853458477E-01 -0.10963717678E+00 -0.48546300586E-01  0.12709488336E+00  0.18524881241E-01 0.  0.
         14    1    1    2    0    0  0.20331317790E-01 -0.72502452534E-02 -0.12788945844E-01  0.25089553107E-01  0.00000000000E+00 0.  1.
     999901    1    3    3    0    0 -0.58184776267E-01  0.11688742204E+00  0.61335246430E-01  0.89174556353E+00  0.88000000000E+00 0. -1.
        -11    1    4    4    0    0  0.34393187837E-01 -0.76351294460E-01 -0.38363524240E-01  0.92110980065E-01  0.51100000000E-03 0.  1.
         11    1    4    4    0    0  0.34602706393E-02 -0.33285882323E-01 -0.10182776347E-01  0.34983903299E-01  0.51100000000E-03 0. -1.
</event>
<event>
 8    1  0.1163913E+005  0.1043930E+01  0.7957747E-01            NaN
         13   -1    0    0    0    0  0.00000000000E+00  0.00000000000E+00  0.74505805969E-08  0.10566000000E+00  0.10566000000E+00 0. -1.
     999900   -1    0    0    0    0 -0.00000000000E+00 -0.00000000000E+00 -0.74505805969E-08  0.93827000000E+00  0.93827000000E+00 0. -1.
     999902    2    1    2    0    0  0.22459501683E-01 -0.80090845984E-02  0.10821732474E-01  0.10177444210E+01  0.10174075005E+01 0.  0.
     999903    2    3    3    0    0  0.33580777388E-01  0.46126519877E-01 -0.11220554458E+00  0.12746915049E+00  0.20074253336E-01 0.  0.
         14    1    1    2    0    0 -0.22459501683E-01  0.80090845984E-02 -0.10821732474E-01  0.26185578964E-01  0.00000000000E+00 0.  1.
     999901    1    3    3    0    0 -0.11121275706E-01 -0.54135604475E-01  0.12302727705E+00  0.89027527054E+00  0.88000000000E+00 0.  1.
        -11    1    4    4    0    0  0.11094762435E-01  0.30293371247E-01 -0.70191462103E-01  0.77252084556E-01  0.51100000000E-03 0. -1.
         11    1    4    4    0    0  0.22486014953E-01  0.15833148630E-01 -0.42014082474E-01  0.50217065936E-01  0.51100000000E-03 0.  1.
</event>
<event>
 8    1  0.1163913E+005  0.1043930E+01  0.7957747E-01            NaN
         13   -1    0    0    0    0  0.00000000000E+00  0.00000000000E+00  0.74505805969E-08  0.10566000000E+00  0.10566000000E+00 0. -1.
     999900   -1    0    0    0    0 -0.00000000000E+00 -0.00000000000E+00 -0.74505805969E-08  0.93827000000E+00  0.93827000000E+00 0.  1.
     999902    2    1    2    0    0  0.13552182602E-01  0.93917430292E-02 -0.16127124160E-01  0.10208659452E+01  0.10206053730E+01 0.  0.
     999903    2    3    3    0    0 -0.11283607518E+00 -0.55731957393E-01  0.18897465833E-01  0.12876628150E+00  0.19636957497E-01 0.  0.
         14    1    1    2    0    0 -0.13552182602E-01 -0.93917430292E-02  0.16127124160E-01  0.23064054806E-01  0.00000000000E+00 0. -1.
     999901    1    3    3    0    0  0.12638825778E+00  0.65123700422E-01 -0.35024589993E-01  0.89209966370E+00  0.88000000000E+00 0. -1.
        -11    1    4    4    0    0 -0.46070880744E-01 -0.33065971034E-01  0.11546284349E-01  0.57874539275E-01  0.51100000000E-03 0. -1.
         11    1    4    4    0    0 -0.66765194433E-01 -0.22665986358E-01  0.73511814840E-02  0.70891742224E-01  0.51100000000E-03 0.  1.
</event>
<event>
 8    1  0.1163913E+005  0.1043930E+01  0.7957747E-01            NaN
         13   -1    0    0    0    0  0.00000000000E+00  0.00000000000E+00  0.74505805969E-08  0.10566000000E+00  0.10566000000E+00 0. -1.
     999900   -1    0    0    0    0 -0.00000000000E+00 -0.00000000000E+00 -0.74505805969E-08  0.93827000000E+00  0.93827000000E+00 0. -1.
     999902    2    1    2    0    0 -0.12319245602E-01 -0.12945656833E-01  0.13942235599E-01  0.10212641716E+01  0.10210126191E+01 0.  0.
     999903    2    3    3    0    0 -0.10160256413E+00  0.80676378921E-01 -0.88931146248E-02  0.13151249290E+00  0.19613494016E-01 0.  0.
         14    1    1    2    0    0  0.12319245602E-01  0.12945656833E-01 -0.13942235599E-01  0.22665828389E-01  0.00000000000E+00 0.  1.
     999901    1    3    3    0    0  0.89283318529E-01 -0.93622035755E-01  0.22835350224E-01  0.88975167871E+00  0.88000000000E+00 0.  1.
        -11    1    4    4    0    0 -0.19574558468E-01  0.70681933293E-02 -0.39420924973E-02  0.21187824579E-01  0.51100000000E-03 0.  1.
         11    1    4    4    0    0 -0.82028005664E-01  0.73608185592E-01 -0.49510221274E-02  0.11032466832E+00  0.51100000000E-03 0. -1.
</event>
<event>
 8    1  0.1163913E+005  0.1043930E+01  0.7957747E-01            NaN
         13   -1    0    0    0    0  0.00000000000E+00  0.00000000000E+00  0.74505805969E-08  0.10566000000E+00  0.10566000000E+00 0.  1.
     999900   -1    0    0    0    0 -0.00000000000E+00 -0.00000000000E+00 -0.74505805969E-08  0.93827000000E+00  0.93827000000E+00 0. -1.
     999902    2    1    2    0    0 -0.21181266120E-01 -0.88835517535E-02  0.34370705375E-03  0.10209586774E+01  0.10207002201E+01 0.  0.
     999903    2    3    3    0    0  0.80405890813E-01  0.78458022266E-03 -0.99713065420E-01  0.12942921580E+00  0.18533851296E-01 0.  0.
         14    1    1    2    0    0  0.21181266120E-01  0.88835517535E-02 -0.34370705375E-03  0.22971322573E-01  0.00000000000E+00 0. -1.
     999901    1    3    3    0    0 -0.10158715693E+00 -0.96681319761E-02  0.10005677247E+00  0.89152946163E+00  0.88000000000E+00 0.  1.
        -11    1    4    4    0    0  0.62106168558E-01  0.72733311686E-02 -0.82157835084E-01  0.10324847944E+00  0.51100000000E-03 0. -1.
         11    1    4    4    0    0  0.18299722254E-01 -0.64887509459E-02 -0.17555230336E-01  0.26180736364E-01  0.51100000000E-03 0.  1.
</event>
<event>
 8    1  0.1163913E+005  0.1043930E+01  0.7957747E-01            NaN
         13   -1    0    0    0    0  0.00000000000E+00  0.00000000000E+00  0.74505805969E-08  0.10566000000E+00  0.10566000000E+00 0. -1.
     999900   -1    0    0    0    0 -0.00000000000E+00 -0.00000000000E+00 -0.74505805969E-08  0.93827000000E+00  0.93827000000E+00 0. -1.
     999902    2    1    2    0    0  0.11395551115E-01  0.16051489706E-01  0.97715445681E-02  0.10219529213E+01  0.10217165856E+01 0.  0.
     999903    2    3    3    0    0 -0.42667729780E-01  0.12497788148E+00  0.59650088285E-02  0.13358234155E+00  0.19200380764E-01 0.  0.
         14    1    1    2    0    0 -0.11395551115E-01 -0.16051489706E-01 -0.97715445681E-02  0.21977078747E-01  0.00000000000E+00 0.  1.
     999901    1    3    3    0    0  0.54063280895E-01 -0.10892639177E+00  0.38065357396E-02  0.88837057970E+00  0.88000000000E+00 0.  1.
        -11    1    4    4    0    0 -0.64810600133E-02  0.35049378900E-01  0.83635689756E-02  0.36615208687E-01  0.51100000000E-03 0. -1.
         11    1    4    4    0    0 -0.36186669767E-01  0.89928502575E-01 -0.23985601471E-02  0.96967132865E-01  0.51100000000E-03 0.  1.
</event>
<event>
 8    1  0.1163913E+005  0.1043930E+01  0.7957747E-01            NaN
         13   -1    0    0    0    0  0.00000000000E+00  0.00000000000E+00  0.74505805969E-08  0.10566000000E+00  0.10566000000E+00 0.  1.
     999900   -1    0    0    0    0 -0.00000000000E+00 -0.00000000000E+00 -0.74505805969E-08  0.93827000000E+00  0.93827000000E+00 0. -1.
     999902    2    1    2    0    0 -0.16876673865E-01 -0.27982308855E-02  0.16774015198E-01  0.10199712896E+01  0.10196898606E+01 0.  0.
     999903    2    3    3    0    0  0.50939301808E-01  0.11608045010E+00  0.15540608285E-01  0.12939132767E+00  0.20763472895E-01 0.  0.
         14    1    1    2    0    0  0.16876673865E-01  0.27982308855E-02 -0.16774015198E-01  0.23958710372E-01  0.00000000000E+00 0. -1.
     999901    1    3    3    0    0 -0.67815975673E-01 -0.11887868098E+00  0.12334069124E-02  0.89057996196E+00  0.88000000000E+00 0.  1.
        -11    1    4    4    0    0  0.24474364380E-01  0.62382721176E-01  0.18276706430E-01  0.69461482363E-01  0.51100000000E-03 0.  1.
         11    1    4    4    0    0  0.26464937428E-01  0.53697728922E-01 -0.27360981447E-02  0.59929845307E-01  0.51100000000E-03 0. -1.
</event>
<event>
 8    1  0.1163913E+005  0.1043930E+01  0.7957747E-01            NaN
         13   -1    0    0    0    0  0.00000000000E+00  0.00000000000E+00  0.74505805969E-08  0.10566000000E+00  0.10566000000E+00 0.  1.
     999900   -1    0    0    0    0 -0.00000000000E+00 -0.00000000000E+00 -0.74505805969E-08  0.93827000000E+00  0.93827000000E+00 0.  1.
     999902    2    1    2    0    0  0.21474900631E-02  0.18540590827E-01  0.16118236471E-01  0.10192690436E+01  0.10189706672E+01 0.  0.
     999903    2    3    3    0    0  0.11872999138E+00  0.39504269189E-01  0.32843254538E-01  0.13117519631E+00  0.21699184794E-01 0.  0.
         14    1    1    2    0    0 -0.21474900631E-02 -0.18540590827E-01 -0.16118236471E-01  0.24660956363E-01  0.00000000000E+00 0. -1.
     999901    1    3    3    0    0 -0.11658250132E+00 -0.20963678362E-01 -0.16725018067E-01  0.88809384732E+00  0.88000000000E+00 0.  1.
        -11    1    4    4    0    0  0.81520006870E-01  0.33375673204E-01  0.14640798711E-01  0.89297599015E-01  0.51100000000E-03 0. -1.
         11    1    4    4    0    0  0.37209984515E-01  0.61285959844E-02  0.18202455827E-01  0.41877597298E-01  0.51100000000E-03 0.  1.
</event>
<event>
 8    1  0.1163913E+005  0.1043930E+01  0.7957747E-01            NaN
         13   -1    0    0    0    0  0.00000000000E+00  0.00000000000E+00  0.74505805969E-08  0.10566000000E+00  0.10566000000E+00 0.  1.
     999900   -1    0    0    0    0 -0.00000000000E+00 -0.00000000000E+00 -0.74505805969E-08  0.93827000000E+00  0.93827000000E+00 0. -1.
     999902    2    1    2    0    0 -0.64904989394E-02 -0.76849734507E-03 -0.22090947506E-01  0.10208924844E+01  0.10206325184E+01 0.  0.
     999903    2    3    3    0    0 -0.62441440776E-03 -0.12341820378E+00 -0.43609995269E-01  0.13210655353E+00  0.17828821660E-01 0.  0.
         14    1    1    2    0    0  0.64904989394E-02  0.76849734507E-03  0.22090947506E-01  0.23037515629E-01  0.00000000000E+00 0.  1.
     999901    1    3    3    0    0 -0.58660845316E-02  0.12264970643E+00  0.21519047763E-01  0.88878593084E+00  0.88000000000E+00 0.  1.
        -11    1    4    4    0    0 -0.72268351505E-02 -0.40298185978E-01 -0.19208213822E-01  0.45225960893E-01  0.51100000000E-03 0.  1.
         11    1    4    4    0    0  0.66024207427E-02 -0.83120017802E-01 -0.24401781447E-01  0.86880592642E-01  0.51100000000E-03 0. -1.
</event>
<event>
 8    1  0.1163913E+005  0.1043930E+01  0.7957747E-01            NaN
         13   -1    0    0    0    0  0.00000000000E+00  0.00000000000E+00  0.74505805969E-08  0.10566000000E+00  0.10566000000E+00 0.  1.
     999900   -1    0    0    0    0 -0.00000000000E+00 -0.00000000000E+00 -0.74505805969E-08  0.93827000000E+00  0.93827000000E+00 0.  1.
     999902    2    1    2    0    0 -0.18847893885E-01  0.13691540515E-01  0.36810397612E-02  0.10203450167E+01  0.10200724002E+01 0.  0.
     999903    2    3    3    0    0 -0.93070219862E-01 -0.20037695953E-01 -0.89023156433E-01  0.13172772949E+00  0.19065603844E-01 0.  0.
         14    1    1    2    0    0  0.18847893885E-01 -0.13691540515E-01 -0.36810397612E-02  0.23584983343E-01  0.00000000000E+00 0.  1.
     999901    1    3    3    0    0  0.74222325978E-01  0.33729236468E-01  0.92704196195E-01  0.88861728717E+00  0.88000000000E+00 0. -1.
        -11    1    4    4    0    0 -0.76177245367E-01 -0.15557665032E-01 -0.61559700126E-01  0.99170920403E-01  0.51100000000E-03 0. -1.
         11    1    4    4    0    0 -0.16892974495E-01 -0.44800309211E-02 -0.27463456307E-01  0.32556809083E-01  0.51100000000E-03 0.  1.
</event>
<event>
 8    1  0.1163913E+005  0.1043930E+01  0.7957747E-01            NaN
         13   -1    0    0    0    0  0.00000000000E+00  0.00000000000E+00  0.74505805969E-08  0.10566000000E+00  0.10566000000E+00 0. -1.
     999900   -1    0    0    0    0 -0.00000000000E+00 -0.00000000000E+00 -0.74505805969E-08  0.93827000000E+00  0.93827000000E+00 0.  1.
     999902    2    1    2    0    0  0.13793669297E-01 -0.67439530987E-02 -0.19091770569E-01  0.10194301649E+01  0.10191357217E+01 0.  0.
     999903    2    3    3    0    0  0.10566663272E+00  0.53382677681E-01  0.49687500332E-01  0.12994354823E+00  0.20033234691E-01 0.  0.
         14    1    1    2    0    0 -0.13793669297E-01  0.67439530987E-02  0.19091770569E-01  0.24499835093E-01  0.00000000000E+00 0. -1.
     999901    1    3    3    0    0 -0.91872963420E-01 -0.60126630779E-01 -0.68779270901E-01  0.88948661667E+00  0.88000000000E+00 0.  1.
        -11    1    4    4    0    0  0.85853591490E-01  0.34337285252E-01  0.35891208215E-01  0.99188347492E-01  0.51100000000E-03 0.  1.
         11    1    4    4    0    0  0.19813041227E-01  0.19045392429E-01  0.13796292117E-01  0.30755200741E-01  0.51100000000E-03 0. -1.
</event>
<event>
 8    1  0.1163913E+005  0.1043930E+01  0.7957747E-01            NaN
         13   -1    0    0    0    0  0.00000000000E+00  0.00000000000E+00  0.74505805969E-08  0.10566000000E+00  0.10566000000E+00 0. -1.
     999900   -1    0    0    0    0 -0.00000000000E+00 -0.00000000000E+00 -0.74505805969E-08  0.93827000000E+00  0.93827000000E+00 0. -1.
     999902    2    1    2    0    0  0.63584086144E-02 -0.21373613416E-01  0.14195269386E-01  0.10174958103E+01  0.10171523768E+01 0.  0.
     999903    2    3    3    0    0  0.97633150803E-03 -0.85480836531E-01  0.97575908497E-01  0.13121648992E+00  0.19717572633E-01 0.  0.
         14    1    1    2    0    0 -0.63584086144E-02  0.21373613416E-01 -0.14195269386E-01  0.26434189669E-01  0.00000000000E+00 0.  1.
     999901    1    3    3    0    0  0.53820771064E-02  0.64107223115E-01 -0.83380639111E-01  0.88627932041E+00  0.88000000000E+00 0. -1.
        -11    1    4    4    0    0  0.17613932277E-02 -0.28818880980E-01  0.19918285795E-01  0.35080331200E-01  0.51100000000E-03 0.  1.
         11    1    4    4    0    0 -0.78506171965E-03 -0.56661955551E-01  0.77657622701E-01  0.96136158720E-01  0.51100000000E-03 0. -1.
</event>
<event>
 8    1  0.1163913E+005  0.1043930E+01  0.7957747E-01            NaN
         13   -1    0    0    0    0  0.00000000000E+00  0.00000000000E+00  0.74505805969E-08  0.10566000000E+00  0.10566000000E+00 0. -1.
     999900   -1    0    0    0    0 -0.00000000000E+00 -0.00000000000E+00 -0.74505805969E-08  0.93827000000E+00  0.93827000000E+00 0.  1.
     999902    2    1    2    0    0 -0.98953426704E-02 -0.19712996337E-01 -0.95222580871E-02  0.10199051497E+01  0.10196221462E+01 0.  0.
     999903    2    3    3    0    0  0.11625080815E-01 -0.16465544032E-01 -0.12840998402E+00  0.13164394606E+00  0.20850608973E-01 0.  0.
         14    1    1    2    0    0  0.98953426704E-02  0.19712996337E-01  0.95222580871E-02  0.24024850264E-01  0.00000000000E+00 0. -1.
     999901    1    3    3    0    0 -0.21520423486E-01 -0.32474523051E-02  0.11888772593E+00  0.88826120367E+00  0.88000000000E+00 0. -1.
        -11    1    4    4    0    0 -0.60880549219E-02 -0.41451302531E-02 -0.35605303702E-01  0.36362690910E-01  0.51100000000E-03 0.  1.
         11    1    4    4    0    0  0.17713135737E-01 -0.12320413779E-01 -0.92804680318E-01  0.95281255152E-01  0.51100000000E-03 0. -1.
</event>
<event>
 8    1  0.1163913E+005  0.1043930E+01  0.7957747E-01            NaN
         13   -1    0    0    0    0  0.00000000000E+00  0.00000000000E+00  0.74505805969E-08  0.10566000000E+00  0.10566000000E+00 0. -1.
     999900   -1    0    0    0    0 -0.00000000000E+00 -0.00000000000E+00 -0.74505805969E-08  0.93827000000E+00  0.93827000000E+00 0.  1.
     999902    2    1    2    0    0  0.14585787146E-01 -0.62085851256E-02  0.16656122830E-01  0.10209361281E+01  0.10206771574E+01 0.  0.
     999903    2    3    3    0    0 -0.47101716068E-01  0.11494821058E+00  0.33889958776E-01  0.13032885087E+00  0.20134976828E-01 0.  0.
         14    1    1    2    0    0 -0.14585787146E-01  0.62085851256E-02 -0.16656122830E-01  0.22993871872E-01  0.00000000000E+00 0. -1.
     999901    1    3    3    0    0  0.61687503214E-01 -0.12115679571E+00 -0.17233835946E-01  0.89060727726E+00  0.88000000000E+00 0. -1.
        -11    1    4    4    0    0 -0.18979083856E-01  0.63834766571E-01  0.25835526871E-01  0.71434015825E-01  0.51100000000E-03 0.  1.
         11    1    4    4    0    0 -0.28122632211E-01  0.51113444009E-01  0.80544319051E-02  0.58894835048E-01  0.51100000000E-03 0. -1.
</event>
<event>
 8    1  0.1163913E+005  0.1043930E+01  0.7957747E-01            NaN
         13   -1    0    0    0    0  0.00000000000E+00  0.00000000000E+00  0.74505805969E-08  0.10566000000E+00  0.10566000000E+00 0.  1.
     999900   -1    0    0    0    0 -0.00000000000E+00 -0.00000000000E+00 -0.74505805969E-08  0.93827000000E+00  0.93827000000E+00 0.  1.
     999902    2    1    2    0    0  0.57745662224E-02 -0.43783101580E-02 -0.22770098267E-01  0.10200345488E+01  0.10197546215E+01 0.  0.
     999903    2    3    3    0    0 -0.30960381297E-01 -0.11204240692E+00  0.53597410028E-01  0.12943193793E+00  0.19180668260E-01 0.  0.
         14    1    1    2    0    0 -0.57745662224E-02  0.43783101580E-02  0.22770098267E-01  0.23895451241E-01  0.00000000000E+00 0.  1.
     999901    1    3    3    0    0  0.36734947519E-01  0.10766409676E+00 -0.76367508296E-01  0.89060261083E+00  0.88000000000E+00 0.  1.
        -11    1    4    4    0    0  0.13130611704E-02 -0.23847937059E-01  0.11487446122E-01  0.26507937887E-01  0.51100000000E-03 0. -1.
         11    1    4    4    0    0 -0.32273442467E-01 -0.88194469861E-01  0.42109963906E-01  0.10292400004E+00  0.51100000000E-03 0.  1.
</event>
<event>
 8    1  0.1163913E+005  0.1043930E+01  0.7957747E-01            NaN
         13   -1    0    0    0    0  0.00000000000E+00  0.00000000000E+00  0.74505805969E-08  0.10566000000E+00  0.10566000000E+00 0.  1.
     999900   -1    0    0    0    0 -0.00000000000E+00 -0.00000000000E+00 -0.74505805969E-08  0.93827000000E+00  0.93827000000E+00 0.  1.
     999902    2    1    2    0    0 -0.22612246764E-01  0.42160801055E-02 -0.64988231855E-02  0.10200276207E+01  0.10197475291E+01 0.  0.
     999903    2    3    3    0    0 -0.28848196008E-01 -0.96348743682E-01 -0.81177418173E-01  0.13113557806E+00  0.22169072850E-01 0.  0.
         14    1    1    2    0    0  0.22612246764E-01 -0.42160801055E-02  0.64988231855E-02  0.23902379337E-01  0.00000000000E+00 0. -1.
     999901    1    3    3    0    0  0.62359492446E-02  0.10056482379E+00  0.74678594988E-01  0.88889204260E+00  0.88000000000E+00 0. -1.
        -11    1    4    4    0    0 -0.93110970440E-02 -0.19537406451E-01 -0.29215532828E-01  0.36362277960E-01  0.51100000000E-03 0. -1.
         11    1    4    4    0    0 -0.19537098964E-01 -0.76811337231E-01 -0.51961885345E-01  0.94773300105E-01  0.51100000000E-03 0.  1.
</event>
<event>
 8    1  0.1163913E+005  0.1043930E+01  0.7957747E-01            NaN
         13   -1    0    0    0    0  0.00000000000E+00  0.00000000000E+00  0.74505805969E-08  0.10566000000E+00  0.10566000000E+00 0. -1.
     999900   -1    0    0    0    0 -0.00000000000E+00 -0.00000000000E+00 -0.74505805969E-08  0.93827000000E+00  0.93827000000E+00 0.  1.
     999902    2    1    2    0    0  0.10800057884E-01 -0.53332134700E-02 -0.24679603042E-01  0.10164678948E+01  0.10160968526E+01 0.  0.
     999903    2    3    3    0    0  0.47417122048E-01 -0.11738066747E+00  0.31133415458E-02  0.12817296117E+00  0.19799255525E-01 0.  0.
         14    1    1    2    0    0 -0.10800057884E-01  0.53332134700E-02  0.24679603042E-01  0.27462105209E-01  0.00000000000E+00 0. -1.
     999901    1    3    3    0    0 -0.36617064164E-01  0.11204745400E+00 -0.27792944588E-01  0.88829493363E+00  0.88000000000E+00 0.  1.
        -11    1    4    4    0    0  0.34934649224E-01 -0.91125838417E-01 -0.57873066360E-02  0.97765547013E-01  0.51100000000E-03 0.  1.
         11    1    4    4    0    0  0.12482472824E-01 -0.26254829052E-01  0.89006481817E-02  0.30407414152E-01  0.51100000000E-03 0. -1.
</event>
<event>
 8    1  0.1260212E+005  0.1043930E+01  0.7957747E-01            NaN
         13   -1    0    0    0    0  0.00000000000E+00  0.00000000000E+00  0.74505805969E-08  0.10566000000E+00  0.10566000000E+00 0. -1.
     999900   -1    0    0    0    0 -0.00000000000E+00 -0.00000000000E+00 -0.74505805969E-08  0.93827000000E+00  0.93827000000E+00 0.  1.
     999902    2    1    2    0    0  0.12332261609E-01 -0.91984860946E-02  0.17690497282E-01  0.10204853734E+01  0.10202160295E+01 0.  0.
     999903    2    3    3    0    0 -0.53398387673E-01  0.11534603063E+00  0.12104195719E-01  0.12927099869E+00  0.20208536798E-01 0.  0.
         14    1    1    2    0    0 -0.12332261609E-01  0.91984860946E-02 -0.17690497282E-01  0.23444626611E-01  0.00000000000E+00 0.  1.
     999901    1    3    3    0    0  0.65730649282E-01 -0.12454451673E+00  0.55863015629E-02  0.89121437470E+00  0.88000000000E+00 0.  1.
        -11    1    4    4    0    0 -0.18016448727E-01  0.52661248773E-01  0.13502598471E-01  0.57274608977E-01  0.51100000000E-03 0.  1.
         11    1    4    4    0    0 -0.35381938946E-01  0.62684781862E-01 -0.13984027520E-02  0.71996389715E-01  0.51100000000E-03 0. -1.
</event>
<event>
 8    1  0.1163913E+005  0.1043930E+01  0.7957747E-01            NaN
         13   -1    0    0    0    0  0.00000000000E+00  0.00000000000E+00  0.74505805969E-08  0.10566000000E+00  0.10566000000E+00 0. -1.
     999900   -1    0    0    0    0 -0.00000000000E+00 -0.00000000000E+00 -0.74505805969E-08  0.93827000000E+00  0.93827000000E+00 0. -1.
     999902    2    1    2    0    0  0.10572740613E-01  0.19139230005E-01 -0.90095955551E-02  0.10202811992E+01  0.10200070880E+01 0.  0.
     999903    2    3    3    0    0  0.11249334821E+00 -0.19935843143E-01 -0.62960508283E-01  0.13189762627E+00  0.19513251356E-01 0.  0.
         14    1    1    2    0    0 -0.10572740613E-01 -0.19139230005E-01  0.90095955551E-02  0.23648800843E-01  0.00000000000E+00 0. -1.
     999901    1    3    3    0    0 -0.10192060760E+00  0.39075073148E-01  0.53950912728E-01  0.88838357289E+00  0.88000000000E+00 0.  1.
        -11    1    4    4    0    0  0.23205087654E-01  0.26456145744E-02 -0.82645338259E-02  0.24779810530E-01  0.51100000000E-03 0. -1.
         11    1    4    4    0    0  0.89288260556E-01 -0.22581457717E-01 -0.54695974457E-01  0.10711781574E+00  0.51100000000E-03 0.  1.
</event>
<event>
 8    1  0.1163913E+005  0.1043930E+01  0.7957747E-01            NaN
         13   -1    0    0    0    0  0.00000000000E+00  0.00000000000E+00  0.74505805969E-08  0.10566000000E+00  0.10566000000E+00 0. -1.
     999900   -1    0    0    0    0 -0.00000000000E+00 -0.00000000000E+00 -0.74505805969E-08  0.93827000000E+00  0.93827000000E+00 0. -1.
     999902    2    1    2    0    0  0.99969835680E-02 -0.14951509762E-01  0.15073783281E-01  0.10204628684E+01  0.10201930011E+01 0.  0.
     999903    2    3    3    0    0  0.11147563679E+00  0.21297478670E-01  0.65243481219E-01  0.13247136795E+00  0.20286726924E-01 0.  0.
         14    1    1    2    0    0 -0.99969835680E-02  0.14951509762E-01 -0.15073783281E-01  0.23467131632E-01  0.00000000000E+00 0.  1.
     999901    1    3    3    0    0 -0.10147865322E+00 -0.36248988432E-01 -0.50169697939E-01  0.88799150042E+00  0.88000000000E+00 0. -1.
        -11    1    4    4    0    0  0.64591903940E-01  0.21945818186E-01  0.35016229368E-01  0.76682008520E-01  0.51100000000E-03 0.  1.
         11    1    4    4    0    0  0.46883732852E-01 -0.64833951646E-03  0.30227251852E-01  0.55789359431E-01  0.51100000000E-03 0. -1.
</event>
<event>
 8    1  0.1163913E+005  0.1043930E+01  0.7957747E-01            NaN
         13   -1    0    0    0    0  0.00000000000E+00  0.00000000000E+00  0.74505805969E-08  0.10566000000E+00  0.10566000000E+00 0.  1.
     999900   -1    0    0    0    0 -0.00000000000E+00 -0.00000000000E+00 -0.74505805969E-08  0.93827000000E+00  0.93827000000E+00 0.  1.
     999902    2    1    2    0    0 -0.15867563649E-01  0.73408025578E-02 -0.15954042321E-01  0.10202614888E+01  0.10199869151E+01 0.  0.
     999903    2    3    3    0    0  0.50111598495E-02  0.62606721242E-01 -0.11556461622E+00  0.13267345971E+00  0.17388304209E-01 0.  0.
         14    1    1    2    0    0  0.15867563649E-01 -0.73408025578E-02  0.15954042321E-01  0.23668511248E-01  0.00000000000E+00 0.  1.
     999901    1    3    3    0    0 -0.20878723498E-01 -0.55265918684E-01  0.99610573895E-01  0.88758802904E+00  0.88000000000E+00 0. -1.
        -11    1    4    4    0    0 -0.62628601972E-02  0.20647940125E-01 -0.42478436060E-01  0.47647030341E-01  0.51100000000E-03 0. -1.
         11    1    4    4    0    0  0.11274020047E-01  0.41958781116E-01 -0.73086180156E-01  0.85026429371E-01  0.51100000000E-03 0.  1.
</event>
<event>
 8    1  0.1163913E+005  0.1043930E+01  0.7957747E-01            NaN
         13   -1    0    0    0    0  0.00000000000E+00  0.00000000000E+00  0.74505805969E-08  0.10566000000E+00  0.10566000000E+00 0.  1.
     999900   -1    0    0    0    0 -0.00000000000E+00 -0.00000000000E+00 -0.74505805969E-08  0.93827000000E+00  0.93827000000E+00 0.  1.
     999902    2    1    2    0    0  0.12980360295E-01 -0.10780240805E-02 -0.19781555414E-01  0.10202453673E+01  0.10199704151E+01 0.  0.
     999903    2    3    3    0    0  0.27667300895E-01 -0.12400833696E+00  0.19299055463E-01  0.13072029058E+00  0.23912207176E-01 0.  0.
         14    1    1    2    0    0 -0.12980360295E-01  0.10780240805E-02  0.19781555414E-01  0.23684632653E-01  0.00000000000E+00 0.  1.
     999901    1    3    3    0    0 -0.14686940600E-01  0.12293031288E+00 -0.39080610878E-01  0.88952507677E+00  0.88000000000E+00 0. -1.
        -11    1    4    4    0    0  0.69801763727E-02 -0.61722492379E-01  0.19432809006E-01  0.65086743002E-01  0.51100000000E-03 0. -1.
         11    1    4    4    0    0  0.20687124522E-01 -0.62285844585E-01 -0.13375354316E-03  0.65633547578E-01  0.51100000000E-03 0.  1.
</event>
<event>
 8    1  0.1163913E+005  0.1043930E+01  0.7957747E-01            NaN
         13   -1    0    0    0    0  0.00000000000E+00  0.00000000000E+00  0.74505805969E-08  0.10566000000E+00  0.10566000000E+00 0.  1.
     999900   -1    0    0    0    0 -0.00000000000E+00 -0.00000000000E+00 -0.74505805969E-08  0.93827000000E+00  0.93827000000E+00 0. -1.
     999902    2    1    2    0    0  0.15825320710E-01 -0.18351255240E-01  0.12728844869E-02  0.10196641891E+01  0.10193754112E+01 0.  0.
     999903    2    3    3    0    0 -0.16227954515E-01  0.87924727939E-01  0.90178765437E-01  0.12824607578E+00  0.17909269310E-01 0.  0.
         14    1    1    2    0    0 -0.15825320710E-01  0.18351255240E-01 -0.12728844869E-02  0.24265810915E-01  0.00000000000E+00 0. -1.
     999901    1    3    3    0    0  0.32053275225E-01 -0.10627598318E+00 -0.88905880951E-01  0.89141811330E+00  0.88000000000E+00 0. -1.
        -11    1    4    4    0    0 -0.10887810625E-01  0.18671551574E-01  0.24078908272E-01  0.32360874570E-01  0.51100000000E-03 0.  1.
         11    1    4    4    0    0 -0.53401438899E-02  0.69253176366E-01  0.66099857166E-01  0.95885201214E-01  0.51100000000E-03 0. -1.
</event>
<event>
 8    1  0.1163913E+005  0.1043930E+01  0.7957747E-01            NaN
         13   -1    0    0    0    0  0.00000000000E+00  0.00000000000E+00  0.74505805969E-08  0.10566000000E+00  0.10566000000E+00 0. -1.
     999900   -1    0    0    0    0 -0.00000000000E+00 -0.00000000000E+00 -0.74505805969E-08  0.93827000000E+00  0.93827000000E+00 0.  1.
     999902    2    1    2    0    0  0.13148730174E-01  0.26714004016E-02 -0.22870205020E-01  0.10174144996E+01  0.10170689220E+01 0.  0.
     999903    2    3    3    0    0 -0.10440375945E+00 -0.62235019588E-01 -0.31132804893E-01  0.12718997636E+00  0.20849361990E-01 0.  0.
         14    1    1    2    0    0 -0.13148730174E-01 -0.26714004016E-02  0.22870205020E-01  0.26515500428E-01  0.00000000000E+00 0. -1.
     999901    1    3    3    0    0  0.11755248962E+00  0.64906419989E-01  0.82625998734E-02  0.89022452321E+00  0.88000000000E+00 0.  1.
        -11    1    4    4    0    0 -0.68777102759E-01 -0.38658679931E-01 -0.30122994936E-01  0.84453770448E-01  0.51100000000E-03 0. -1.
         11    1    4    4    0    0 -0.35626656691E-01 -0.23576339656E-01 -0.10098099577E-02  0.42736205911E-01  0.51100000000E-03 0.  1.
</event>
<event>
 8    1  0.1163913E+005  0.1043930E+01  0.7957747E-01            NaN
         13   -1    0    0    0    0  0.00000000000E+00  0.00000000000E+00  0.74505805969E-08  0.10566000000E+00  0.10566000000E+00 0. -1.
     999900   -1    0    0    0    0 -0.00000000000E+00 -0.00000000000E+00 -0.74505805969E-08  0.93827000000E+00  0.93827000000E+00 0. -1.
     999902    2    1    2    0    0  0.13294320301E-01  0.17727997322E-01 -0.91260036704E-02  0.10199653430E+01  0.10196837726E+01 0.  0.
     999903    2    3    3    0    0 -0.91389601012E-01 -0.20593286873E-01  0.84355412676E-01  0.12802026657E+00  0.22298214420E-01 0.  0.
         14    1    1    2    0    0 -0.13294320301E-01 -0.17727997322E-01  0.91260036704E-02  0.23964656983E-01  0.00000000000E+00 0. -1.
     999901    1    3    3    0    0  0.10468392131E+00  0.38321284195E-01 -0.93481416347E-01  0.89194507645E+00  0.88000000000E+00 0. -1.
        -11    1    4    4    0    0 -0.46700488243E-01 -0.14106628299E-01  0.57774305526E-01  0.75617881907E-01  0.51100000000E-03 0. -1.
         11    1    4    4    0    0 -0.44689112769E-01 -0.64866585740E-02  0.26581107150E-01  0.52402384658E-01  0.51100000000E-03 0.  1.
</event>
<event>
 8    1  0.1163913E+005  0.1043930E+01  0.7957747E-01            NaN
         13   -1    0    0    0    0  0.00000000000E+00  0.00000000000E+00  0.74505805969E-08  0.10566000000E+00  0.10566000000E+00 0.  1.
     999900   -1    0    0    0    0 -0.00000000000E+00 -0.00000000000E+00 -0.74505805969E-08  0.93827000000E+00  0.93827000000E+00 0.  1.
     999902    2    1    2    0    0 -0.14826122284E-01  0.15941126032E-01  0.19056771766E-02  0.10220767392E+01  0.10218430877E+01 0.  0.
     999903    2    3    3    0    0 -0.45762911354E-01 -0.42760143454E-01  0.11493775897E+00  0.13236938538E+00  0.19705121844E-01 0.  0.
         14    1    1    2    0    0  0.14826122284E-01 -0.15941126032E-01 -0.19056771766E-02  0.21853260779E-01  0.00000000000E+00 0.  1.
     999901    1    3    3    0    0  0.30936789069E-01  0.58701269486E-01 -0.11303208179E+00  0.88970735384E+00  0.88000000000E+00 0.  1.
        -11    1    4    4    0    0 -0.38086093360E-01 -0.33135858417E-01  0.10511967045E+00  0.11661450106E+00  0.51100000000E-03 0.  1.
         11    1    4    4    0    0 -0.76768179939E-02 -0.96242850372E-02  0.98180885142E-02  0.15754884324E-01  0.51100000000E-03 0. -1.
</event>
<event>
 8    1  0.1163913E+005  0.1043930E+01  0.7957747E-01            NaN
         13   -1    0    0    0    0  0.00000000000E+00  0.00000000000E+00  0.74505805969E-08  0.10566000000E+00  0.10566000000E+00 0. -1.
     999900   -1    0    0    0    0 -0.00000000000E+00 -0.00000000000E+00 -0.74505805969E-08  0.93827000000E+00  0.93827000000E+00 0.  1.
     999902    2    1    2    0    0 -0.12776148886E-01 -0.14202023393E-01 -0.14052359703E-01  0.10202151046E+01  0.10199394411E+01 0.  0.
     999903    2    3    3    0    0  0.39762175675E-02  0.89870003676E-01 -0.92339581469E-01  0.13047327821E+00  0.20105973100E-01 0.  0.
         14    1    1    2    0    0  0.12776148886E-01  0.14202023393E-01  0.14052359703E-01  0.23714895363E-01  0.00000000000E+00 0.  1.
     999901    1    3    3    0    0 -0.16752366454E-01 -0.10407202707E+00  0.78287221766E-01  0.88974182643E+00  0.88000000000E+00 0. -1.
        -11    1    4    4    0    0 -0.69952379779E-02  0.15704902389E-01 -0.16789956876E-01  0.24036245262E-01  0.51100000000E-03 0.  1.
         11    1    4    4    0    0  0.10971455545E-01  0.74165101288E-01 -0.75549624593E-01  0.10643703295E+00  0.51100000000E-03 0. -1.
</event>
<event>
 8    1  0.1163913E+005  0.1043930E+01  0.7957747E-01            NaN
         13   -1    0    0    0    0  0.00000000000E+00  0.00000000000E+00  0.74505805969E-08  0.10566000000E+00  0.10566000000E+00 0. -1.
     999900   -1    0    0    0    0 -0.00000000000E+00 -0.00000000000E+00 -0.74505805969E-08  0.93827000000E+00  0.93827000000E+00 0. -1.
     999902    2    1    2    0    0  0.81150146769E-02  0.21143239066E-01 -0.87266266624E-02  0.10196597706E+01  0.10193708863E+01 0.  0.
     999903    2    3    3    0    0  0.93914892635E-01  0.78701744805E-01 -0.46893015636E-01  0.13279378644E+00  0.20524695072E-01 0.  0.
         14    1    1    2    0    0 -0.81150146769E-02 -0.21143239066E-01  0.87266266624E-02  0.24270229383E-01  0.00000000000E+00 0.  1.
     999901    1    3    3    0    0 -0.85799877958E-01 -0.57558505739E-01  0.38166388974E-01  0.88686598418E+00  0.88000000000E+00 0.  1.
        -11    1    4    4    0    0  0.45539544413E-01  0.27625519597E-01 -0.26810140304E-01  0.59632744214E-01  0.51100000000E-03 0. -1.
         11    1    4    4    0    0  0.48375348222E-01  0.51076225208E-01 -0.20082875332E-01  0.73161042227E-01  0.51100000000E-03 0.  1.
</event>
<event>
 8    1  0.1163913E+005  0.1043930E+01  0.7957747E-01            NaN
         13   -1    0    0    0    0  0.00000000000E+00  0.00000000000E+00  0.74505805969E-08  0.10566000000E+00  0.10566000000E+00 0. -1.
     999900   -1    0    0    0    0 -0.00000000000E+00 -0.00000000000E+00 -0.74505805969E-08  0.93827000000E+00  0.93827000000E+00 0.  1.
     999902    2    1    2    0    0 -0.27646377521E-01 -0.43906307765E-02 -0.15837807676E-01  0.10117673512E+01  0.10112560195E+01 0.  0.
     999903    2    3    3    0    0  0.10998989668E+00 -0.25254502812E-01 -0.37420915084E-01  0.12056317946E+00  0.19989699115E-01 0.  0.
         14    1    1    2    0    0  0.27646377521E-01  0.43906307765E-02  0.15837807676E-01  0.32162648844E-01  0.00000000000E+00 0. -1.
     999901    1    3    3    0    0 -0.13763627420E+00  0.20863872036E-01  0.21583107409E-01  0.89120417170E+00  0.88000000000E+00 0. -1.
        -11    1    4    4    0    0  0.57166766189E-01 -0.14400850552E-01 -0.91101198097E-02  0.59654665007E-01  0.51100000000E-03 0.  1.
         11    1    4    4    0    0  0.52823130490E-01 -0.10853652260E-01 -0.28310795275E-01  0.60908514448E-01  0.51100000000E-03 0. -1.
</event>
<event>
 8    1  0.1163913E+005  0.1043930E+01  0.7957747E-01            NaN
         13   -1    0    0    0    0  0.00000000000E+00  0.00000000000E+00  0.74505805969E-08  0.10566000000E+00  0.10566000000E+00 0.  1.
     999900   -1    0    0    0    0 -0.00000000000E+00 -0.00000000000E+00 -0.74505805969E-08  0.93827000000E+00  0.93827000000E+00 0. -1.
     999902    2    1    2    0    0  0.11822125996E-01 -0.20541665757E-01  0.18624618369E-02  0.10201562443E+01  0.10198791945E+01 0.  0.
     999903    2    3    3    0    0 -0.21299730535E-02 -0.78545815763E-01  0.10444641207E+00  0.13219081181E+00  0.19783219459E-01 0.  0.
         14    1    1    2    0    0 -0.11822125996E-01  0.20541665757E-01 -0.18624618369E-02  0.23773755682E-01  0.00000000000E+00 0.  1.
     999901    1    3    3    0    0  0.13952099050E-01  0.58004150006E-01 -0.10258395024E+00  0.88796543251E+00  0.88000000000E+00 0. -1.
        -11    1    4    4    0    0 -0.51125536820E-02 -0.30374635738E-01  0.27150320797E-01  0.41062851116E-01  0.51100000000E-03 0.  1.
         11    1    4    4    0    0  0.29825806285E-02 -0.48171180025E-01  0.77296091277E-01  0.91127960692E-01  0.51100000000E-03 0. -1.
</event>
<event>
 8    1  0.1163913E+005  0.1043930E+01  0.7957747E-01            NaN
         13   -1    0    0    0    0  0.00000000000E+00  0.00000000000E+00  0.74505805969E-08  0.10566000000E+00  0.10566000000E+00 0. -1.
     999900   -1    0    0    0    0 -0.00000000000E+00 -0.00000000000E+00 -0.74505805969E-08  0.93827000000E+00  0.93827000000E+00 0. -1.
     999902    2    1    2    0    0  0.39603479416E-02 -0.57992321108E-02  0.22498226867E-01  0.10203612567E+01  0.10200890199E+01 0.  0.
     999903    2    3    3    0    0 -0.44601757310E-01 -0.85686521114E-01 -0.83268127773E-01  0.12911113536E+00  0.20114858053E-01 0.  0.
         14    1    1    2    0    0 -0.39603479416E-02  0.57992321108E-02 -0.22498226867E-01  0.23568743306E-01  0.00000000000E+00 0.  1.
     999901    1    3    3    0    0  0.48562105252E-01  0.79887289003E-01  0.10576635464E+00  0.89125012134E+00  0.88000000000E+00 0.  1.
        -11    1    4    4    0    0 -0.97727318662E-02 -0.28724752825E-01 -0.37127237205E-01  0.47951126958E-01  0.51100000000E-03 0. -1.
         11    1    4    4    0    0 -0.34829025444E-01 -0.56961768289E-01 -0.46140890567E-01  0.81160008399E-01  0.51100000000E-03 0.  1.
</event>
<event>
 8    1  0.1163913E+005  0.1043930E+01  0.7957747E-01            NaN
         13   -1    0    0    0    0  0.00000000000E+00  0.00000000000E+00  0.74505805969E-08  0.10566000000E+00  0.10566000000E+00 0.  1.
     999900   -1    0    0    0    0 -0.00000000000E+00 -0.00000000000E+00 -0.74505805969E-08  0.93827000000E+00  0.93827000000E+00 0. -1.
     999902    2    1    2    0    0  0.10902423432E-01  0.25009329756E-02  0.20833785125E-01  0.10202833490E+01  0.10200092882E+01 0.  0.
     999903    2    3    3    0    0 -0.10098144065E+00 -0.17516050827E-01  0.78870028383E-01  0.13107758863E+00  0.21372633702E-01 0.  0.
         14    1    1    2    0    0 -0.10902423432E-01 -0.25009329756E-02 -0.20833785125E-01  0.23646651033E-01  0.00000000000E+00 0. -1.
     999901    1    3    3    0    0  0.11188386408E+00  0.20016983803E-01 -0.58036243259E-01  0.88920576034E+00  0.88000000000E+00 0. -1.
        -11    1    4    4    0    0 -0.23454118710E-01  0.48551830360E-02  0.19691097095E-01  0.31010787036E-01  0.51100000000E-03 0.  1.
         11    1    4    4    0    0 -0.77527321942E-01 -0.22371233863E-01  0.59178931289E-01  0.10006680160E+00  0.51100000000E-03 0. -1.
</event>
<event>
 8    1  0.1163913E+005  0.1043930E+01  0.7957747E-01            NaN
         13   -1    0    0    0    0  0.00000000000E+00  0.00000000000E+00  0.74505805969E-08  0.10566000000E+00  0.10566000000E+00 0. -1.
     999900   -1    0    0    0    0 -0.00000000000E+00 -0.00000000000E+00 -0.74505805969E-08  0.93827000000E+00  0.93827000000E+00 0. -1.
     999902    2    1    2    0    0 -0.48152971794E-02  0.23647261722E-03  0.23828655204E-01  0.10196185250E+01  0.10193286461E+01 0.  0.
     999903    2    3    3    0    0  0.12281530105E+00 -0.35555291108E-01  0.68173236239E-03  0.12939023971E+00  0.19839165204E-01 0.  0.
         14    1    1    2    0    0  0.48152971794E-02 -0.23647261722E-03 -0.23828655204E-01  0.24311474967E-01  0.00000000000E+00 0.  1.
     999901    1    3    3    0    0 -0.12763059823E+00  0.35791763726E-01  0.23146922842E-01  0.89022828532E+00  0.88000000000E+00 0.  1.
        -11    1    4    4    0    0  0.50552897068E-01 -0.22424608316E-01 -0.60465046886E-02  0.55635238833E-01  0.51100000000E-03 0. -1.
         11    1    4    4    0    0  0.72262403979E-01 -0.13130682792E-01  0.67282370510E-02  0.73755000876E-01  0.51100000000E-03 0.  1.
</event>
<event>
 8    1  0.1163913E+005  0.1043930E+01  0.7957747E-01            NaN
         13   -1    0    0    0    0  0.00000000000E+00  0.00000000000E+00  0.74505805969E-08  0.10566000000E+00  0.10566000000E+00 0.  1.
     999900   -1    0    0    0    0 -0.00000000000E+00 -0.00000000000E+00 -0.74505805969E-08  0.93827000000E+00  0.93827000000E+00 0.  1.
     999902    2    1    2    0    0 -0.42507720851E-03 -0.11673983028E-02 -0.25949492499E-01  0.10179507839E+01  0.10176192209E+01 0.  0.
     999903    2    3    3    0    0  0.98265369257E-01 -0.30229617761E-01 -0.77879478983E-01  0.13043676127E+00  0.19458233717E-01 0.  0.
         14    1    1    2    0    0  0.42507720851E-03  0.11673983028E-02  0.25949492499E-01  0.25979216123E-01  0.00000000000E+00 0.  1.
     999901    1    3    3    0    0 -0.98690446465E-01  0.29062219458E-01  0.51929986484E-01  0.88751402260E+00  0.88000000000E+00 0. -1.
        -11    1    4    4    0    0  0.70498820406E-01 -0.29238615502E-01 -0.51141473906E-01  0.91873237612E-01  0.51100000000E-03 0.  1.
         11    1    4    4    0    0  0.27766548851E-01 -0.99100225870E-03 -0.26738005077E-01  0.38563523660E-01  0.51100000000E-03 0. -1.
</event>
<event>
 8    1  0.1163913E+005  0.1043930E+01  0.7957747E-01            NaN
         13   -1    0    0    0    0  0.00000000000E+00  0.00000000000E+00  0.74505805969E-08  0.10566000000E+00  0.10566000000E+00 0. -1.
     999900   -1    0    0    0    0 -0.00000000000E+00 -0.00000000000E+00 -0.74505805969E-08  0.93827000000E+00  0.93827000000E+00 0.  1.
     999902    2    1    2    0    0 -0.20767896263E-01  0.94823198973E-02 -0.61378424868E-02  0.10202890817E+01  0.10200151554E+01 0.  0.
     999903    2    3    3    0    0  0.20934473090E-01  0.10855028434E+00 -0.68395776179E-01  0.13156550295E+00  0.20250505503E-01 0.  0.
         14    1    1    2    0    0  0.20767896263E-01 -0.94823198973E-02  0.61378424868E-02  0.23640918261E-01  0.00000000000E+00 0.  1.
     999901    1    3    3    0    0 -0.41702369353E-01 -0.99067964444E-01  0.62257933692E-01  0.88872357879E+00  0.88000000000E+00 0. -1.
        -11    1    4    4    0    0  0.16474726256E-01  0.37360576966E-01 -0.20942198511E-01  0.45891895973E-01  0.51100000000E-03 0.  1.
         11    1    4    4    0    0  0.44597468331E-02  0.71189707374E-01 -0.47453577668E-01  0.85673606977E-01  0.51100000000E-03 0. -1.
</event>
<event>
 7    1  0.1348928E+005  0.1043930E+01  0.7957747E-01            NaN
         13   -1    0    0    0    0  0.00000000000E+00  0.00000000000E+00  0.74505805969E-08  0.10566000000E+00  0.10566000000E+00 0.  1.
     999900   -1    0    0    0    0 -0.00000000000E+00 -0.00000000000E+00 -0.74505805969E-08  0.93827000000E+00  0.93827000000E+00 0.  1.
     999903    2    1    2    0    0  0.75583272420E-01 -0.50915615970E-01 -0.22721487482E-01  0.95984301857E-01  0.19786085771E-01 0.  0.
         14    1    1    2    0    0 -0.37458548602E-01  0.30225818450E-01 -0.42847176435E-01  0.64440852670E-01  0.00000000000E+00 0.  1.
     999901    1    1    2    0    0 -0.38124723818E-01  0.20689797520E-01  0.65568663917E-01  0.88350484547E+00  0.88000000000E+00 0. -1.
        -11    1    3    3    0    0  0.20550305116E-01 -0.25089788066E-01 -0.68086129741E-02  0.33142583442E-01  0.51100000000E-03 0. -1.
         11    1    3    3    0    0  0.55032967304E-01 -0.25825827904E-01 -0.15912874508E-01  0.62841718415E-01  0.51100000000E-03 0.  1.
</event>
<event>
 8    1  0.1163913E+005  0.1043930E+01  0.7957747E-01            NaN
         13   -1    0    0    0    0  0.00000000000E+00  0.00000000000E+00  0.74505805969E-08  0.10566000000E+00  0.10566000000E+00 0.  1.
     999900   -1    0    0    0    0 -0.00000000000E+00 -0.00000000000E+00 -0.74505805969E-08  0.93827000000E+00  0.93827000000E+00 0.  1.
     999902    2    1    2    0    0 -0.30811950962E-02  0.80407578177E-03 -0.23163956690E-01  0.10205481868E+01  0.10202803008E+01 0.  0.
     999903    2    3    3    0    0 -0.95394529124E-01  0.83973022326E-01 -0.28693845393E-01  0.13180221350E+00  0.19922400820E-01 0.  0.
         14    1    1    2    0    0  0.30811950962E-02 -0.80407578177E-03  0.23163956690E-01  0.23381813245E-01  0.00000000000E+00 0.  1.
     999901    1    3    3    0    0  0.92313334028E-01 -0.83168946545E-01  0.55298887027E-02  0.88874597326E+00  0.88000000000E+00 0.  1.
        -11    1    4    4    0    0 -0.35467463459E-01  0.37424887299E-01 -0.20456454860E-01  0.55473334315E-01  0.51100000000E-03 0. -1.
         11    1    4    4    0    0 -0.59927065666E-01  0.46548135027E-01 -0.82373905329E-02  0.76328879185E-01  0.51100000000E-03 0.  1.
</event>
<event>
 8    1  0.1163913E+005  0.1043930E+01  0.7957747E-01            NaN
         13   -1    0    0    0    0  0.00000000000E+00  0.00000000000E+00  0.74505805969E-08  0.10566000000E+00  0.10566000000E+00 0.  1.
     999900   -1    0    0    0    0 -0.00000000000E+00 -0.00000000000E+00 -0.74505805969E-08  0.93827000000E+00  0.93827000000E+00 0. -1.
     999902    2    1    2    0    0  0.38984766388E-02  0.55742712783E-02  0.23674715669E-01  0.10192974447E+01  0.10189997635E+01 0.  0.
     999903    2    3    3    0    0  0.69224180658E-01  0.10420613222E+00  0.34836221849E-01  0.13131080579E+00  0.19443769787E-01 0.  0.
         14    1    1    2    0    0 -0.38984766388E-02 -0.55742712783E-02 -0.23674715669E-01  0.24632555336E-01  0.00000000000E+00 0. -1.
     999901    1    3    3    0    0 -0.65325704019E-01 -0.98631860945E-01 -0.11161506180E-01  0.88798663887E+00  0.88000000000E+00 0. -1.
        -11    1    4    4    0    0  0.30218157637E-01  0.45952813891E-01  0.25357737500E-01  0.60564627692E-01  0.51100000000E-03 0. -1.
         11    1    4    4    0    0  0.39006023021E-01  0.58253318333E-01  0.94784843497E-02  0.70746178097E-01  0.51100000000E-03 0.  1.
</event>
<event>
 8    1  0.1163913E+005  0.1043930E+01  0.7957747E-01            NaN
         13   -1    0    0    0    0  0.00000000000E+00  0.00000000000E+00  0.74505805969E-08  0.10566000000E+00  0.10566000000E+00 0.  1.
     999900   -1    0    0    0    0 -0.00000000000E+00 -0.00000000000E+00 -0.74505805969E-08  0.93827000000E+00  0.93827000000E+00 0. -1.
     999902    2    1    2    0    0  0.11174808971E-01  0.65066147272E-02  0.17653463882E-01  0.10220471945E+01  0.10218129039E+01 0.  0.
     999903    2    3    3    0    0  0.12763871494E+00 -0.76939895325E-02  0.34872100261E-01  0.13409337811E+00  0.20350224818E-01 0.  0.
         14    1    1    2    0    0 -0.11174808971E-01 -0.65066147272E-02 -0.17653463882E-01  0.21882805528E-01  0.00000000000E+00 0. -1.
     999901    1    3    3    0    0 -0.11646390597E+00  0.14200604260E-01 -0.17218636379E-01  0.88795381636E+00  0.88000000000E+00 0. -1.
        -11    1    4    4    0    0  0.65645541817E-01 -0.12024335539E-02  0.77503740183E-02  0.66114388943E-01  0.51100000000E-03 0. -1.
         11    1    4    4    0    0  0.61993173122E-01 -0.64915559785E-02  0.27121726243E-01  0.67978989167E-01  0.51100000000E-03 0.  1.
</event>
<event>
 8    1  0.1163913E+005  0.1043930E+01  0.7957747E-01            NaN
         13   -1    0    0    0    0  0.00000000000E+00  0.00000000000E+00  0.74505805969E-08  0.10566000000E+00  0.10566000000E+00 0. -1.
     999900   -1    0    0    0    0 -0.00000000000E+00 -0.00000000000E+00 -0.74505805969E-08  0.93827000000E+00  0.93827000000E+00 0.  1.
     999902    2    1    2    0    0  0.19482219567E-02 -0.86618794088E-02  0.21567370739E-01  0.10206067240E+01  0.10203401932E+01 0.  0.
     999903    2    3    3    0    0 -0.76321718399E-01 -0.87347770693E-01  0.61606354505E-01  0.13273242360E+00  0.19181126543E-01 0.  0.
         14    1    1    2    0    0 -0.19482219567E-02  0.86618794088E-02 -0.21567370739E-01  0.23323276020E-01  0.00000000000E+00 0.  1.
     999901    1    3    3    0    0  0.78269940356E-01  0.78685891284E-01 -0.40038983765E-01  0.88787430038E+00  0.88000000000E+00 0.  1.
        -11    1    4    4    0    0 -0.10299661987E-01 -0.99064425314E-02  0.15249910678E-01  0.20905538437E-01  0.51100000000E-03 0. -1.
         11    1    4    4    0    0 -0.66022056413E-01 -0.77441328162E-01  0.46356443827E-01  0.11182688516E+00  0.51100000000E-03 0.  1.
</event>
<event>
 8    1  0.1163913E+005  0.1043930E+01  0.7957747E-01            NaN
         13   -1    0    0    0    0  0.00000000000E+00  0.00000000000E+00  0.74505805969E-08  0.10566000000E+00  0.10566000000E+00 0. -1.
     999900   -1    0    0    0    0 -0.00000000000E+00 -0.00000000000E+00 -0.74505805969E-08  0.93827000000E+00  0.93827000000E+00 0.  1.
     999902    2    1    2    0    0 -0.87548922204E-02  0.13281838174E-01  0.18142443740E-01  0.10198011039E+01  0.10195156143E+01 0.  0.
     999903    2    3    3    0    0  0.53924039632E-01  0.10026889247E+00  0.63979300130E-01  0.13210948315E+00  0.19947727823E-01 0.  0.
         14    1    1    2    0    0  0.87548922204E-02 -0.13281838174E-01 -0.18142443740E-01  0.24128896120E-01  0.00000000000E+00 0.  1.
     999901    1    3    3    0    0 -0.62678931852E-01 -0.86987054296E-01 -0.45836856390E-01  0.88769162073E+00  0.88000000000E+00 0.  1.
        -11    1    4    4    0    0  0.18782267466E-01  0.37855488806E-01  0.34876184351E-01  0.54794351532E-01  0.51100000000E-03 0.  1.
         11    1    4    4    0    0  0.35141772166E-01  0.62413403664E-01  0.29103115779E-01  0.77315131617E-01  0.51100000000E-03 0. -1.
</event>
<event>
 8    1  0.1163913E+005  0.1043930E+01  0.7957747E-01            NaN
         13   -1    0    0    0    0  0.00000000000E+00  0.00000000000E+00  0.74505805969E-08  0.10566000000E+00  0.10566000000E+00 0.  1.
     999900   -1    0    0    0    0 -0.00000000000E+00 -0.00000000000E+00 -0.74505805969E-08  0.93827000000E+00  0.93827000000E+00 0. -1.
     999902    2    1    2    0    0 -0.22288195721E-01  0.14548552527E-02  0.75879730994E-02  0.10203406463E+01  0.10200679276E+01 0.  0.
     999903    2    3    3    0    0  0.19598013309E-01 -0.10229215085E+00 -0.74651341539E-01  0.12945277420E+00  0.18369314180E-01 0.  0.
         14    1    1    2    0    0  0.22288195721E-01 -0.14548552527E-02 -0.75879730994E-02  0.23589353701E-01  0.00000000000E+00 0. -1.
     999901    1    3    3    0    0 -0.41886209030E-01  0.10374700610E+00  0.82239314639E-01  0.89088787210E+00  0.88000000000E+00 0. -1.
        -11    1    4    4    0    0  0.12748375071E-01 -0.36292683958E-01 -0.35851085694E-01  0.52585563059E-01  0.51100000000E-03 0. -1.
         11    1    4    4    0    0  0.68496382385E-02 -0.65999466890E-01 -0.38800255846E-01  0.76867211140E-01  0.51100000000E-03 0.  1.
</event>
<event>
 8    1  0.1163913E+005  0.1043930E+01  0.7957747E-01            NaN
         13   -1    0    0    0    0  0.00000000000E+00  0.00000000000E+00  0.74505805969E-08  0.10566000000E+00  0.10566000000E+00 0.  1.
     999900   -1    0    0    0    0 -0.00000000000E+00 -0.00000000000E+00 -0.74505805969E-08  0.93827000000E+00  0.93827000000E+00 0. -1.
     999902    2    1    2    0    0  0.19183569318E-01 -0.45002911553E-02 -0.10676718615E-01  0.10215189698E+01  0.10212731033E+01 0.  0.
     999903    2    3    3    0    0  0.90000297829E-01  0.94195650802E-01  0.16331293712E-01  0.13276403696E+00  0.19664793830E-01 0.  0.
         14    1    1    2    0    0 -0.19183569318E-01  0.45002911553E-02  0.10676718615E-01  0.22411030156E-01  0.00000000000E+00 0. -1.
     999901    1    3    3    0    0 -0.70816728511E-01 -0.98695941957E-01 -0.27008012327E-01  0.88875493288E+00  0.88000000000E+00 0. -1.
        -11    1    4    4    0    0  0.83510645535E-02  0.15934228014E-01  0.68869928948E-02  0.19269968700E-01  0.51100000000E-03 0. -1.
         11    1    4    4    0    0  0.81649233276E-01  0.78261422788E-01  0.94443008170E-02  0.11349406826E+00  0.51100000000E-03 0.  1.
</event>
<event>
 8    1  0.1163913E+005  0.1043930E+01  0.7957747E-01            NaN
         13   -1    0    0    0    0  0.00000000000E+00  0.00000000000E+00  0.74505805969E-08  0.10566000000E+00  0.10566000000E+00 0.  1.
     999900   -1    0    0    0    0 -0.00000000000E+00 -0.00000000000E+00 -0.74505805969E-08  0.93827000000E+00  0.93827000000E+00 0.  1.
     999902    2    1    2    0    0 -0.17396915638E-01  0.38613329338E-02 -0.16260727376E-01  0.10198058664E+01  0.10195204909E+01 0.  0.
     999903    2    3    3    0    0  0.58990478611E-01  0.10831360198E+00  0.32257632619E-01  0.12902006627E+00  0.19847158433E-01 0.  0.
         14    1    1    2    0    0  0.17396915638E-01 -0.38613329338E-02  0.16260727376E-01  0.24124133571E-01  0.00000000000E+00 0.  1.
     999901    1    3    3    0    0 -0.76387394249E-01 -0.10445226904E+00 -0.48518359996E-01  0.89078580016E+00  0.88000000000E+00 0. -1.
        -11    1    4    4    0    0  0.45969751282E-01  0.64924106587E-01  0.22563038920E-01  0.82690443797E-01  0.51100000000E-03 0.  1.
         11    1    4    4    0    0  0.13020727328E-01  0.43389495391E-01  0.96945936991E-02  0.46329622473E-01  0.51100000000E-03 0. -1.
</event>
<event>
 8    1  0.1163913E+005  0.1043930E+01  0.7957747E-01            NaN
         13   -1    0    0    0    0  0.00000000000E+00  0.00000000000E+00  0.74505805969E-08  0.10566000000E+00  0.10566000000E+00 0.  1.
     999900   -1    0    0    0    0 -0.00000000000E+00 -0.00000000000E+00 -0.74505805969E-08  0.93827000000E+00  0.93827000000E+00 0. -1.
     999902    2    1    2    0    0 -0.66934096939E-02  0.17567157878E-01 -0.15159557931E-01  0.10197800732E+01  0.10194940798E+01 0.  0.
     999903    2    3    3    0    0  0.89786038004E-01 -0.36475274266E-01  0.80132842891E-01  0.12775456347E+00  0.22538361175E-01 0.  0.
         14    1    1    2    0    0  0.66934096939E-02 -0.17567157878E-01  0.15159557931E-01  0.24149926830E-01  0.00000000000E+00 0.  1.
     999901    1    3    3    0    0 -0.96479447698E-01  0.54042432144E-01 -0.95292400822E-01  0.89202550970E+00  0.88000000000E+00 0. -1.
        -11    1    4    4    0    0  0.65618285036E-01 -0.35324625379E-01  0.67032564992E-01  0.10023579390E+00  0.51100000000E-03 0.  1.
         11    1    4    4    0    0  0.24167752968E-01 -0.11506488869E-02  0.13100277898E-01  0.27518769566E-01  0.51100000000E-03 0. -1.
</event>
<event>
 8    1  0.1163913E+005  0.1043930E+01  0.7957747E-01            NaN
         13   -1    0    0    0    0  0.00000000000E+00  0.00000000000E+00  0.74505805969E-08  0.10566000000E+00  0.10566000000E+00 0. -1.
     999900   -1    0    0    0    0 -0.00000000000E+00 -0.00000000000E+00 -0.74505805969E-08  0.93827000000E+00  0.93827000000E+00 0. -1.
     999902    2    1    2    0    0 -0.66468420032E-02  0.34396725186E-02  0.23077044815E-01  0.10196697062E+01  0.10193810612E+01 0.  0.
     999903    2    3    3    0    0  0.90952166485E-02 -0.82836909374E-01 -0.94396870559E-01  0.12754214710E+00  0.20286783746E-01 0.  0.
         14    1    1    2    0    0  0.66468420032E-02 -0.34396725186E-02 -0.23077044815E-01  0.24260293755E-01  0.00000000000E+00 0.  1.
     999901    1    3    3    0    0 -0.15742058652E-01  0.86276581893E-01  0.11747391537E+00  0.89212755915E+00  0.88000000000E+00 0.  1.
        -11    1    4    4    0    0  0.13212427148E-01 -0.32895357655E-01 -0.34844060235E-01  0.49709580979E-01  0.51100000000E-03 0. -1.
         11    1    4    4    0    0 -0.41172104999E-02 -0.49941551719E-01 -0.59552810325E-01  0.77832566121E-01  0.51100000000E-03 0.  1.
</event>
<event>
 8    1  0.1163913E+005  0.1043930E+01  0.7957747E-01            NaN
         13   -1    0    0    0    0  0.00000000000E+00  0.00000000000E+00  0.74505805969E-08  0.10566000000E+00  0.10566000000E+00 0. -1.
     999900   -1    0    0    0    0 -0.00000000000E+00 -0.00000000000E+00 -0.74505805969E-08  0.93827000000E+00  0.93827000000E+00 0.  1.
     999902    2    1    2    0    0 -0.50546587981E-02 -0.21338844637E-01 -0.87267290236E-02  0.10203280580E+01  0.10200550447E+01 0.  0.
     999903    2    3    3    0    0 -0.96050829776E-01 -0.17684212694E-01  0.85255911304E-01  0.13065036573E+00  0.16200443623E-01 0.  0.
         14    1    1    2    0    0  0.50546587981E-02  0.21338844637E-01  0.87267290236E-02  0.23601941985E-01  0.00000000000E+00 0. -1.
     999901    1    3    3    0    0  0.90996170978E-01 -0.36546319430E-02 -0.93982640328E-01  0.88967769229E+00  0.88000000000E+00 0.  1.
        -11    1    4    4    0    0 -0.21364973838E-01  0.27808982209E-02  0.17887795601E-01  0.28007674921E-01  0.51100000000E-03 0. -1.
         11    1    4    4    0    0 -0.74685855938E-01 -0.20465110915E-01  0.67368115703E-01  0.10264269081E+00  0.51100000000E-03 0.  1.
</event>
<event>
 8    1  0.1163913E+005  0.1043930E+01  0.7957747E-01            NaN
         13   -1    0    0    0    0  0.00000000000E+00  0.00000000000E+00  0.74505805969E-08  0.10566000000E+00  0.10566000000E+00 0.  1.
     999900   -1    0    0    0    0 -0.00000000000E+00 -0.00000000000E+00 -0.74505805969E-08  0.93827000000E+00  0.93827000000E+00 0.  1.
     999902    2    1    2    0    0  0.24270716541E-02  0.33689799603E-03  0.23870777658E-01  0.10199337877E+01  0.10196514665E+01 0.  0.
     999903    2    3    3    0    0 -0.21576860006E-01  0.10708452001E+00 -0.64230974539E-01  0.12879229376E+00  0.23003945948E-01 0.  0.
         14    1    1    2    0    0 -0.24270716541E-02 -0.33689799603E-03 -0.23870777658E-01  0.23996212265E-01  0.00000000000E+00 0. -1.
     999901    1    3    3    0    0  0.24003931660E-01 -0.10674762201E+00  0.88101752197E-01  0.89114149397E+00  0.88000000000E+00 0. -1.
        -11    1    4    4    0    0 -0.25246926741E-02  0.15898863594E-01 -0.19971013429E-01  0.25656391700E-01  0.51100000000E-03 0. -1.
         11    1    4    4    0    0 -0.19052167332E-01  0.91185656414E-01 -0.44259961110E-01  0.10313590206E+00  0.51100000000E-03 0.  1.
</event>
<event>
 8    1  0.1163913E+005  0.1043930E+01  0.7957747E-01            NaN
         13   -1    0    0    0    0  0.00000000000E+00  0.00000000000E+00  0.74505805969E-08  0.10566000000E+00  0.10566000000E+00 0. -1.
     999900   -1    0    0    0    0 -0.00000000000E+00 -0.00000000000E+00 -0.74505805969E-08  0.93827000000E+00  0.93827000000E+00 0.  1.
     999902    2    1    2    0    0 -0.16607414945E-01 -0.71000595516E-02 -0.15112286670E-01  0.10203800895E+01  0.10201082927E+01 0.  0.
     999903    2    3    3    0    0  0.65603047398E-01 -0.37763647300E-01  0.10171845008E+00  0.12833287281E+00  0.19819946296E-01 0.  0.
         14    1    1    2    0    0  0.16607414945E-01  0.71000595516E-02  0.15112286670E-01  0.23549910513E-01  0.00000000000E+00 0. -1.
     999901    1    3    3    0    0 -0.82210462343E-01  0.30663587748E-01 -0.11683073675E+00  0.89204721668E+00  0.88000000000E+00 0.  1.
        -11    1    4    4    0    0  0.32108529429E-01 -0.22526165188E-01  0.67562003910E-01  0.78123436135E-01  0.51100000000E-03 0. -1.
         11    1    4    4    0    0  0.33494517969E-01 -0.15237482112E-01  0.34156446171E-01  0.50209436674E-01  0.51100000000E-03 0.  1.
</event>
<event>
 8    1  0.1163913E+005  0.1043930E+01  0.7957747E-01            NaN
         13   -1    0    0    0    0  0.00000000000E+00  0.00000000000E+00  0.74505805969E-08  0.10566000000E+00  0.10566000000E+00 0. -1.
     999900   -1    0    0    0    0 -0.00000000000E+00 -0.00000000000E+00 -0.74505805969E-08  0.93827000000E+00  0.93827000000E+00 0. -1.
     999902    2    1    2    0    0 -0.23422657645E-01 -0.10119721676E-01 -0.30302061373E-02  0.10182354129E+01  0.10179111672E+01 0.  0.
     999903    2    3    3    0    0  0.95896996682E-01 -0.62385637693E-01 -0.51964421741E-01  0.12730137304E+00  0.20423924416E-01 0.  0.
         14    1    1    2    0    0  0.23422657645E-01  0.10119721676E-01  0.30302061373E-02  0.25694587119E-01  0.00000000000E+00 0. -1.
     999901    1    3    3    0    0 -0.11931965433E+00  0.52265916017E-01  0.48934215604E-01  0.89093403984E+00  0.88000000000E+00 0.  1.
        -11    1    4    4    0    0  0.54580404689E-01 -0.26935748181E-01 -0.19502379706E-01  0.63915248895E-01  0.51100000000E-03 0.  1.
         11    1    4    4    0    0  0.41316591993E-01 -0.35449889512E-01 -0.32462042036E-01  0.63386124148E-01  0.51100000000E-03 0. -1.
</event>
<event>
 8    1  0.1163913E+005  0.1043930E+01  0.7957747E-01            NaN
         13   -1    0    0    0    0  0.00000000000E+00  0.00000000000E+00  0.74505805969E-08  0.10566000000E+00  0.10566000000E+00 0.  1.
     999900   -1    0    0    0    0 -0.00000000000E+00 -0.00000000000E+00 -0.74505805969E-08  0.93827000000E+00  0.93827000000E+00 0. -1.
     999902    2    1    2    0    0  0.17864647846E-01  0.11784635558E-01  0.94652468848E-02  0.10205288424E+01  0.10202605079E+01 0.  0.
     999903    2    3    3    0    0  0.13831007923E-01 -0.12724717526E+00  0.64009717215E-02  0.12959926918E+00  0.19283613337E-01 0.  0.
         14    1    1    2    0    0 -0.17864647846E-01 -0.11784635558E-01 -0.94652468848E-02  0.23401157589E-01  0.00000000000E+00 0. -1.
     999901    1    3    3    0    0  0.40336399237E-02  0.13903181081E+00  0.30642751633E-02  0.89092957323E+00  0.88000000000E+00 0.  1.
        -11    1    4    4    0    0  0.49418056719E-02 -0.23435089582E-01 -0.59298802082E-02  0.24678927596E-01  0.51100000000E-03 0. -1.
         11    1    4    4    0    0  0.88892022507E-02 -0.10381208567E+00  0.12330851930E-01  0.10492034159E+00  0.51100000000E-03 0.  1.
</event>
<event>
 8    1  0.1163913E+005  0.1043930E+01  0.7957747E-01            NaN
         13   -1    0    0    0    0  0.00000000000E+00  0.00000000000E+00  0.74505805969E-08  0.10566000000E+00  0.10566000000E+00 0. -1.
     999900   -1    0    0    0    0 -0.00000000000E+00 -0.00000000000E+00 -0.74505805969E-08  0.93827000000E+00  0.93827000000E+00 0.  1.
     999902    2    1    2    0    0  0.37895581502E-02  0.16023131376E-01 -0.16937380743E-01  0.10203084768E+01  0.10200350051E+01 0.  0.
     999903    2    3    3    0    0  0.73116455238E-01  0.75877537309E-01  0.74805212395E-01  0.13081116264E+00  0.20305757196E-01 0.  0.
         14    1    1    2    0    0 -0.37895581502E-02 -0.16023131376E-01  0.16937380743E-01  0.23621523162E-01  0.00000000000E+00 0. -1.
     999901    1    3    3    0    0 -0.69326897088E-01 -0.59854405933E-01 -0.91742593138E-01  0.88949731420E+00  0.88000000000E+00 0. -1.
        -11    1    4    4    0    0  0.36735219377E-01  0.23789945717E-01  0.29859334519E-01  0.52983760142E-01  0.51100000000E-03 0.  1.
         11    1    4    4    0    0  0.36381235861E-01  0.52087591591E-01  0.44945877876E-01  0.77827402498E-01  0.51100000000E-03 0. -1.
</event>
<event>
 8    1  0.1163913E+005  0.1043930E+01  0.7957747E-01            NaN
         13   -1    0    0    0    0  0.00000000000E+00  0.00000000000E+00  0.74505805969E-08  0.10566000000E+00  0.10566000000E+00 0.  1.
     999900   -1    0    0    0    0 -0.00000000000E+00 -0.00000000000E+00 -0.74505805969E-08  0.93827000000E+00  0.93827000000E+00 0. -1.
     999902    2    1    2    0    0 -0.21195965120E-01 -0.14865699840E-01  0.27382999597E-03  0.10180392111E+01  0.10177099303E+01 0.  0.
     999903    2    3    3    0    0  0.66762185283E-01 -0.57171495875E-01 -0.90770010347E-01  0.12797438338E+00  0.20309571628E-01 0.  0.
         14    1    1    2    0    0  0.21195965120E-01  0.14865699840E-01 -0.27382999597E-03  0.25890788941E-01  0.00000000000E+00 0. -1.
     999901    1    3    3    0    0 -0.87958150403E-01  0.42305796035E-01  0.91043840343E-01  0.89006482768E+00  0.88000000000E+00 0. -1.
        -11    1    4    4    0    0  0.15274440210E-01 -0.24761004205E-01 -0.24807031032E-01  0.38236968533E-01  0.51100000000E-03 0.  1.
         11    1    4    4    0    0  0.51487745073E-01 -0.32410491670E-01 -0.65962979316E-01  0.89737414851E-01  0.51100000000E-03 0. -1.
</event>
<event>
 8    1  0.1163913E+005  0.1043930E+01  0.7957747E-01            NaN
         13   -1    0    0    0    0  0.00000000000E+00  0.00000000000E+00  0.74505805969E-08  0.10566000000E+00  0.10566000000E+00 0.  1.
     999900   -1    0    0    0    0 -0.00000000000E+00 -0.00000000000E+00 -0.74505805969E-08  0.93827000000E+00  0.93827000000E+00 0. -1.
     999902    2    1    2    0    0  0.79454568297E-02  0.15359403176E-01  0.14824178418E-01  0.10211528664E+01  0.10208988092E+01 0.  0.
     999903    2    3    3    0    0 -0.11673580161E+00 -0.21765056029E-01  0.51023919020E-01  0.13085288160E+00  0.20446791192E-01 0.  0.
         14    1    1    2    0    0 -0.79454568297E-02 -0.15359403176E-01 -0.14824178418E-01  0.22777133620E-01  0.00000000000E+00 0. -1.
     999901    1    3    3    0    0  0.12468125844E+00  0.37124459206E-01 -0.36199740602E-01  0.89029998478E+00  0.88000000000E+00 0. -1.
        -11    1    4    4    0    0 -0.45924944515E-01 -0.17100499660E-01  0.14908526444E-01  0.51225510237E-01  0.51100000000E-03 0. -1.
         11    1    4    4    0    0 -0.70810857094E-01 -0.46645563695E-02  0.36115392576E-01  0.79627371365E-01  0.51100000000E-03 0.  1.
</event>
<event>
 8    1  0.1163913E+005  0.1043930E+01  0.7957747E-01            NaN
         13   -1    0    0    0    0  0.00000000000E+00  0.00000000000E+00  0.74505805969E-08  0.10566000000E+00  0.10566000000E+00 0.  1.
     999900   -1    0    0    0    0 -0.00000000000E+00 -0.00000000000E+00 -0.74505805969E-08  0.93827000000E+00  0.93827000000E+00 0.  1.
     999902    2    1    2    0    0 -0.93952188436E-02  0.16548920502E-02  0.21188442072E-01  0.10206929847E+01  0.10204284443E+01 0.  0.
     999903    2    3    3    0    0  0.27000751298E-01 -0.27816168279E-01 -0.12064156985E+00  0.12810743563E+00  0.18824104258E-01 0.  0.
         14    1    1    2    0    0  0.93952188436E-02 -0.16548920502E-02 -0.21188442072E-01  0.23237015347E-01  0.00000000000E+00 0. -1.
     999901    1    3    3    0    0 -0.36395970141E-01  0.29471060329E-01  0.14183001192E+00  0.89258554902E+00  0.88000000000E+00 0. -1.
        -11    1    4    4    0    0 -0.17064783530E-03 -0.33800928503E-04 -0.23131850288E-01  0.23138147764E-01  0.51100000000E-03 0.  1.
         11    1    4    4    0    0  0.27171399133E-01 -0.27782367350E-01 -0.97509719558E-01  0.10496928787E+00  0.51100000000E-03 0. -1.
</event>
<event>
 8    1  0.1281056E+005  0.1043930E+01  0.7957747E-01            NaN
         13   -1    0    0    0    0  0.00000000000E+00  0.00000000000E+00  0.74505805969E-08  0.10566000000E+00  0.10566000000E+00 0. -1.
     999900   -1    0    0    0    0 -0.00000000000E+00 -0.00000000000E+00 -0.74505805969E-08  0.93827000000E+00  0.93827000000E+00 0.  1.
     999902    2    1    2    0    0  0.18582468705E-01 -0.12861190636E-01 -0.73331425181E-02  0.10201709313E+01  0.10198942277E+01 0.  0.
     999903    2    3    3    0    0 -0.12491577070E+00 -0.12237487079E-01 -0.20874384554E-01  0.12844479677E+00  0.17567584550E-01 0.  0.
         14    1    1    2    0    0 -0.18582468705E-01  0.12861190636E-01  0.73331425181E-02  0.23759068730E-01  0.00000000000E+00 0. -1.
     999901    1    3    3    0    0  0.14349823940E+00 -0.62370355672E-03  0.13541242036E-01  0.89172613450E+00  0.88000000000E+00 0. -1.
        -11    1    4    4    0    0 -0.57096272738E-01 -0.14216805750E-01 -0.11404120765E-01  0.59936775169E-01  0.51100000000E-03 0.  1.
         11    1    4    4    0    0 -0.67819497961E-01  0.19793186709E-02 -0.94702637890E-02  0.68508021599E-01  0.51100000000E-03 0. -1.
</event>
<event>
 8    1  0.1163913E+005  0.1043930E+01  0.7957747E-01            NaN
         13   -1    0    0    0    0  0.00000000000E+00  0.00000000000E+00  0.74505805969E-08  0.10566000000E+00  0.10566000000E+00 0. -1.
     999900   -1    0    0    0    0 -0.00000000000E+00 -0.00000000000E+00 -0.74505805969E-08  0.93827000000E+00  0.93827000000E+00 0.  1.
     999902    2    1    2    0    0 -0.11613051883E-01 -0.10256766671E-02  0.20890920904E-01  0.10200062553E+01  0.10197256568E+01 0.  0.
     999903    2    3    3    0    0 -0.83187594754E-01  0.88947648653E-01 -0.41389310389E-01  0.13034511658E+00  0.21092991226E-01 0.  0.
         14    1    1    2    0    0  0.11613051883E-01  0.10256766671E-02 -0.20890920904E-01  0.23923744750E-01  0.00000000000E+00 0. -1.
     999901    1    3    3    0    0  0.71574542872E-01 -0.89973325320E-01  0.62280231292E-01  0.88966113867E+00  0.88000000000E+00 0. -1.
        -11    1    4    4    0    0 -0.40039810721E-01  0.56766123971E-01 -0.27817402773E-01  0.74830797745E-01  0.51100000000E-03 0. -1.
         11    1    4    4    0    0 -0.43147784034E-01  0.32181524683E-01 -0.13571907616E-01  0.55514318831E-01  0.51100000000E-03 0.  1.
</event>
<event>
 8    1  0.1163913E+005  0.1043930E+01  0.7957747E-01            NaN
         13   -1    0    0    0    0  0.00000000000E+00  0.00000000000E+00  0.74505805969E-08  0.10566000000E+00  0.10566000000E+00 0. -1.
     999900   -1    0    0    0    0 -0.00000000000E+00 -0.00000000000E+00 -0.74505805969E-08  0.93827000000E+00  0.93827000000E+00 0. -1.
     999902    2    1    2    0    0 -0.52137964747E-02 -0.22626262246E-01 -0.16215439942E-02  0.10206542439E+01  0.10203888106E+01 0.  0.
     999903    2    3    3    0    0  0.83418789496E-01  0.89013346222E-01  0.34404897002E-01  0.12845637240E+00  0.20863183474E-01 0.  0.
         14    1    1    2    0    0  0.52137964747E-02  0.22626262246E-01  0.16215439942E-02  0.23275756096E-01  0.00000000000E+00 0. -1.
     999901    1    3    3    0    0 -0.88632585971E-01 -0.11163960847E+00 -0.36026440996E-01  0.89219787151E+00  0.88000000000E+00 0. -1.
        -11    1    4    4    0    0  0.27341095996E-01  0.36411073249E-01  0.37816481510E-02  0.45693147945E-01  0.51100000000E-03 0.  1.
         11    1    4    4    0    0  0.56077693500E-01  0.52602272973E-01  0.30623248851E-01  0.82763224450E-01  0.51100000000E-03 0. -1.
</event>
<event>
 8    1  0.1163913E+005  0.1043930E+01  0.7957747E-01            NaN
         13   -1    0    0    0    0  0.00000000000E+00  0.00000000000E+00  0.74505805969E-08  0.10566000000E+00  0.10566000000E+00 0. -1.
     999900   -1    0    0    0    0 -0.00000000000E+00 -0.00000000000E+00 -0.74505805969E-08  0.93827000000E+00  0.93827000000E+00 0.  1.
     999902    2    1    2    0    0  0.11952682633E-01 -0.10698129860E-01  0.19298471762E-01  0.10188352273E+01  0.10185261277E+01 0.  0.
     999903    2    3    3    0    0 -0.10497514204E+00 -0.38853440754E-02 -0.68029307694E-01  0.12679000911E+00  0.20318547141E-01 0.  0.
         14    1    1    2    0    0 -0.11952682633E-01  0.10698129860E-01 -0.19298471762E-01  0.25094772703E-01  0.00000000000E+00 0.  1.
     999901    1    3    3    0    0  0.11692782468E+00 -0.68127857851E-02  0.87327779456E-01  0.89204521819E+00  0.88000000000E+00 0. -1.
        -11    1    4    4    0    0 -0.39327978927E-01  0.44888325533E-02 -0.34927112678E-01  0.52792081463E-01  0.51100000000E-03 0.  1.
         11    1    4    4    0    0 -0.65647163117E-01 -0.83741766287E-02 -0.33102195016E-01  0.73997927642E-01  0.51100000000E-03 0. -1.
</event>
<event>
 8    1  0.1163913E+005  0.1043930E+01  0.7957747E-01            NaN
         13   -1    0    0    0    0  0.00000000000E+00  0.00000000000E+00  0.74505805969E-08  0.10566000000E+00  0.10566000000E+00 0.  1.
     999900   -1    0    0    0    0 -0.00000000000E+00 -0.00000000000E+00 -0.74505805969E-08  0.93827000000E+00  0.93827000000E+00 0.  1.
     999902    2    1    2    0    0 -0.19687421137E-01 -0.73241436435E-02  0.12254986198E-01  0.10196108241E+01  0.10193207593E+01 0.  0.
     999903    2    3    3    0    0  0.93944784811E-01 -0.84873319340E-01 -0.11600424761E-01  0.12860283673E+00  0.19365351285E-01 0.  0.
         14    1    1    2    0    0  0.19687421137E-01  0.73241436435E-02 -0.12254986198E-01  0.24319175929E-01  0.00000000000E+00 0. -1.
     999901    1    3    3    0    0 -0.11363220595E+00  0.77549175697E-01  0.23855410959E-01  0.89100798734E+00  0.88000000000E+00 0.  1.
        -11    1    4    4    0    0  0.58155242018E-01 -0.51067475681E-01  0.23454963483E-02  0.77431787534E-01  0.51100000000E-03 0. -1.
         11    1    4    4    0    0  0.35789542793E-01 -0.33805843660E-01 -0.13945921109E-01  0.51171049193E-01  0.51100000000E-03 0.  1.
</event>
<event>
 8    1  0.1163913E+005  0.1043930E+01  0.7957747E-01            NaN
         13   -1    0    0    0    0  0.00000000000E+00  0.00000000000E+00  0.74505805969E-08  0.10566000000E+00  0.10566000000E+00 0. -1.
     999900   -1    0    0    0    0 -0.00000000000E+00 -0.00000000000E+00 -0.74505805969E-08  0.93827000000E+00  0.93827000000E+00 0.  1.
     999902    2    1    2    0    0 -0.76952852098E-03  0.23301850372E-01 -0.74229093435E-02  0.10194623073E+01  0.10191686455E+01 0.  0.
     999903    2    3    3    0    0 -0.69323547188E-01 -0.71829323951E-01 -0.78719880031E-01  0.12882610104E+00  0.20835998241E-01 0.  0.
         14    1    1    2    0    0  0.76952852098E-03 -0.23301850372E-01  0.74229093435E-02  0.24467692740E-01  0.00000000000E+00 0. -1.
     999901    1    3    3    0    0  0.68554018667E-01  0.95131174323E-01  0.71296970687E-01  0.89063620622E+00  0.88000000000E+00 0. -1.
        -11    1    4    4    0    0 -0.19751671325E-01 -0.34538055273E-01 -0.27351138614E-01  0.48284072805E-01  0.51100000000E-03 0.  1.
         11    1    4    4    0    0 -0.49571875862E-01 -0.37291268678E-01 -0.51368741417E-01  0.80542028233E-01  0.51100000000E-03 0. -1.
</event>
<event>
 8    1  0.1163913E+005  0.1043930E+01  0.7957747E-01            NaN
         13   -1    0    0    0    0  0.00000000000E+00  0.00000000000E+00  0.74505805969E-08  0.10566000000E+00  0.10566000000E+00 0. -1.
     999900   -1    0    0    0    0 -0.00000000000E+00 -0.00000000000E+00 -0.74505805969E-08  0.93827000000E+00  0.93827000000E+00 0.  1.
     999902    2    1    2    0    0  0.28348580399E-02 -0.23253917905E-01 -0.63114954304E-02  0.10196685884E+01  0.10193799165E+01 0.  0.
     999903    2    3    3    0    0 -0.52083383594E-01  0.83252560225E-01  0.79027207009E-01  0.12745654114E+00  0.18873335722E-01 0.  0.
         14    1    1    2    0    0 -0.28348580399E-02  0.23253917905E-01  0.63114954304E-02  0.24261411596E-01  0.00000000000E+00 0. -1.
     999901    1    3    3    0    0  0.54918241634E-01 -0.10650647813E+00 -0.85338702439E-01  0.89221204726E+00  0.88000000000E+00 0.  1.
        -11    1    4    4    0    0 -0.28991483809E-01  0.55146268649E-01  0.39673297989E-01  0.73863717573E-01  0.51100000000E-03 0.  1.
         11    1    4    4    0    0 -0.23091899785E-01  0.28106291576E-01  0.39353909019E-01  0.53592823568E-01  0.51100000000E-03 0. -1.
</event>
<event>
 8    1  0.1388630E+005  0.1043930E+01  0.7957747E-01            NaN
         13   -1    0    0    0    0  0.00000000000E+00  0.00000000000E+00  0.74505805969E-08  0.10566000000E+00  0.10566000000E+00 0.  1.
     999900   -1    0    0    0    0 -0.00000000000E+00 -0.00000000000E+00 -0.74505805969E-08  0.93827000000E+00  0.93827000000E+00 0.  1.
     999902    2    1    2    0    0  0.13951545744E-01  0.62197479556E-02  0.19853415811E-01  0.10188802692E+01  0.10185722920E+01 0.  0.
     999903    2    3    3    0    0 -0.45989294453E-01  0.17481960514E-01  0.12009939857E+00  0.13109144364E+00  0.18451745453E-01 0.  0.
         14    1    1    2    0    0 -0.13951545744E-01 -0.62197479556E-02 -0.19853415811E-01  0.25049730790E-01  0.00000000000E+00 0. -1.
     999901    1    3    3    0    0  0.59940840197E-01 -0.11262212559E-01 -0.10024598276E+00  0.88778882557E+00  0.88000000000E+00 0.  1.
        -11    1    4    4    0    0 -0.25485114363E-01  0.17511759180E-01  0.58567614563E-01  0.66231256671E-01  0.51100000000E-03 0. -1.
         11    1    4    4    0    0 -0.20504180090E-01 -0.29798665861E-04  0.61531784007E-01  0.64860186965E-01  0.51100000000E-03 0.  1.
</event>
<event>
 8    1  0.1163913E+005  0.1043930E+01  0.7957747E-01            NaN
         13   -1    0    0    0    0  0.00000000000E+00  0.00000000000E+00  0.74505805969E-08  0.10566000000E+00  0.10566000000E+00 0.  1.
     999900   -1    0    0    0    0 -0.00000000000E+00 -0.00000000000E+00 -0.74505805969E-08  0.93827000000E+00  0.93827000000E+00 0.  1.
     999902    2    1    2    0    0 -0.94133556450E-02  0.21667683517E-01  0.89767063752E-03  0.10202888159E+01  0.10200148833E+01 0.  0.
     999903    2    3    3    0    0 -0.29397990928E-01 -0.11484944846E+00 -0.44123387214E-01  0.12840137421E+00  0.22031838752E-01 0.  0.
         14    1    1    2    0    0  0.94133556450E-02 -0.21667683517E-01 -0.89767063752E-03  0.23641184109E-01  0.00000000000E+00 0. -1.
     999901    1    3    3    0    0  0.19984635283E-01  0.13651713198E+00  0.45021057851E-01  0.89188744168E+00  0.88000000000E+00 0. -1.
        -11    1    4    4    0    0 -0.16037819404E-01 -0.64728939649E-01 -0.36342573032E-01  0.75947949380E-01  0.51100000000E-03 0. -1.
         11    1    4    4    0    0 -0.13360171524E-01 -0.50120508810E-01 -0.77808141815E-02  0.52453424835E-01  0.51100000000E-03 0.  1.
</event>
<event>
 8    1  0.1163913E+005  0.1043930E+01  0.7957747E-01            NaN
         13   -1    0    0    0    0  0.00000000000E+00  0.00000000000E+00  0.74505805969E-08  0.10566000000E+00  0.10566000000E+00 0. -1.
     999900   -1    0    0    0    0 -0.00000000000E+00 -0.00000000000E+00 -0.74505805969E-08  0.93827000000E+00  0.93827000000E+00 0.  1.
     999902    2    1    2    0    0 -0.12218564229E-01 -0.14313559240E-01 -0.16513345051E-01  0.10188927906E+01  0.10185851250E+01 0.  0.
     999903    2    3    3    0    0  0.79718739641E-01 -0.90392018398E-01 -0.45616137832E-01  0.13036177125E+00  0.19686668914E-01 0.  0.
         14    1    1    2    0    0  0.12218564229E-01  0.14313559240E-01  0.16513345051E-01  0.25037209404E-01  0.00000000000E+00 0.  1.
     999901    1    3    3    0    0 -0.91937303871E-01  0.76078459158E-01  0.29102792780E-01  0.88853101935E+00  0.88000000000E+00 0. -1.
        -11    1    4    4    0    0  0.55453548621E-01 -0.48682304821E-01 -0.29741392962E-01  0.79560508003E-01  0.51100000000E-03 0. -1.
         11    1    4    4    0    0  0.24265191021E-01 -0.41709713577E-01 -0.15874744870E-01  0.50801263248E-01  0.51100000000E-03 0.  1.
</event>
<event>
 8    1  0.1163913E+005  0.1043930E+01  0.7957747E-01            NaN
         13   -1    0    0    0    0  0.00000000000E+00  0.00000000000E+00  0.74505805969E-08  0.10566000000E+00  0.10566000000E+00 0.  1.
     999900   -1    0    0    0    0 -0.00000000000E+00 -0.00000000000E+00 -0.74505805969E-08  0.93827000000E+00  0.93827000000E+00 0. -1.
     999902    2    1    2    0    0 -0.95351043734E-02  0.17130198510E-01  0.14931207046E-01  0.10192864844E+01  0.10189885350E+01 0.  0.
     999903    2    3    3    0    0 -0.81778484958E-02  0.83219756199E-01 -0.96940106250E-01  0.12974454470E+00  0.21067929461E-01 0.  0.
         14    1    1    2    0    0  0.95351043734E-02 -0.17130198510E-01 -0.14931207046E-01  0.24643515582E-01  0.00000000000E+00 0. -1.
     999901    1    3    3    0    0 -0.13572558776E-02 -0.66089557688E-01  0.11187131330E+00  0.88954193972E+00  0.88000000000E+00 0. -1.
        -11    1    4    4    0    0 -0.63417931070E-02  0.63933444207E-01 -0.86440239086E-01  0.10770273758E+00  0.51100000000E-03 0.  1.
         11    1    4    4    0    0 -0.18360553888E-02  0.19286311992E-01 -0.10499867164E-01  0.22041807120E-01  0.51100000000E-03 0. -1.
</event>
<event>
 8    1  0.1163913E+005  0.1043930E+01  0.7957747E-01            NaN
         13   -1    0    0    0    0  0.00000000000E+00  0.00000000000E+00  0.74505805969E-08  0.10566000000E+00  0.10566000000E+00 0.  1.
     999900   -1    0    0    0    0 -0.00000000000E+00 -0.00000000000E+00 -0.74505805969E-08  0.93827000000E+00  0.93827000000E+00 0.  1.
     999902    2    1    2    0    0  0.26839550226E-02  0.18950851054E-01  0.14901073162E-01  0.10196734472E+01  0.10193848923E+01 0.  0.
     999903    2    3    3    0    0 -0.42763452449E-01  0.31981053219E-01 -0.11542010860E+00  0.12882056184E+00  0.20528883415E-01 0.  0.
         14    1    1    2    0    0 -0.26839550226E-02 -0.18950851054E-01 -0.14901073162E-01  0.24256552757E-01  0.00000000000E+00 0. -1.
     999901    1    3    3    0    0  0.45447407472E-01 -0.13030202165E-01  0.13032118176E+00  0.89085288540E+00  0.88000000000E+00 0. -1.
        -11    1    4    4    0    0 -0.28085533135E-01  0.84797469095E-02 -0.54623188163E-01  0.62005298848E-01  0.51100000000E-03 0. -1.
         11    1    4    4    0    0 -0.14677919314E-01  0.23501306310E-01 -0.60796920433E-01  0.66815262993E-01  0.51100000000E-03 0.  1.
</event>
<event>
 8    1  0.1163913E+005  0.1043930E+01  0.7957747E-01            NaN
         13   -1    0    0    0    0  0.00000000000E+00  0.00000000000E+00  0.74505805969E-08  0.10566000000E+00  0.10566000000E+00 0. -1.
     999900   -1    0    0    0    0 -0.00000000000E+00 -0.00000000000E+00 -0.74505805969E-08  0.93827000000E+00  0.93827000000E+00 0.  1.
     999902    2    1    2    0    0  0.14000362342E-01  0.15835601330E-01 -0.85705450673E-02  0.10211214345E+01  0.10208666678E+01 0.  0.
     999903    2    3    3    0    0  0.11279479806E-01  0.12876111732E+00 -0.27804495459E-01  0.13369283449E+00  0.19850239972E-01 0.  0.
         14    1    1    2    0    0 -0.14000362342E-01 -0.15835601330E-01  0.85705450673E-02  0.22808565451E-01  0.00000000000E+00 0. -1.
     999901    1    3    3    0    0  0.27208825351E-02 -0.11292551599E+00  0.19233950392E-01  0.88742860006E+00  0.88000000000E+00 0. -1.
        -11    1    4    4    0    0  0.14315482940E-01  0.78564546865E-01 -0.23358589338E-01  0.83205804441E-01  0.51100000000E-03 0.  1.
         11    1    4    4    0    0 -0.30360031333E-02  0.50196570454E-01 -0.44459061214E-02  0.50487030044E-01  0.51100000000E-03 0. -1.
</event>
<event>
 8    1  0.1163913E+005  0.1043930E+01  0.7957747E-01            NaN
         13   -1    0    0    0    0  0.00000000000E+00  0.00000000000E+00  0.74505805969E-08  0.10566000000E+00  0.10566000000E+00 0. -1.
     999900   -1    0    0    0    0 -0.00000000000E+00 -0.00000000000E+00 -0.74505805969E-08  0.93827000000E+00  0.93827000000E+00 0. -1.
     999902    2    1    2    0    0 -0.93132274073E-03  0.24331501756E-01 -0.12998735029E-03  0.10195803340E+01  0.10192895325E+01 0.  0.
     999903    2    3    3    0    0  0.28556021522E-03 -0.12029366750E+00  0.35724363110E-01  0.12705388906E+00  0.19895040134E-01 0.  0.
         14    1    1    2    0    0  0.93132274073E-03 -0.24331501756E-01  0.12998735029E-03  0.24349666044E-01  0.00000000000E+00 0. -1.
     999901    1    3    3    0    0 -0.12168829560E-02  0.14462516925E+00 -0.35854350460E-01  0.89252644489E+00  0.88000000000E+00 0. -1.
        -11    1    4    4    0    0  0.33971009107E-02 -0.97779319594E-01  0.21304466864E-01  0.10013229781E+00  0.51100000000E-03 0.  1.
         11    1    4    4    0    0 -0.31115406955E-02 -0.22514347903E-01  0.14419896246E-01  0.26921591256E-01  0.51100000000E-03 0. -1.
</event>
<event>
 8    1  0.1163913E+005  0.1043930E+01  0.7957747E-01            NaN
         13   -1    0    0    0    0  0.00000000000E+00  0.00000000000E+00  0.74505805969E-08  0.10566000000E+00  0.10566000000E+00 0. -1.
     999900   -1    0    0    0    0 -0.00000000000E+00 -0.00000000000E+00 -0.74505805969E-08  0.93827000000E+00  0.93827000000E+00 0. -1.
     999902    2    1    2    0    0  0.18087784819E-01 -0.84741711553E-02 -0.15229331540E-01  0.10188120368E+01  0.10185023585E+01 0.  0.
     999903    2    3    3    0    0 -0.96125157753E-01 -0.78269635245E-01  0.24225377813E-01  0.12781670732E+00  0.19597448428E-01 0.  0.
         14    1    1    2    0    0 -0.18087784819E-01  0.84741711553E-02  0.15229331540E-01  0.25117963206E-01  0.00000000000E+00 0. -1.
     999901    1    3    3    0    0  0.11421294257E+00  0.69795464090E-01 -0.39454709353E-01  0.89099532948E+00  0.88000000000E+00 0. -1.
        -11    1    4    4    0    0 -0.28473795456E-01 -0.16428475427E-01 -0.50265842068E-03  0.32881082996E-01  0.51100000000E-03 0. -1.
         11    1    4    4    0    0 -0.67651362298E-01 -0.61841159818E-01  0.24728036234E-01  0.94935624322E-01  0.51100000000E-03 0.  1.
</event>
<event>
 8    1  0.1163913E+005  0.1043930E+01  0.7957747E-01            NaN
         13   -1    0    0    0    0  0.00000000000E+00  0.00000000000E+00  0.74505805969E-08  0.10566000000E+00  0.10566000000E+00 0.  1.
     999900   -1    0    0    0    0 -0.00000000000E+00 -0.00000000000E+00 -0.74505805969E-08  0.93827000000E+00  0.93827000000E+00 0.  1.
     999902    2    1    2    0    0 -0.12144104439E-02 -0.58832871872E-02  0.22886422394E-01  0.10202682970E+01  0.10199938831E+01 0.  0.
     999903    2    3    3    0    0  0.95562100445E-01 -0.78349868266E-01 -0.34004372790E-01  0.13018197473E+00  0.22808600970E-01 0.  0.
         14    1    1    2    0    0  0.12144104439E-02  0.58832871872E-02 -0.22886422394E-01  0.23661703042E-01  0.00000000000E+00 0. -1.
     999901    1    3    3    0    0 -0.96776510888E-01  0.72466581079E-01  0.56890795184E-01  0.89008632222E+00  0.88000000000E+00 0.  1.
        -11    1    4    4    0    0  0.31601536474E-01 -0.32964956541E-01 -0.27362445368E-02  0.45750340134E-01  0.51100000000E-03 0. -1.
         11    1    4    4    0    0  0.63960563971E-01 -0.45384911726E-01 -0.31268128253E-01  0.84431634601E-01  0.51100000000E-03 0.  1.
</event>
<event>
 7    1  0.1163913E+005  0.1043930E+01  0.7957747E-01            NaN
         13   -1    0    0    0    0  0.00000000000E+00  0.00000000000E+00  0.74505805969E-08  0.10566000000E+00  0.10566000000E+00 0. -1.
     999900   -1    0    0    0    0 -0.00000000000E+00 -0.00000000000E+00 -0.74505805969E-08  0.93827000000E+00  0.93827000000E+00 0.  1.
     999903    2    1    2    0    0  0.81886860020E-01 -0.12473259893E-01  0.55000740758E-01  0.10157985733E+00  0.20792928484E-01 0.  0.
         14    1    1    2    0    0  0.44156472221E-01  0.24729982352E-01 -0.13198432785E-01  0.52302626073E-01  0.00000000000E+00 0.  1.
     999901    1    1    2    0    0 -0.12604333224E+00 -0.12256722459E-01 -0.41802307974E-01  0.89004751660E+00  0.88000000000E+00 0.  1.
        -11    1    3    3    0    0  0.56246917223E-01 -0.10246574246E-01  0.26018883261E-01  0.62816808165E-01  0.51100000000E-03 0. -1.
         11    1    3    3    0    0  0.25639942797E-01 -0.22266856469E-02  0.28981857497E-01  0.38763049165E-01  0.51100000000E-03 0.  1.
</event>
<event>
 8    1  0.1163913E+005  0.1043930E+01  0.7957747E-01            NaN
         13   -1    0    0    0    0  0.00000000000E+00  0.00000000000E+00  0.74505805969E-08  0.10566000000E+00  0.10566000000E+00 0. -1.
     999900   -1    0    0    0    0 -0.00000000000E+00 -0.00000000000E+00 -0.74505805969E-08  0.93827000000E+00  0.93827000000E+00 0. -1.
     999902    2    1    2    0    0  0.18972060628E-01  0.97142796933E-02 -0.10284858365E-01  0.10202638929E+01  0.10199893757E+01 0.  0.
     999903    2    3    3    0    0  0.74656556180E-01 -0.10262368601E+00 -0.26980021926E-01  0.13121985007E+00  0.19634285247E-01 0.  0.
         14    1    1    2    0    0 -0.18972060628E-01 -0.97142796933E-02  0.10284858365E-01  0.23666107116E-01  0.00000000000E+00 0.  1.
     999901    1    3    3    0    0 -0.55684495552E-01  0.11233796570E+00  0.16695163561E-01  0.88904404282E+00  0.88000000000E+00 0.  1.
        -11    1    4    4    0    0  0.14946139851E-01 -0.28849032150E-01  0.19022709811E-03  0.32495400595E-01  0.51100000000E-03 0. -1.
         11    1    4    4    0    0  0.59710416330E-01 -0.73774653860E-01 -0.27170249024E-01  0.98724449472E-01  0.51100000000E-03 0.  1.
</event>
<event>
 8    1  0.1163913E+005  0.1043930E+01  0.7957747E-01            NaN
         13   -1    0    0    0    0  0.00000000000E+00  0.00000000000E+00  0.74505805969E-08  0.10566000000E+00  0.10566000000E+00 0.  1.
     999900   -1    0    0    0    0 -0.00000000000E+00 -0.00000000000E+00 -0.74505805969E-08  0.93827000000E+00  0.93827000000E+00 0. -1.
     999902    2    1    2    0    0 -0.78304532149E-02  0.11015564475E-01  0.24345069248E-02  0.10301973571E+01  0.10301058242E+01 0.  0.
     999903    2    3    3    0    0 -0.52037211118E-01  0.32284263257E-01  0.12473937003E+00  0.14038553733E+00  0.19951031560E-01 0.  0.
         14    1    1    2    0    0  0.78304532149E-02 -0.11015564475E-01 -0.24345069248E-02  0.13732642943E-01  0.00000000000E+00 0.  1.
     999901    1    3    3    0    0  0.44206757903E-01 -0.21268698783E-01 -0.12230486310E+00  0.88981181973E+00  0.88000000000E+00 0. -1.
        -11    1    4    4    0    0 -0.27433773688E-01  0.13085913800E-01  0.41163202095E-01  0.51171509714E-01  0.51100000000E-03 0. -1.
         11    1    4    4    0    0 -0.24603437430E-01  0.19198349457E-01  0.83576167934E-01  0.89214027612E-01  0.51100000000E-03 0.  1.
</event>
<event>
 8    1  0.1163913E+005  0.1043930E+01  0.7957747E-01            NaN
         13   -1    0    0    0    0  0.00000000000E+00  0.00000000000E+00  0.74505805969E-08  0.10566000000E+00  0.10566000000E+00 0.  1.
     999900   -1    0    0    0    0 -0.00000000000E+00 -0.00000000000E+00 -0.74505805969E-08  0.93827000000E+00  0.93827000000E+00 0. -1.
     999902    2    1    2    0    0 -0.46944061837E-02 -0.16265774924E-01  0.14895825321E-01  0.10213800888E+01  0.10211311313E+01 0.  0.
     999903    2    3    3    0    0  0.11928378322E-01 -0.96090916320E-01 -0.87139649485E-01  0.13173993217E+00  0.19655554103E-01 0.  0.
         14    1    1    2    0    0  0.46944061837E-02  0.16265774924E-01 -0.14895825321E-01  0.22549911203E-01  0.00000000000E+00 0. -1.
     999901    1    3    3    0    0 -0.16622784506E-01  0.79825141396E-01  0.10203547481E+00  0.88964015663E+00  0.88000000000E+00 0.  1.
        -11    1    4    4    0    0  0.16587145911E-01 -0.55303502471E-01 -0.50110188262E-01  0.76451964551E-01  0.51100000000E-03 0. -1.
         11    1    4    4    0    0 -0.46587675893E-02 -0.40787413849E-01 -0.37029461224E-01  0.55287967619E-01  0.51100000000E-03 0.  1.
</event>
<event>
 8    1  0.1163913E+005  0.1043930E+01  0.7957747E-01            NaN
         13   -1    0    0    0    0  0.00000000000E+00  0.00000000000E+00  0.74505805969E-08  0.10566000000E+00  0.10566000000E+00 0.  1.
     999900   -1    0    0    0    0 -0.00000000000E+00 -0.00000000000E+00 -0.74505805969E-08  0.93827000000E+00  0.93827000000E+00 0.  1.
     999902    2    1    2    0    0 -0.22779050736E-01 -0.62329163726E-02 -0.43960280721E-02  0.10199079380E+01  0.10196250010E+01 0.  0.
     999903    2    3    3    0    0  0.11138457459E+00 -0.57441866221E-01  0.16313090673E-01  0.12802728317E+00  0.20464038148E-01 0.  0.
         14    1    1    2    0    0  0.22779050736E-01  0.62329163726E-02  0.43960280721E-02  0.24022061979E-01  0.00000000000E+00 0.  1.
     999901    1    3    3    0    0 -0.13416362532E+00  0.51208949848E-01 -0.20709118745E-01  0.89188065485E+00  0.88000000000E+00 0.  1.
        -11    1    4    4    0    0  0.83187300733E-01 -0.41066233866E-01  0.20891023527E-01  0.95096049088E-01  0.51100000000E-03 0. -1.
         11    1    4    4    0    0  0.28197273852E-01 -0.16375632355E-01 -0.45779328544E-02  0.32931234079E-01  0.51100000000E-03 0.  1.
</event>
<event>
 8    1  0.1163913E+005  0.1043930E+01  0.7957747E-01            NaN
         13   -1    0    0    0    0  0.00000000000E+00  0.00000000000E+00  0.74505805969E-08  0.10566000000E+00  0.10566000000E+00 0.  1.
     999900   -1    0    0    0    0 -0.00000000000E+00 -0.00000000000E+00 -0.74505805969E-08  0.93827000000E+00  0.93827000000E+00 0.  1.
     999902    2    1    2    0    0  0.74417678911E-02 -0.14025184755E-01  0.17695507539E-01  0.10201557134E+01  0.10198786510E+01 0.  0.
     999903    2    3    3    0    0  0.50210977802E-01 -0.11266404955E+00 -0.41483560778E-01  0.13163953847E+00  0.19843183235E-01 0.  0.
         14    1    1    2    0    0 -0.74417678911E-02  0.14025184755E-01 -0.17695507539E-01  0.23774286611E-01  0.00000000000E+00 0. -1.
     999901    1    3    3    0    0 -0.42769209911E-01  0.98638864796E-01  0.59179068317E-01  0.88851617492E+00  0.88000000000E+00 0. -1.
        -11    1    4    4    0    0  0.26677738687E-01 -0.48397048513E-01 -0.27719086240E-01  0.61827056449E-01  0.51100000000E-03 0.  1.
         11    1    4    4    0    0  0.23533239116E-01 -0.64267001038E-01 -0.13764474538E-01  0.69812482022E-01  0.51100000000E-03 0. -1.
</event>
<event>
 8    1  0.1163913E+005  0.1043930E+01  0.7957747E-01            NaN
         13   -1    0    0    0    0  0.00000000000E+00  0.00000000000E+00  0.74505805969E-08  0.10566000000E+00  0.10566000000E+00 0. -1.
     999900   -1    0    0    0    0 -0.00000000000E+00 -0.00000000000E+00 -0.74505805969E-08  0.93827000000E+00  0.93827000000E+00 0.  1.
     999902    2    1    2    0    0  0.21844701386E-01  0.16926332187E-01 -0.25435184411E-02  0.10161782219E+01  0.10157992014E+01 0.  0.
     999903    2    3    3    0    0  0.11595882228E+00 -0.27982904333E-01 -0.40782341223E-01  0.12919653393E+00  0.28267536583E-01 0.  0.
         14    1    1    2    0    0 -0.21844701386E-01 -0.16926332187E-01  0.25435184411E-02  0.27751778069E-01  0.00000000000E+00 0. -1.
     999901    1    3    3    0    0 -0.94114120896E-01  0.44909236520E-01  0.38238822782E-01  0.88698168800E+00  0.88000000000E+00 0. -1.
        -11    1    4    4    0    0  0.10118686359E+00 -0.29876560191E-01 -0.43368376604E-01  0.11407220268E+00  0.51100000000E-03 0. -1.
         11    1    4    4    0    0  0.14771958687E-01  0.18936558580E-02  0.25860353808E-02  0.15124331257E-01  0.51100000000E-03 0.  1.
</event>
<event>
 8    1  0.1163913E+005  0.1043930E+01  0.7957747E-01            NaN
         13   -1    0    0    0    0  0.00000000000E+00  0.00000000000E+00  0.74505805969E-08  0.10566000000E+00  0.10566000000E+00 0. -1.
     999900   -1    0    0    0    0 -0.00000000000E+00 -0.00000000000E+00 -0.74505805969E-08  0.93827000000E+00  0.93827000000E+00 0. -1.
     999902    2    1    2    0    0  0.98381118849E-02 -0.19195946018E-01  0.88530336352E-02  0.10206137183E+01  0.10203473492E+01 0.  0.
     999903    2    3    3    0    0 -0.61473808993E-01 -0.66915117410E-01  0.93193933715E-01  0.13242685910E+00  0.24394704354E-01 0.  0.
         14    1    1    2    0    0 -0.98381118849E-02  0.19195946018E-01 -0.88530336352E-02  0.23316281726E-01  0.00000000000E+00 0. -1.
     999901    1    3    3    0    0  0.71311920878E-01  0.47719171393E-01 -0.84340900080E-01  0.88818685917E+00  0.88000000000E+00 0. -1.
        -11    1    4    4    0    0 -0.27693031345E-01 -0.42052683716E-01  0.63457723678E-01  0.81009110649E-01  0.51100000000E-03 0. -1.
         11    1    4    4    0    0 -0.33780777648E-01 -0.24862433695E-01  0.29736210037E-01  0.51417748454E-01  0.51100000000E-03 0.  1.
</event>
<event>
 8    1  0.1163913E+005  0.1043930E+01  0.7957747E-01            NaN
         13   -1    0    0    0    0  0.00000000000E+00  0.00000000000E+00  0.74505805969E-08  0.10566000000E+00  0.10566000000E+00 0.  1.
     999900   -1    0    0    0    0 -0.00000000000E+00 -0.00000000000E+00 -0.74505805969E-08  0.93827000000E+00  0.93827000000E+00 0. -1.
     999902    2    1    2    0    0  0.17380261108E-01 -0.13176475168E-02 -0.15569180285E-01  0.10205588844E+01  0.10202912464E+01 0.  0.
     999903    2    3    3    0    0  0.35274926333E-01  0.10441688948E+00  0.66391041201E-01  0.13026820753E+00  0.20367334281E-01 0.  0.
         14    1    1    2    0    0 -0.17380261108E-01  0.13176475168E-02  0.15569180285E-01  0.23371115632E-01  0.00000000000E+00 0.  1.
     999901    1    3    3    0    0 -0.17894665225E-01 -0.10573453699E+00 -0.81960221486E-01  0.89029067684E+00  0.88000000000E+00 0.  1.
        -11    1    4    4    0    0  0.13490730163E-01  0.21627255167E-01  0.83065300721E-02  0.26814129283E-01  0.51100000000E-03 0. -1.
         11    1    4    4    0    0  0.21784196170E-01  0.82789634310E-01  0.58084511129E-01  0.10345407825E+00  0.51100000000E-03 0.  1.
</event>
<event>
 8    1  0.1163913E+005  0.1043930E+01  0.7957747E-01            NaN
         13   -1    0    0    0    0  0.00000000000E+00  0.00000000000E+00  0.74505805969E-08  0.10566000000E+00  0.10566000000E+00 0.  1.
     999900   -1    0    0    0    0 -0.00000000000E+00 -0.00000000000E+00 -0.74505805969E-08  0.93827000000E+00  0.93827000000E+00 0. -1.
     999902    2    1    2    0    0 -0.12549325879E-01  0.13412196153E-01  0.14596524292E-01  0.10204687318E+01  0.10201990009E+01 0.  0.
     999903    2    3    3    0    0  0.63600938069E-01  0.17348571757E-03  0.11356237950E+00  0.13155458144E+00  0.19107182971E-01 0.  0.
         14    1    1    2    0    0  0.12549325879E-01 -0.13412196153E-01 -0.14596524292E-01  0.23461268233E-01  0.00000000000E+00 0. -1.
     999901    1    3    3    0    0 -0.76150263948E-01  0.13238710435E-01 -0.98965855203E-01  0.88891415033E+00  0.88000000000E+00 0. -1.
        -11    1    4    4    0    0  0.38476923369E-01  0.84992350837E-02  0.59625873551E-01  0.71471788467E-01  0.51100000000E-03 0.  1.
         11    1    4    4    0    0  0.25124014700E-01 -0.83257493661E-02  0.53936505944E-01  0.60082792974E-01  0.51100000000E-03 0. -1.
</event>
<event>
 8    1  0.1163913E+005  0.1043930E+01  0.7957747E-01            NaN
         13   -1    0    0    0    0  0.00000000000E+00  0.00000000000E+00  0.74505805969E-08  0.10566000000E+00  0.10566000000E+00 0. -1.
     999900   -1    0    0    0    0 -0.00000000000E+00 -0.00000000000E+00 -0.74505805969E-08  0.93827000000E+00  0.93827000000E+00 0. -1.
     999902    2    1    2    0    0  0.10350001251E-01  0.20523425649E-01  0.10960454539E-01  0.10184650223E+01  0.10181466184E+01 0.  0.
     999903    2    3    3    0    0 -0.10505556375E+00  0.45391748341E-01  0.57062955412E-01  0.12938554412E+00  0.19681358054E-01 0.  0.
         14    1    1    2    0    0 -0.10350001251E-01 -0.20523425649E-01 -0.10960454539E-01  0.25464977714E-01  0.00000000000E+00 0.  1.
     999901    1    3    3    0    0  0.11540556500E+00 -0.24868322691E-01 -0.46102500872E-01  0.88907947816E+00  0.88000000000E+00 0. -1.
        -11    1    4    4    0    0 -0.33240730733E-01  0.24361309221E-01  0.18053116260E-01  0.44995507491E-01  0.51100000000E-03 0. -1.
         11    1    4    4    0    0 -0.71814833017E-01  0.21030439120E-01  0.39009839151E-01  0.84390036630E-01  0.51100000000E-03 0.  1.
</event>
<event>
 8    1  0.1163913E+005  0.1043930E+01  0.7957747E-01            NaN
         13   -1    0    0    0    0  0.00000000000E+00  0.00000000000E+00  0.74505805969E-08  0.10566000000E+00  0.10566000000E+00 0. -1.
     999900   -1    0    0    0    0 -0.00000000000E+00 -0.00000000000E+00 -0.74505805969E-08  0.93827000000E+00  0.93827000000E+00 0. -1.
     999902    2    1    2    0    0 -0.61232972352E-02 -0.22415913624E-01  0.73157935823E-02  0.10195683747E+01  0.10192772841E+01 0.  0.
     999903    2    3    3    0    0 -0.66337470912E-01 -0.97436765049E-01  0.57913384943E-01  0.13288128719E+00  0.20221105315E-01 0.  0.
         14    1    1    2    0    0  0.61232972352E-02  0.22415913624E-01 -0.73157935823E-02  0.24361625323E-01  0.00000000000E+00 0.  1.
     999901    1    3    3    0    0  0.60214173677E-01  0.75020851425E-01 -0.50597591361E-01  0.88668708748E+00  0.88000000000E+00 0. -1.
        -11    1    4    4    0    0 -0.99495700637E-02 -0.60713271373E-02  0.97610016823E-02  0.15211615052E-01  0.51100000000E-03 0. -1.
         11    1    4    4    0    0 -0.56387900849E-01 -0.91365437912E-01  0.48152383261E-01  0.11766967214E+00  0.51100000000E-03 0.  1.
</event>
<event>
 7    1  0.1704123E+005  0.1043930E+01  0.7957747E-01            NaN
         13   -1    0    0    0    0  0.00000000000E+00  0.00000000000E+00  0.74505805969E-08  0.10566000000E+00  0.10566000000E+00 0. -1.
     999900   -1    0    0    0    0 -0.00000000000E+00 -0.00000000000E+00 -0.74505805969E-08  0.93827000000E+00  0.93827000000E+00 0.  1.
     999903    2    1    2    0    0 -0.76869079821E-01 -0.68601500448E-01 -0.19870425363E-01  0.10650025981E+00  0.18233218021E-01 0.  0.
         14    1    1    2    0    0 -0.26658177642E-01 -0.25035771062E-01  0.28532662444E-01  0.46384923132E-01  0.00000000000E+00 0.  1.
     999901    1    1    2    0    0  0.10352725746E+00  0.93637271510E-01 -0.86622370810E-02  0.89104481706E+00  0.88000000000E+00 0. -1.
        -11    1    3    3    0    0 -0.49011972971E-01 -0.41135000603E-01 -0.34839705455E-02  0.64083234475E-01  0.51100000000E-03 0.  1.
         11    1    3    3    0    0 -0.27857106850E-01 -0.27466499845E-01 -0.16386454818E-01  0.42417025335E-01  0.51100000000E-03 0. -1.
</event>
<event>
 8    1  0.1163913E+005  0.1043930E+01  0.7957747E-01            NaN
         13   -1    0    0    0    0  0.00000000000E+00  0.00000000000E+00  0.74505805969E-08  0.10566000000E+00  0.10566000000E+00 0.  1.
     999900   -1    0    0    0    0 -0.00000000000E+00 -0.00000000000E+00 -0.74505805969E-08  0.93827000000E+00  0.93827000000E+00 0.  1.
     999902    2    1    2    0    0 -0.12141150316E-01  0.26978206086E-02 -0.20852589201E-01  0.10196500444E+01  0.10193609257E+01 0.  0.
     999903    2    3    3    0    0 -0.12447646395E+00  0.37583103486E-01 -0.43121724984E-02  0.13166930642E+00  0.20281313511E-01 0.  0.
         14    1    1    2    0    0  0.12141150316E-01 -0.26978206086E-02  0.20852589201E-01  0.24279955589E-01  0.00000000000E+00 0.  1.
     999901    1    3    3    0    0  0.11233531363E+00 -0.34885282877E-01 -0.16540416702E-01  0.88798073799E+00  0.88000000000E+00 0. -1.
        -11    1    4    4    0    0 -0.40251547865E-01  0.22106467314E-01 -0.23902267586E-04  0.45925425365E-01  0.51100000000E-03 0. -1.
         11    1    4    4    0    0 -0.84224916084E-01  0.15476636172E-01 -0.42882702308E-02  0.85743881060E-01  0.51100000000E-03 0.  1.
</event>
<event>
 8    1  0.1163913E+005  0.1043930E+01  0.7957747E-01            NaN
         13   -1    0    0    0    0  0.00000000000E+00  0.00000000000E+00  0.74505805969E-08  0.10566000000E+00  0.10566000000E+00 0. -1.
     999900   -1    0    0    0    0 -0.00000000000E+00 -0.00000000000E+00 -0.74505805969E-08  0.93827000000E+00  0.93827000000E+00 0. -1.
     999902    2    1    2    0    0 -0.10723370046E-01 -0.31337027432E-02  0.20528829883E-01  0.10205581448E+01  0.10202904897E+01 0.  0.
     999903    2    3    3    0    0 -0.11382853849E+00 -0.62299482950E-01  0.18130605700E-01  0.13256207682E+00  0.20145063843E-01 0.  0.
         14    1    1    2    0    0  0.10723370046E-01  0.31337027432E-02 -0.20528829883E-01  0.23371855176E-01  0.00000000000E+00 0.  1.
     999901    1    3    3    0    0  0.10310516845E+00  0.59165780206E-01  0.23982241830E-02  0.88799606800E+00  0.88000000000E+00 0.  1.
        -11    1    4    4    0    0 -0.87461430183E-01 -0.57030386941E-01  0.13778591886E-01  0.10531893239E+00  0.51100000000E-03 0. -1.
         11    1    4    4    0    0 -0.26367108308E-01 -0.52690960084E-02  0.43520138135E-02  0.27243144432E-01  0.51100000000E-03 0.  1.
</event>
<event>
 8    1  0.1163913E+005  0.1043930E+01  0.7957747E-01            NaN
         13   -1    0    0    0    0  0.00000000000E+00  0.00000000000E+00  0.74505805969E-08  0.10566000000E+00  0.10566000000E+00 0. -1.
     999900   -1    0    0    0    0 -0.00000000000E+00 -0.00000000000E+00 -0.74505805969E-08  0.93827000000E+00  0.93827000000E+00 0. -1.
     999902    2    1    2    0    0 -0.75754693021E-02 -0.19957255285E-01 -0.93081521225E-02  0.10206422034E+01  0.10203764922E+01 0.  0.
     999903    2    3    3    0    0 -0.85747490337E-01  0.76991291143E-01  0.55823864773E-01  0.12949010352E+00  0.19263748883E-01 0.  0.
         14    1    1    2    0    0  0.75754693021E-02  0.19957255285E-01  0.93081521225E-02  0.23287796581E-01  0.00000000000E+00 0. -1.
     999901    1    3    3    0    0  0.78172021035E-01 -0.96948546428E-01 -0.65132016895E-01  0.89115209990E+00  0.88000000000E+00 0. -1.
        -11    1    4    4    0    0 -0.53041100165E-01  0.38357587591E-01  0.38738637208E-01  0.76063170893E-01  0.51100000000E-03 0.  1.
         11    1    4    4    0    0 -0.32706390172E-01  0.38633703552E-01  0.17085227564E-01  0.53426932629E-01  0.51100000000E-03 0. -1.
</event>
<event>
 8    1  0.1163913E+005  0.1043930E+01  0.7957747E-01            NaN
         13   -1    0    0    0    0  0.00000000000E+00  0.00000000000E+00  0.74505805969E-08  0.10566000000E+00  0.10566000000E+00 0.  1.
     999900   -1    0    0    0    0 -0.00000000000E+00 -0.00000000000E+00 -0.74505805969E-08  0.93827000000E+00  0.93827000000E+00 0.  1.
     999902    2    1    2    0    0 -0.79989927877E-02 -0.92861029371E-02 -0.20317424915E-01  0.10202020977E+01  0.10199261281E+01 0.  0.
     999903    2    3    3    0    0  0.10463462093E+00  0.71459769071E-01  0.12338804872E-01  0.12875795690E+00  0.19273371942E-01 0.  0.
         14    1    1    2    0    0  0.79989927877E-02  0.92861029371E-02  0.20317424915E-01  0.23727902321E-01  0.00000000000E+00 0.  1.
     999901    1    3    3    0    0 -0.11263361372E+00 -0.80745872008E-01 -0.32656229787E-01  0.89144414078E+00  0.88000000000E+00 0. -1.
        -11    1    4    4    0    0  0.27881537642E-01  0.16359175687E-01  0.11359553017E-01  0.34268109609E-01  0.51100000000E-03 0. -1.
         11    1    4    4    0    0  0.76753083291E-01  0.55100593384E-01  0.97925185524E-03  0.94489847291E-01  0.51100000000E-03 0.  1.
</event>
<event>
 8    1  0.1163913E+005  0.1043930E+01  0.7957747E-01            NaN
         13   -1    0    0    0    0  0.00000000000E+00  0.00000000000E+00  0.74505805969E-08  0.10566000000E+00  0.10566000000E+00 0. -1.
     999900   -1    0    0    0    0 -0.00000000000E+00 -0.00000000000E+00 -0.74505805969E-08  0.93827000000E+00  0.93827000000E+00 0.  1.
     999902    2    1    2    0    0  0.12925365723E-01 -0.12776936508E-01  0.13467634648E-01  0.10213093818E+01  0.10210588430E+01 0.  0.
     999903    2    3    3    0    0  0.51252913615E-01  0.37778145952E-01  0.11502312585E+00  0.13319996562E+00  0.21397707709E-01 0.  0.
         14    1    1    2    0    0 -0.12925365723E-01  0.12776936508E-01 -0.13467634648E-01  0.22620618219E-01  0.00000000000E+00 0. -1.
     999901    1    3    3    0    0 -0.38327547892E-01 -0.50555082459E-01 -0.10155549120E+00  0.88810941617E+00  0.88000000000E+00 0.  1.
        -11    1    4    4    0    0  0.23505173812E-01  0.29509037035E-01  0.72870220020E-01  0.82058555614E-01  0.51100000000E-03 0.  1.
         11    1    4    4    0    0  0.27747739803E-01  0.82691089165E-02  0.42152905825E-01  0.51141410002E-01  0.51100000000E-03 0. -1.
</event>
<event>
 8    1  0.1163913E+005  0.1043930E+01  0.7957747E-01            NaN
         13   -1    0    0    0    0  0.00000000000E+00  0.00000000000E+00  0.74505805969E-08  0.10566000000E+00  0.10566000000E+00 0.  1.
     999900   -1    0    0    0    0 -0.00000000000E+00 -0.00000000000E+00 -0.74505805969E-08  0.93827000000E+00  0.93827000000E+00 0. -1.
     999902    2    1    2    0    0  0.16145148749E-01  0.71167561440E-02  0.15926665188E-01  0.10201608454E+01  0.10198839041E+01 0.  0.
     999903    2    3    3    0    0 -0.60662731372E-02 -0.33933987818E-01  0.12581827848E+00  0.13209852917E+00  0.20771783988E-01 0.  0.
         14    1    1    2    0    0 -0.16145148749E-01 -0.71167561440E-02 -0.15926665188E-01  0.23769154595E-01  0.00000000000E+00 0. -1.
     999901    1    3    3    0    0  0.22211421886E-01  0.41050743962E-01 -0.10989161329E+00  0.88806231623E+00  0.88000000000E+00 0. -1.
        -11    1    4    4    0    0 -0.42616192520E-02 -0.58309574714E-02  0.60961683664E-01  0.61390141389E-01  0.51100000000E-03 0. -1.
         11    1    4    4    0    0 -0.18046538853E-02 -0.28103030347E-01  0.64856594818E-01  0.70708387782E-01  0.51100000000E-03 0.  1.
</event>
<event>
 8    1  0.1163913E+005  0.1043930E+01  0.7957747E-01            NaN
         13   -1    0    0    0    0  0.00000000000E+00  0.00000000000E+00  0.74505805969E-08  0.10566000000E+00  0.10566000000E+00 0.  1.
     999900   -1    0    0    0    0 -0.00000000000E+00 -0.00000000000E+00 -0.74505805969E-08  0.93827000000E+00  0.93827000000E+00 0. -1.
     999902    2    1    2    0    0 -0.49675155382E-02 -0.17323709228E-01  0.16698140485E-01  0.10193614224E+01  0.10190653043E+01 0.  0.
     999903    2    3    3    0    0 -0.86711682385E-01 -0.94840175608E-01  0.18699082174E-01  0.13217772371E+00  0.24651981634E-01 0.  0.
         14    1    1    2    0    0  0.49675155382E-02  0.17323709228E-01 -0.16698140485E-01  0.24568577649E-01  0.00000000000E+00 0.  1.
     999901    1    3    3    0    0  0.81744166847E-01  0.77516466380E-01 -0.20009416892E-02  0.88718369864E+00  0.88000000000E+00 0. -1.
        -11    1    4    4    0    0 -0.33155367613E-01 -0.43029406875E-01 -0.34635712599E-02  0.54434049128E-01  0.51100000000E-03 0. -1.
         11    1    4    4    0    0 -0.53556314772E-01 -0.51810768733E-01  0.22162653434E-01  0.77743674578E-01  0.51100000000E-03 0.  1.
</event>
<event>
 8    1  0.1163913E+005  0.1043930E+01  0.7957747E-01            NaN
         13   -1    0    0    0    0  0.00000000000E+00  0.00000000000E+00  0.74505805969E-08  0.10566000000E+00  0.10566000000E+00 0.  1.
     999900   -1    0    0    0    0 -0.00000000000E+00 -0.00000000000E+00 -0.74505805969E-08  0.93827000000E+00  0.93827000000E+00 0.  1.
     999902    2    1    2    0    0  0.13223225939E-01 -0.12136157819E-01  0.13230443700E-01  0.10216323618E+01  0.10213890042E+01 0.  0.
     999903    2    3    3    0    0 -0.86366924569E-01  0.93539816366E-01  0.15213607633E-01  0.12973015717E+00  0.19736182951E-01 0.  0.
         14    1    1    2    0    0 -0.13223225939E-01  0.12136157819E-01 -0.13230443700E-01  0.22297638246E-01  0.00000000000E+00 0. -1.
     999901    1    3    3    0    0  0.99590150508E-01 -0.10567597419E+00 -0.19831639337E-02  0.89190220458E+00  0.88000000000E+00 0.  1.
        -11    1    4    4    0    0 -0.31704128392E-01  0.28541415065E-01 -0.33573514558E-02  0.42793656783E-01  0.51100000000E-03 0.  1.
         11    1    4    4    0    0 -0.54662796177E-01  0.64998401301E-01  0.18570959089E-01  0.86936500390E-01  0.51100000000E-03 0. -1.
</event>
<event>
 8    1  0.1163913E+005  0.1043930E+01  0.7957747E-01            NaN
         13   -1    0    0    0    0  0.00000000000E+00  0.00000000000E+00  0.74505805969E-08  0.10566000000E+00  0.10566000000E+00 0.  1.
     999900   -1    0    0    0    0 -0.00000000000E+00 -0.00000000000E+00 -0.74505805969E-08  0.93827000000E+00  0.93827000000E+00 0.  1.
     999902    2    1    2    0    0 -0.22766251519E-01  0.18562757288E-04 -0.69276422074E-03  0.10211532031E+01  0.10208991536E+01 0.  0.
     999903    2    3    3    0    0  0.98599406099E-01  0.64177234870E-01 -0.50710609271E-01  0.12910626330E+00  0.16009402629E-01 0.  0.
         14    1    1    2    0    0  0.22766251519E-01 -0.18562757288E-04  0.69276422074E-03  0.22776796857E-01  0.00000000000E+00 0. -1.
     999901    1    3    3    0    0 -0.12136565762E+00 -0.64158672113E-01  0.50017845050E-01  0.89204693984E+00  0.88000000000E+00 0. -1.
        -11    1    4    4    0    0  0.44613448571E-01  0.22236595905E-01 -0.15488214944E-01  0.52201263529E-01  0.51100000000E-03 0. -1.
         11    1    4    4    0    0  0.53985957528E-01  0.41940638965E-01 -0.35222394327E-01  0.76904999773E-01  0.51100000000E-03 0.  1.
</event>
<event>
 8    1  0.1163913E+005  0.1043930E+01  0.7957747E-01            NaN
         13   -1    0    0    0    0  0.00000000000E+00  0.00000000000E+00  0.74505805969E-08  0.10566000000E+00  0.10566000000E+00 0.  1.
     999900   -1    0    0    0    0 -0.00000000000E+00 -0.00000000000E+00 -0.74505805969E-08  0.93827000000E+00  0.93827000000E+00 0.  1.
     999902    2    1    2    0    0 -0.17759441079E-01 -0.78520723436E-03 -0.15511359832E-01  0.10203372769E+01  0.10200644794E+01 0.  0.
     999903    2    3    3    0    0 -0.67981262587E-01  0.67290413601E-01 -0.90291527065E-01  0.13312332589E+00  0.20489221849E-01 0.  0.
         14    1    1    2    0    0  0.17759441079E-01  0.78520723436E-03  0.15511359832E-01  0.23592723066E-01  0.00000000000E+00 0. -1.
     999901    1    3    3    0    0  0.50221821508E-01 -0.68075620835E-01  0.74780167234E-01  0.88721395104E+00  0.88000000000E+00 0. -1.
        -11    1    4    4    0    0 -0.87054477146E-02  0.20552209527E-01 -0.21391211204E-01  0.30919624417E-01  0.51100000000E-03 0.  1.
         11    1    4    4    0    0 -0.59275814872E-01  0.46738204074E-01 -0.68900315861E-01  0.10220370148E+00  0.51100000000E-03 0. -1.
</event>
<event>
 8    1  0.1163913E+005  0.1043930E+01  0.7957747E-01            NaN
         13   -1    0    0    0    0  0.00000000000E+00  0.00000000000E+00  0.74505805969E-08  0.10566000000E+00  0.10566000000E+00 0.  1.
     999900   -1    0    0    0    0 -0.00000000000E+00 -0.00000000000E+00 -0.74505805969E-08  0.93827000000E+00  0.93827000000E+00 0.  1.
     999902    2    1    2    0    0  0.12761672965E-01 -0.86678710120E-02  0.17960998317E-01  0.10202532235E+01  0.10199784558E+01 0.  0.
     999903    2    3    3    0    0 -0.12538807913E+00 -0.15427550878E-02 -0.20911499119E-01  0.12859903474E+00  0.19387378875E-01 0.  0.
         14    1    1    2    0    0 -0.12761672965E-01  0.86678710120E-02 -0.17960998317E-01  0.23676776497E-01  0.00000000000E+00 0. -1.
     999901    1    3    3    0    0  0.13814975209E+00 -0.71251159242E-02  0.38872497436E-01  0.89165418876E+00  0.88000000000E+00 0. -1.
        -11    1    4    4    0    0 -0.67669503982E-01  0.20353338797E-02 -0.19212920623E-02  0.67729290837E-01  0.51100000000E-03 0. -1.
         11    1    4    4    0    0 -0.57718575149E-01 -0.35780889675E-02 -0.18990207057E-01  0.60869743904E-01  0.51100000000E-03 0.  1.
</event>
<event>
 8    1  0.1163913E+005  0.1043930E+01  0.7957747E-01            NaN
         13   -1    0    0    0    0  0.00000000000E+00  0.00000000000E+00  0.74505805969E-08  0.10566000000E+00  0.10566000000E+00 0.  1.
     999900   -1    0    0    0    0 -0.00000000000E+00 -0.00000000000E+00 -0.74505805969E-08  0.93827000000E+00  0.93827000000E+00 0.  1.
     999902    2    1    2    0    0  0.94159769314E-02 -0.16920176362E-01  0.12148447777E-01  0.10210709149E+01  0.10208150055E+01 0.  0.
     999903    2    3    3    0    0  0.11108561997E+00  0.30564901799E-01  0.63009293060E-01  0.13248868764E+00  0.17574218469E-01 0.  0.
         14    1    1    2    0    0 -0.94159769314E-02  0.16920176362E-01 -0.12148447777E-01  0.22859085133E-01  0.00000000000E+00 0. -1.
     999901    1    3    3    0    0 -0.10166964304E+00 -0.47485078161E-01 -0.50860845283E-01  0.88858222723E+00  0.88000000000E+00 0. -1.
        -11    1    4    4    0    0  0.42916637702E-01  0.58874801838E-02  0.16524245338E-01  0.46366065388E-01  0.51100000000E-03 0. -1.
         11    1    4    4    0    0  0.68168982266E-01  0.24677421615E-01  0.46485047722E-01  0.86122622252E-01  0.51100000000E-03 0.  1.
</event>
<event>
 8    1  0.1163913E+005  0.1043930E+01  0.7957747E-01            NaN
         13   -1    0    0    0    0  0.00000000000E+00  0.00000000000E+00  0.74505805969E-08  0.10566000000E+00  0.10566000000E+00 0. -1.
     999900   -1    0    0    0    0 -0.00000000000E+00 -0.00000000000E+00 -0.74505805969E-08  0.93827000000E+00  0.93827000000E+00 0.  1.
     999902    2    1    2    0    0  0.20776886852E-01 -0.10880144638E-01 -0.44658823265E-02  0.10200553130E+01  0.10197758778E+01 0.  0.
     999903    2    3    3    0    0  0.12943353264E-01 -0.37161390340E-02 -0.12893133203E+00  0.13123343242E+00  0.20434904528E-01 0.  0.
         14    1    1    2    0    0 -0.20776886852E-01  0.10880144638E-01  0.44658823265E-02  0.23874687005E-01  0.00000000000E+00 0.  1.
     999901    1    3    3    0    0  0.78335335879E-02 -0.71640056037E-02  0.12446544970E+00  0.88882188058E+00  0.88000000000E+00 0. -1.
        -11    1    4    4    0    0 -0.29076713970E-02  0.53556939644E-02 -0.37355557551E-01  0.37852830961E-01  0.51100000000E-03 0.  1.
         11    1    4    4    0    0  0.15851024662E-01 -0.90718329984E-02 -0.91575774475E-01  0.93380601457E-01  0.51100000000E-03 0. -1.
</event>
<event>
 8    1  0.1163913E+005  0.1043930E+01  0.7957747E-01            NaN
         13   -1    0    0    0    0  0.00000000000E+00  0.00000000000E+00  0.74505805969E-08  0.10566000000E+00  0.10566000000E+00 0. -1.
     999900   -1    0    0    0    0 -0.00000000000E+00 -0.00000000000E+00 -0.74505805969E-08  0.93827000000E+00  0.93827000000E+00 0.  1.
     999902    2    1    2    0    0 -0.10766602293E-01  0.10708708891E-01  0.19102383463E-01  0.10195271882E+01  0.10192351006E+01 0.  0.
     999903    2    3    3    0    0 -0.77295583016E-01  0.74838298714E-01 -0.70490890353E-01  0.13016468375E+00  0.19962493935E-01 0.  0.
         14    1    1    2    0    0  0.10766602293E-01 -0.10708708891E-01 -0.19102383463E-01  0.24402811826E-01  0.00000000000E+00 0.  1.
     999901    1    3    3    0    0  0.66528980724E-01 -0.64129589823E-01  0.89593273816E-01  0.88936250443E+00  0.88000000000E+00 0. -1.
        -11    1    4    4    0    0 -0.30641191293E-01  0.16826234761E-01 -0.21436879850E-01  0.41009824662E-01  0.51100000000E-03 0.  1.
         11    1    4    4    0    0 -0.46654391723E-01  0.58012063953E-01 -0.49054010503E-01  0.89154859086E-01  0.51100000000E-03 0. -1.
</event>
<event>
 8    1  0.1163913E+005  0.1043930E+01  0.7957747E-01            NaN
         13   -1    0    0    0    0  0.00000000000E+00  0.00000000000E+00  0.74505805969E-08  0.10566000000E+00  0.10566000000E+00 0.  1.
     999900   -1    0    0    0    0 -0.00000000000E+00 -0.00000000000E+00 -0.74505805969E-08  0.93827000000E+00  0.93827000000E+00 0.  1.
     999902    2    1    2    0    0  0.22612621052E-01  0.65871955207E-02 -0.75503160578E-02  0.10191968431E+01  0.10188966955E+01 0.  0.
     999903    2    3    3    0    0  0.33990190370E-01  0.64095223520E-01  0.10576438940E+00  0.12999672796E+00  0.21201709742E-01 0.  0.
         14    1    1    2    0    0 -0.22612621052E-01 -0.65871955207E-02  0.75503160578E-02  0.24733156860E-01  0.00000000000E+00 0.  1.
     999901    1    3    3    0    0 -0.11377569317E-01 -0.57508027999E-01 -0.11331470545E+00  0.88920011518E+00  0.88000000000E+00 0.  1.
        -11    1    4    4    0    0  0.96849657527E-02  0.22670056916E-01  0.20210452696E-01  0.31881868850E-01  0.51100000000E-03 0.  1.
         11    1    4    4    0    0  0.24305224617E-01  0.41425166604E-01  0.85553936700E-01  0.98114859107E-01  0.51100000000E-03 0. -1.
</event>
<event>
 8    1  0.1163913E+005  0.1043930E+01  0.7957747E-01            NaN
         13   -1    0    0    0    0  0.00000000000E+00  0.00000000000E+00  0.74505805969E-08  0.10566000000E+00  0.10566000000E+00 0.  1.
     999900   -1    0    0    0    0 -0.00000000000E+00 -0.00000000000E+00 -0.74505805969E-08  0.93827000000E+00  0.93827000000E+00 0.  1.
     999902    2    1    2    0    0  0.94550414104E-02 -0.20685833576E-01  0.43849050968E-02  0.10207669063E+01  0.10205040656E+01 0.  0.
     999903    2    3    3    0    0 -0.61320443372E-01 -0.95236076299E-02 -0.11273414515E+00  0.13012071587E+00  0.19274785028E-01 0.  0.
         14    1    1    2    0    0 -0.94550414104E-02  0.20685833576E-01 -0.43849050968E-02  0.23163093738E-01  0.00000000000E+00 0. -1.
     999901    1    3    3    0    0  0.70775484783E-01 -0.11162225946E-01  0.11711905024E+00  0.89064619039E+00  0.88000000000E+00 0. -1.
        -11    1    4    4    0    0 -0.26803787400E-01 -0.11771222965E-01 -0.63756023291E-01  0.70157653438E-01  0.51100000000E-03 0.  1.
         11    1    4    4    0    0 -0.34516655973E-01  0.22476153352E-02 -0.48978121856E-01  0.59963062429E-01  0.51100000000E-03 0. -1.
</event>
<event>
 8    1  0.1163913E+005  0.1043930E+01  0.7957747E-01            NaN
         13   -1    0    0    0    0  0.00000000000E+00  0.00000000000E+00  0.74505805969E-08  0.10566000000E+00  0.10566000000E+00 0. -1.
     999900   -1    0    0    0    0 -0.00000000000E+00 -0.00000000000E+00 -0.74505805969E-08  0.93827000000E+00  0.93827000000E+00 0. -1.
     999902    2    1    2    0    0  0.98975022801E-02  0.78952104471E-02  0.20658244715E-01  0.10197007207E+01  0.10194128221E+01 0.  0.
     999903    2    3    3    0    0  0.80001847523E-01 -0.59619346093E-01 -0.78921847196E-01  0.12875233318E+00  0.19842965979E-01 0.  0.
         14    1    1    2    0    0 -0.98975022801E-02 -0.78952104471E-02 -0.20658244715E-01  0.24229279273E-01  0.00000000000E+00 0.  1.
     999901    1    3    3    0    0 -0.70104345243E-01  0.67514556540E-01  0.99580091912E-01  0.89094838755E+00  0.88000000000E+00 0.  1.
        -11    1    4    4    0    0  0.41191857380E-01 -0.38511036026E-01 -0.34548384415E-01  0.66134113715E-01  0.51100000000E-03 0.  1.
         11    1    4    4    0    0  0.38809990143E-01 -0.21108310067E-01 -0.44373462781E-01  0.62618219465E-01  0.51100000000E-03 0. -1.
</event>
<event>
 8    1  0.1163913E+005  0.1043930E+01  0.7957747E-01            NaN
         13   -1    0    0    0    0  0.00000000000E+00  0.00000000000E+00  0.74505805969E-08  0.10566000000E+00  0.10566000000E+00 0. -1.
     999900   -1    0    0    0    0 -0.00000000000E+00 -0.00000000000E+00 -0.74505805969E-08  0.93827000000E+00  0.93827000000E+00 0.  1.
     999902    2    1    2    0    0  0.10829636101E-01 -0.20722255257E-01  0.24983528161E-02  0.10204154375E+01  0.10201444655E+01 0.  0.
     999903    2    3    3    0    0 -0.90349366875E-01 -0.77961824852E-01 -0.50436361898E-01  0.13119350630E+00  0.20660475912E-01 0.  0.
         14    1    1    2    0    0 -0.10829636101E-01  0.20722255257E-01 -0.24983528161E-02  0.23514562463E-01  0.00000000000E+00 0.  1.
     999901    1    3    3    0    0  0.10117900298E+00  0.57239569595E-01  0.52934714714E-01  0.88922193124E+00  0.88000000000E+00 0. -1.
        -11    1    4    4    0    0 -0.67917340298E-01 -0.68949571185E-01 -0.42907205463E-01  0.10586830442E+00  0.51100000000E-03 0.  1.
         11    1    4    4    0    0 -0.22432026577E-01 -0.90122536675E-02 -0.75291564343E-02  0.25325201878E-01  0.51100000000E-03 0. -1.
</event>
<event>
 8    1  0.1163913E+005  0.1043930E+01  0.7957747E-01            NaN
         13   -1    0    0    0    0  0.00000000000E+00  0.00000000000E+00  0.74505805969E-08  0.10566000000E+00  0.10566000000E+00 0. -1.
     999900   -1    0    0    0    0 -0.00000000000E+00 -0.00000000000E+00 -0.74505805969E-08  0.93827000000E+00  0.93827000000E+00 0. -1.
     999902    2    1    2    0    0  0.20348589857E-01 -0.12305479069E-02  0.11972542602E-01  0.10202884871E+01  0.10200145468E+01 0.  0.
     999903    2    3    3    0    0  0.94190020274E-01  0.50854527380E-01 -0.73859587722E-01  0.13150698045E+00  0.19516770587E-01 0.  0.
         14    1    1    2    0    0 -0.20348589857E-01  0.12305479069E-02 -0.11972542602E-01  0.23641512931E-01  0.00000000000E+00 0.  1.
     999901    1    3    3    0    0 -0.73841430417E-01 -0.52085075287E-01  0.85832130324E-01  0.88878150662E+00  0.88000000000E+00 0.  1.
        -11    1    4    4    0    0  0.24839089763E-01  0.47307739585E-02 -0.20867407912E-01  0.32788266750E-01  0.51100000000E-03 0.  1.
         11    1    4    4    0    0  0.69350930511E-01  0.46123753421E-01 -0.52992179810E-01  0.98718713699E-01  0.51100000000E-03 0. -1.
</event>
<event>
 8    1  0.1163913E+005  0.1043930E+01  0.7957747E-01            NaN
         13   -1    0    0    0    0  0.00000000000E+00  0.00000000000E+00  0.74505805969E-08  0.10566000000E+00  0.10566000000E+00 0.  1.
     999900   -1    0    0    0    0 -0.00000000000E+00 -0.00000000000E+00 -0.74505805969E-08  0.93827000000E+00  0.93827000000E+00 0.  1.
     999902    2    1    2    0    0 -0.11175375660E-01  0.76123357429E-02  0.20084859258E-01  0.10197176427E+01  0.10194301509E+01 0.  0.
     999903    2    3    3    0    0  0.12021202741E+00 -0.29751511102E-01  0.29897444950E-01  0.12912514686E+00  0.21056172224E-01 0.  0.
         14    1    1    2    0    0  0.11175375660E-01 -0.76123357429E-02 -0.20084859258E-01  0.24212357341E-01  0.00000000000E+00 0. -1.
     999901    1    3    3    0    0 -0.13138740307E+00  0.37363846845E-01 -0.98125856924E-02  0.89059249580E+00  0.88000000000E+00 0. -1.
        -11    1    4    4    0    0  0.10134195087E+00 -0.28860827286E-01  0.31965197984E-01  0.11011436492E+00  0.51100000000E-03 0.  1.
         11    1    4    4    0    0  0.18870076541E-01 -0.89068381654E-03 -0.20677530340E-02  0.19010781939E-01  0.51100000000E-03 0. -1.
</event>
<event>
 8    1  0.1163913E+005  0.1043930E+01  0.7957747E-01            NaN
         13   -1    0    0    0    0  0.00000000000E+00  0.00000000000E+00  0.74505805969E-08  0.10566000000E+00  0.10566000000E+00 0. -1.
     999900   -1    0    0    0    0 -0.00000000000E+00 -0.00000000000E+00 -0.74505805969E-08  0.93827000000E+00  0.93827000000E+00 0.  1.
     999902    2    1    2    0    0 -0.61231706990E-02 -0.10974853986E-01  0.21215830734E-01  0.10192712873E+01  0.10189729658E+01 0.  0.
     999903    2    3    3    0    0  0.11300021280E+00  0.56123831645E-01  0.18316647950E-01  0.12870909441E+00  0.17652161901E-01 0.  0.
         14    1    1    2    0    0  0.61231706990E-02  0.10974853986E-01 -0.21215830734E-01  0.24658712723E-01  0.00000000000E+00 0.  1.
     999901    1    3    3    0    0 -0.11912338350E+00 -0.67098685631E-01  0.28991827844E-02  0.89056219287E+00  0.88000000000E+00 0.  1.
        -11    1    4    4    0    0  0.81596165875E-01  0.48352127437E-01  0.16751516694E-01  0.96315818773E-01  0.51100000000E-03 0.  1.
         11    1    4    4    0    0  0.31404046923E-01  0.77717042079E-02  0.15651312555E-02  0.32393275634E-01  0.51100000000E-03 0. -1.
</event>
<event>
 8    1  0.1163913E+005  0.1043930E+01  0.7957747E-01            NaN
         13   -1    0    0    0    0  0.00000000000E+00  0.00000000000E+00  0.74505805969E-08  0.10566000000E+00  0.10566000000E+00 0.  1.
     999900   -1    0    0    0    0 -0.00000000000E+00 -0.00000000000E+00 -0.74505805969E-08  0.93827000000E+00  0.93827000000E+00 0. -1.
     999902    2    1    2    0    0  0.90569096677E-02 -0.28902852535E-02  0.22750363897E-01  0.10192731466E+01  0.10189748706E+01 0.  0.
     999903    2    3    3    0    0 -0.21479212859E-01  0.21336790447E-01 -0.12136024769E+00  0.12669974663E+00  0.20196555826E-01 0.  0.
         14    1    1    2    0    0 -0.90569096677E-02  0.28902852535E-02 -0.22750363897E-01  0.24656853388E-01  0.00000000000E+00 0. -1.
     999901    1    3    3    0    0  0.30536122527E-01 -0.24227075700E-01  0.14411061158E+00  0.89257339998E+00  0.88000000000E+00 0.  1.
        -11    1    4    4    0    0 -0.20074666518E-01  0.75012512986E-02 -0.58138831844E-01  0.61964876309E-01  0.51100000000E-03 0.  1.
         11    1    4    4    0    0 -0.14045463413E-02  0.13835539148E-01 -0.63221415843E-01  0.64734870326E-01  0.51100000000E-03 0. -1.
</event>
<event>
 8    1  0.1163913E+005  0.1043930E+01  0.7957747E-01            NaN
         13   -1    0    0    0    0  0.00000000000E+00  0.00000000000E+00  0.74505805969E-08  0.10566000000E+00  0.10566000000E+00 0. -1.
     999900   -1    0    0    0    0 -0.00000000000E+00 -0.00000000000E+00 -0.74505805969E-08  0.93827000000E+00  0.93827000000E+00 0.  1.
     999902    2    1    2    0    0  0.22219221704E-01  0.11955510517E-01 -0.87121932931E-04  0.10186983604E+01  0.10183858375E+01 0.  0.
     999903    2    3    3    0    0 -0.11532039400E+00 -0.48115659737E-01 -0.30315110634E-02  0.12598655878E+00  0.15795978910E-01 0.  0.
         14    1    1    2    0    0 -0.22219221704E-01 -0.11955510517E-01  0.87121932931E-04  0.25231639564E-01  0.00000000000E+00 0. -1.
     999901    1    3    3    0    0  0.13753961571E+00  0.60071170254E-01  0.29443891305E-02  0.89271180165E+00  0.88000000000E+00 0. -1.
        -11    1    4    4    0    0 -0.97145288509E-01 -0.41621509062E-01  0.30887720135E-02  0.10573248663E+00  0.51100000000E-03 0.  1.
         11    1    4    4    0    0 -0.18175105493E-01 -0.64941506755E-02 -0.61202830770E-02  0.20254072149E-01  0.51100000000E-03 0. -1.
</event>
<event>
 8    1  0.1163913E+005  0.1043930E+01  0.7957747E-01            NaN
         13   -1    0    0    0    0  0.00000000000E+00  0.00000000000E+00  0.74505805969E-08  0.10566000000E+00  0.10566000000E+00 0. -1.
     999900   -1    0    0    0    0 -0.00000000000E+00 -0.00000000000E+00 -0.74505805969E-08  0.93827000000E+00  0.93827000000E+00 0. -1.
     999902    2    1    2    0    0 -0.35721577424E-03 -0.18814428852E-01  0.16002365364E-01  0.10192280561E+01  0.10189286748E+01 0.  0.
     999903    2    3    3    0    0  0.12069306174E+00  0.39971391432E-01  0.99473336072E-02  0.12897775096E+00  0.19281688538E-01 0.  0.
         14    1    1    2    0    0  0.35721577424E-03  0.18814428852E-01 -0.16002365364E-01  0.24701943920E-01  0.00000000000E+00 0.  1.
     999901    1    3    3    0    0 -0.12105027751E+00 -0.58785820284E-01  0.60550317572E-02  0.89025030512E+00  0.88000000000E+00 0. -1.
        -11    1    4    4    0    0  0.10721728818E+00  0.28888761536E-01  0.10301485955E-01  0.11151900808E+00  0.51100000000E-03 0.  1.
         11    1    4    4    0    0  0.13475773556E-01  0.11082629895E-01 -0.35415234759E-03  0.17458742888E-01  0.51100000000E-03 0. -1.
</event>
<event>
 8    1  0.1163913E+005  0.1043930E+01  0.7957747E-01            NaN
         13   -1    0    0    0    0  0.00000000000E+00  0.00000000000E+00  0.74505805969E-08  0.10566000000E+00  0.10566000000E+00 0.  1.
     999900   -1    0    0    0    0 -0.00000000000E+00 -0.00000000000E+00 -0.74505805969E-08  0.93827000000E+00  0.93827000000E+00 0. -1.
     999902    2    1    2    0    0  0.25319189025E-01 -0.12731349872E-02  0.45525842051E-02  0.10181732877E+01  0.10178474520E+01 0.  0.
     999903    2    3    3    0    0 -0.11058163635E+00 -0.82361068142E-02  0.56688588924E-01  0.12618916211E+00  0.20346419015E-01 0.  0.
         14    1    1    2    0    0 -0.25319189025E-01  0.12731349872E-02 -0.45525842051E-02  0.25756712301E-01  0.00000000000E+00 0. -1.
     999901    1    3    3    0    0  0.13590082538E+00  0.69629718269E-02 -0.52136004718E-01  0.89198412559E+00  0.88000000000E+00 0. -1.
        -11    1    4    4    0    0 -0.76807855295E-01 -0.13666035779E-01  0.44841757878E-01  0.89984729480E-01  0.51100000000E-03 0. -1.
         11    1    4    4    0    0 -0.33773781055E-01  0.54299289644E-02  0.11846831045E-01  0.36204432631E-01  0.51100000000E-03 0.  1.
</event>
<event>
 8    1  0.1163913E+005  0.1043930E+01  0.7957747E-01            NaN
         13   -1    0    0    0    0  0.00000000000E+00  0.00000000000E+00  0.74505805969E-08  0.10566000000E+00  0.10566000000E+00 0. -1.
     999900   -1    0    0    0    0 -0.00000000000E+00 -0.00000000000E+00 -0.74505805969E-08  0.93827000000E+00  0.93827000000E+00 0.  1.
     999902    2    1    2    0    0 -0.18282274146E-01  0.13008170152E-01 -0.16484150585E-02  0.10214317487E+01  0.10211839433E+01 0.  0.
     999903    2    3    3    0    0 -0.98857703132E-01 -0.48850500901E-01 -0.71535730868E-01  0.13283559081E+00  0.19201991751E-01 0.  0.
         14    1    1    2    0    0  0.18282274146E-01 -0.13008170152E-01  0.16484150585E-02  0.22498251285E-01  0.00000000000E+00 0.  1.
     999901    1    3    3    0    0  0.80575428986E-01  0.61858671053E-01  0.69887315809E-01  0.88859615791E+00  0.88000000000E+00 0. -1.
        -11    1    4    4    0    0 -0.29737398706E-01 -0.57314986493E-02 -0.16177020009E-01  0.34338317605E-01  0.51100000000E-03 0.  1.
         11    1    4    4    0    0 -0.69120304426E-01 -0.43119002251E-01 -0.55358710859E-01  0.98497273201E-01  0.51100000000E-03 0. -1.
</event>
<event>
 8    1  0.1163913E+005  0.1043930E+01  0.7957747E-01            NaN
         13   -1    0    0    0    0  0.00000000000E+00  0.00000000000E+00  0.74505805969E-08  0.10566000000E+00  0.10566000000E+00 0.  1.
     999900   -1    0    0    0    0 -0.00000000000E+00 -0.00000000000E+00 -0.74505805969E-08  0.93827000000E+00  0.93827000000E+00 0. -1.
     999902    2    1    2    0    0 -0.20590291331E-01  0.57183241269E-02  0.10091155765E-01  0.10202975911E+01  0.10200238642E+01 0.  0.
     999903    2    3    3    0    0  0.29476429435E-02  0.89893773224E-01  0.94344974626E-01  0.13196305577E+00  0.20583847752E-01 0.  0.
         14    1    1    2    0    0  0.20590291331E-01 -0.57183241269E-02 -0.10091155765E-01  0.23632408946E-01  0.00000000000E+00 0. -1.
     999901    1    3    3    0    0 -0.23537934274E-01 -0.84175449097E-01 -0.84253818861E-01  0.88833453528E+00  0.88000000000E+00 0. -1.
        -11    1    4    4    0    0 -0.81302140425E-02  0.27729807439E-01  0.33939267013E-01  0.44577769878E-01  0.51100000000E-03 0. -1.
         11    1    4    4    0    0  0.11077856986E-01  0.62163965786E-01  0.60405707613E-01  0.87385285894E-01  0.51100000000E-03 0.  1.
</event>
<event>
 8    1  0.1163913E+005  0.1043930E+01  0.7957747E-01            NaN
         13   -1    0    0    0    0  0.00000000000E+00  0.00000000000E+00  0.74505805969E-08  0.10566000000E+00  0.10566000000E+00 0. -1.
     999900   -1    0    0    0    0 -0.00000000000E+00 -0.00000000000E+00 -0.74505805969E-08  0.93827000000E+00  0.93827000000E+00 0. -1.
     999902    2    1    2    0    0  0.17851267513E-01  0.15548276918E-01 -0.22960186067E-02  0.10201457958E+01  0.10198684995E+01 0.  0.
     999903    2    3    3    0    0 -0.30107478986E-01  0.51497216966E-01 -0.11493531802E+00  0.13094391805E+00  0.19436015553E-01 0.  0.
         14    1    1    2    0    0 -0.17851267513E-01 -0.15548276918E-01  0.22960186067E-02  0.23784204178E-01  0.00000000000E+00 0. -1.
     999901    1    3    3    0    0  0.47958746499E-01 -0.35948940048E-01  0.11263929941E+00  0.88920187777E+00  0.88000000000E+00 0.  1.
        -11    1    4    4    0    0 -0.11409246449E-01  0.73580907423E-02 -0.15883653568E-01  0.20901291242E-01  0.51100000000E-03 0. -1.
         11    1    4    4    0    0 -0.18698232537E-01  0.44139126224E-01 -0.99051664452E-01  0.11004262681E+00  0.51100000000E-03 0.  1.
</event>
<event>
 8    1  0.1163913E+005  0.1043930E+01  0.7957747E-01            NaN
         13   -1    0    0    0    0  0.00000000000E+00  0.00000000000E+00  0.74505805969E-08  0.10566000000E+00  0.10566000000E+00 0. -1.
     999900   -1    0    0    0    0 -0.00000000000E+00 -0.00000000000E+00 -0.74505805969E-08  0.93827000000E+00  0.93827000000E+00 0.  1.
     999902    2    1    2    0    0  0.11251881745E-01 -0.20993737585E-01 -0.80111028572E-02  0.10187999457E+01  0.10184899654E+01 0.  0.
     999903    2    3    3    0    0 -0.10605411738E+00 -0.59676307273E-01 -0.39904356303E-01  0.12960130745E+00  0.19884762476E-01 0.  0.
         14    1    1    2    0    0 -0.11251881745E-01  0.20993737585E-01  0.80111028572E-02  0.25130054309E-01  0.00000000000E+00 0. -1.
     999901    1    3    3    0    0  0.11730599912E+00  0.38682569688E-01  0.31893253446E-01  0.88919863824E+00  0.88000000000E+00 0. -1.
        -11    1    4    4    0    0 -0.33363687479E-01 -0.23377526334E-01 -0.22371301355E-01  0.46479894848E-01  0.51100000000E-03 0.  1.
         11    1    4    4    0    0 -0.72690429901E-01 -0.36298780939E-01 -0.17533054948E-01  0.83121412606E-01  0.51100000000E-03 0. -1.
</event>
<event>
 8    1  0.1163913E+005  0.1043930E+01  0.7957747E-01            NaN
         13   -1    0    0    0    0  0.00000000000E+00  0.00000000000E+00  0.74505805969E-08  0.10566000000E+00  0.10566000000E+00 0. -1.
     999900   -1    0    0    0    0 -0.00000000000E+00 -0.00000000000E+00 -0.74505805969E-08  0.93827000000E+00  0.93827000000E+00 0. -1.
     999902    2    1    2    0    0 -0.88319674162E-02 -0.20320085081E-01  0.73847091856E-02  0.10205752695E+01  0.10203080110E+01 0.  0.
     999903    2    3    3    0    0 -0.62831177808E-01  0.10469780957E+00  0.38609884994E-01  0.12955315963E+00  0.19593614186E-01 0.  0.
         14    1    1    2    0    0  0.88319674162E-02  0.20320085081E-01 -0.73847091856E-02  0.23354730482E-01  0.00000000000E+00 0.  1.
     999901    1    3    3    0    0  0.53999210391E-01 -0.12501789465E+00 -0.31225175809E-01  0.89102210989E+00  0.88000000000E+00 0. -1.
        -11    1    4    4    0    0 -0.42888542289E-01  0.55543810820E-01  0.16555296599E-01  0.72103265852E-01  0.51100000000E-03 0.  1.
         11    1    4    4    0    0 -0.19942635519E-01  0.49153998752E-01  0.22054588395E-01  0.57449893777E-01  0.51100000000E-03 0. -1.
</event>
<event>
 8    1  0.1163913E+005  0.1043930E+01  0.7957747E-01            NaN
         13   -1    0    0    0    0  0.00000000000E+00  0.00000000000E+00  0.74505805969E-08  0.10566000000E+00  0.10566000000E+00 0. -1.
     999900   -1    0    0    0    0 -0.00000000000E+00 -0.00000000000E+00 -0.74505805969E-08  0.93827000000E+00  0.93827000000E+00 0.  1.
     999902    2    1    2    0    0 -0.12268907791E-01  0.19175419283E-01  0.13410442648E-02  0.10211260266E+01  0.10208713636E+01 0.  0.
     999903    2    3    3    0    0 -0.95949547068E-01 -0.77148182212E-01 -0.39437231719E-01  0.13098920937E+00  0.21088388393E-01 0.  0.
         14    1    1    2    0    0  0.12268907791E-01 -0.19175419283E-01 -0.13410442648E-02  0.22803973399E-01  0.00000000000E+00 0.  1.
     999901    1    3    3    0    0  0.83680639277E-01  0.96323601495E-01  0.40778275984E-01  0.89013681723E+00  0.88000000000E+00 0.  1.
        -11    1    4    4    0    0 -0.30179584278E-01 -0.14094198675E-01 -0.15741614422E-01  0.36844447195E-01  0.51100000000E-03 0. -1.
         11    1    4    4    0    0 -0.65769962790E-01 -0.63053983536E-01 -0.23695617297E-01  0.94144762177E-01  0.51100000000E-03 0.  1.
</event>
<event>
 8    1  0.1163913E+005  0.1043930E+01  0.7957747E-01            NaN
         13   -1    0    0    0    0  0.00000000000E+00  0.00000000000E+00  0.74505805969E-08  0.10566000000E+00  0.10566000000E+00 0.  1.
     999900   -1    0    0    0    0 -0.00000000000E+00 -0.00000000000E+00 -0.74505805969E-08  0.93827000000E+00  0.93827000000E+00 0. -1.
     999902    2    1    2    0    0  0.51843879099E-02 -0.99251847755E-03 -0.23671640202E-01  0.10196769688E+01  0.10193884987E+01 0.  0.
     999903    2    3    3    0    0 -0.11547974103E+00 -0.20487727443E-01 -0.54173207022E-01  0.13070551779E+00  0.19846371448E-01 0.  0.
         14    1    1    2    0    0 -0.51843879099E-02  0.99251847755E-03  0.23671640202E-01  0.24253031167E-01  0.00000000000E+00 0.  1.
     999901    1    3    3    0    0  0.12066412894E+00  0.19495208966E-01  0.30501566820E-01  0.88897145104E+00  0.88000000000E+00 0.  1.
        -11    1    4    4    0    0 -0.89735970736E-01 -0.22609692917E-01 -0.36901585193E-01  0.99627961780E-01  0.51100000000E-03 0.  1.
         11    1    4    4    0    0 -0.25743770290E-01  0.21219654734E-02 -0.17271621829E-01  0.31077556014E-01  0.51100000000E-03 0. -1.
</event>
<event>
 7    1  0.1163913E+005  0.1043930E+01  0.7957747E-01            NaN
         13   -1    0    0    0    0  0.00000000000E+00  0.00000000000E+00  0.74505805969E-08  0.10566000000E+00  0.10566000000E+00 0. -1.
     999900   -1    0    0    0    0 -0.00000000000E+00 -0.00000000000E+00 -0.74505805969E-08  0.93827000000E+00  0.93827000000E+00 0.  1.
     999903    2    1    2    0    0  0.45180957771E-01 -0.63792840178E-01  0.47082913223E-01  0.93407584637E-01  0.19933156979E-01 0.  0.
         14    1    1    2    0    0  0.23271953360E-01  0.16103548698E-01  0.53849218593E-01  0.60832938749E-01  0.00000000000E+00 0. -1.
     999901    1    1    2    0    0 -0.68452911130E-01  0.47689291480E-01 -0.10093213182E+00  0.88968947661E+00  0.88000000000E+00 0.  1.
        -11    1    3    3    0    0  0.17960238442E-01 -0.40150798703E-01  0.31623735127E-01  0.54175442275E-01  0.51100000000E-03 0.  1.
         11    1    3    3    0    0  0.27220719329E-01 -0.23642041475E-01  0.15459178096E-01  0.39232142362E-01  0.51100000000E-03 0. -1.
</event>
<event>
 8    1  0.1163913E+005  0.1043930E+01  0.7957747E-01            NaN
         13   -1    0    0    0    0  0.00000000000E+00  0.00000000000E+00  0.74505805969E-08  0.10566000000E+00  0.10566000000E+00 0. -1.
     999900   -1    0    0    0    0 -0.00000000000E+00 -0.00000000000E+00 -0.74505805969E-08  0.93827000000E+00  0.93827000000E+00 0.  1.
     999902    2    1    2    0    0  0.21145088438E-01  0.11309669635E-01  0.21576531077E-03  0.10199493839E+01  0.10196674339E+01 0.  0.
     999903    2    3    3    0    0 -0.69425299991E-01  0.61985881179E-01  0.87947633849E-01  0.12951805338E+00  0.19442687745E-01 0.  0.
         14    1    1    2    0    0 -0.21145088438E-01 -0.11309669635E-01 -0.21576531077E-03  0.23980616067E-01  0.00000000000E+00 0. -1.
     999901    1    3    3    0    0  0.90570388429E-01 -0.50676211544E-01 -0.87731868538E-01  0.89043133055E+00  0.88000000000E+00 0.  1.
        -11    1    4    4    0    0 -0.11180067645E-01  0.13201403758E-01  0.27204419209E-01  0.32243022799E-01  0.51100000000E-03 0. -1.
         11    1    4    4    0    0 -0.58245232346E-01  0.48784477421E-01  0.60743214640E-01  0.97275030578E-01  0.51100000000E-03 0.  1.
</event>
<event>
 8    1  0.1163913E+005  0.1043930E+01  0.7957747E-01            NaN
         13   -1    0    0    0    0  0.00000000000E+00  0.00000000000E+00  0.74505805969E-08  0.10566000000E+00  0.10566000000E+00 0.  1.
     999900   -1    0    0    0    0 -0.00000000000E+00 -0.00000000000E+00 -0.74505805969E-08  0.93827000000E+00  0.93827000000E+00 0.  1.
     999902    2    1    2    0    0 -0.65399196652E-02 -0.17389607309E-01  0.15804903643E-01  0.10195381167E+01  0.10192462938E+01 0.  0.
     999903    2    3    3    0    0  0.39198363299E-01  0.11228971701E+00  0.44261228138E-01  0.12840486062E+00  0.19577019273E-01 0.  0.
         14    1    1    2    0    0  0.65399196652E-02  0.17389607309E-01 -0.15804903643E-01  0.24391883297E-01  0.00000000000E+00 0. -1.
     999901    1    3    3    0    0 -0.45738282964E-01 -0.12967932432E+00 -0.28456324495E-01  0.89113325608E+00  0.88000000000E+00 0.  1.
        -11    1    4    4    0    0  0.27301979278E-01  0.98896368593E-01  0.38445037113E-01  0.10956355139E+00  0.51100000000E-03 0.  1.
         11    1    4    4    0    0  0.11896384021E-01  0.13393348420E-01  0.58161910246E-02  0.18841309236E-01  0.51100000000E-03 0. -1.
</event>
<event>
 8    1  0.1163913E+005  0.1043930E+01  0.7957747E-01            NaN
         13   -1    0    0    0    0  0.00000000000E+00  0.00000000000E+00  0.74505805969E-08  0.10566000000E+00  0.10566000000E+00 0. -1.
     999900   -1    0    0    0    0 -0.00000000000E+00 -0.00000000000E+00 -0.74505805969E-08  0.93827000000E+00  0.93827000000E+00 0. -1.
     999902    2    1    2    0    0 -0.93516147397E-02 -0.18210865939E-01 -0.11826370314E-01  0.10202878476E+01  0.10200138923E+01 0.  0.
     999903    2    3    3    0    0 -0.68863742596E-01  0.12723849292E-01  0.10710551456E+00  0.12975798103E+00  0.21480945212E-01 0.  0.
         14    1    1    2    0    0  0.93516147397E-02  0.18210865939E-01  0.11826370314E-01  0.23642152425E-01  0.00000000000E+00 0. -1.
     999901    1    3    3    0    0  0.59512127856E-01 -0.30934715231E-01 -0.11893188487E+00  0.89052986654E+00  0.88000000000E+00 0. -1.
        -11    1    4    4    0    0 -0.48769793951E-01  0.18067677698E-01  0.69813875838E-01  0.87058441061E-01  0.51100000000E-03 0.  1.
         11    1    4    4    0    0 -0.20093948645E-01 -0.53438284060E-02  0.37291638720E-01  0.42699539969E-01  0.51100000000E-03 0. -1.
</event>
<event>
 8    1  0.1163913E+005  0.1043930E+01  0.7957747E-01            NaN
         13   -1    0    0    0    0  0.00000000000E+00  0.00000000000E+00  0.74505805969E-08  0.10566000000E+00  0.10566000000E+00 0.  1.
     999900   -1    0    0    0    0 -0.00000000000E+00 -0.00000000000E+00 -0.74505805969E-08  0.93827000000E+00  0.93827000000E+00 0.  1.
     999902    2    1    2    0    0 -0.11649284779E-01  0.15443743972E-01  0.13903754122E-01  0.10201071235E+01  0.10198289141E+01 0.  0.
     999903    2    3    3    0    0 -0.66855077428E-01  0.86037841346E-01  0.74432350333E-01  0.13348718407E+00  0.20162887018E-01 0.  0.
         14    1    1    2    0    0  0.11649284779E-01 -0.15443743972E-01 -0.13903754122E-01  0.23822876451E-01  0.00000000000E+00 0. -1.
     999901    1    3    3    0    0  0.55205792649E-01 -0.70594097374E-01 -0.60528596211E-01  0.88661993948E+00  0.88000000000E+00 0.  1.
        -11    1    4    4    0    0 -0.31626451102E-01  0.25373752203E-01  0.24473098757E-01  0.47362996040E-01  0.51100000000E-03 0.  1.
         11    1    4    4    0    0 -0.35228626327E-01  0.60664089143E-01  0.49959251576E-01  0.86124188027E-01  0.51100000000E-03 0. -1.
</event>
<event>
 8    1  0.1163913E+005  0.1043930E+01  0.7957747E-01            NaN
         13   -1    0    0    0    0  0.00000000000E+00  0.00000000000E+00  0.74505805969E-08  0.10566000000E+00  0.10566000000E+00 0. -1.
     999900   -1    0    0    0    0 -0.00000000000E+00 -0.00000000000E+00 -0.74505805969E-08  0.93827000000E+00  0.93827000000E+00 0.  1.
     999902    2    1    2    0    0 -0.15879808427E-02  0.61397969511E-02 -0.28583690992E-01  0.10146512333E+01  0.10142287114E+01 0.  0.
     999903    2    3    3    0    0  0.52356646368E-01  0.16485606016E-02  0.10920630514E+00  0.12228568204E+00  0.16847396813E-01 0.  0.
         14    1    1    2    0    0  0.15879808427E-02 -0.61397969511E-02  0.28583690992E-01  0.29278766717E-01  0.00000000000E+00 0. -1.
     999901    1    3    3    0    0 -0.53944627211E-01  0.44912363495E-02 -0.13778999613E+00  0.89236555124E+00  0.88000000000E+00 0.  1.
        -11    1    4    4    0    0  0.25081589199E-01  0.47896297640E-02  0.69193154292E-01  0.73756222734E-01  0.51100000000E-03 0. -1.
         11    1    4    4    0    0  0.27275057169E-01 -0.31410691625E-02  0.40013150846E-01  0.48529459308E-01  0.51100000000E-03 0.  1.
</event>
<event>
 8    1  0.1163913E+005  0.1043930E+01  0.7957747E-01            NaN
         13   -1    0    0    0    0  0.00000000000E+00  0.00000000000E+00  0.74505805969E-08  0.10566000000E+00  0.10566000000E+00 0.  1.
     999900   -1    0    0    0    0 -0.00000000000E+00 -0.00000000000E+00 -0.74505805969E-08  0.93827000000E+00  0.93827000000E+00 0.  1.
     999902    2    1    2    0    0 -0.18287466696E-01  0.76146687490E-02 -0.53687309205E-02  0.10234059193E+01  0.10232000966E+01 0.  0.
     999903    2    3    3    0    0  0.38972177557E-01  0.11217227605E+00 -0.58247814314E-01  0.13379524174E+00  0.20171978123E-01 0.  0.
         14    1    1    2    0    0  0.18287466696E-01 -0.76146687490E-02  0.53687309205E-02  0.20524080735E-01  0.00000000000E+00 0.  1.
     999901    1    3    3    0    0 -0.57259644253E-01 -0.10455760730E+00  0.52879083393E-01  0.88961067752E+00  0.88000000000E+00 0.  1.
        -11    1    4    4    0    0  0.18545113071E-01  0.50295866893E-01 -0.37449499557E-01  0.65393589773E-01  0.51100000000E-03 0.  1.
         11    1    4    4    0    0  0.20427064486E-01  0.61876409160E-01 -0.20798314757E-01  0.68401651967E-01  0.51100000000E-03 0. -1.
</event>
<event>
 8    1  0.1163913E+005  0.1043930E+01  0.7957747E-01            NaN
         13   -1    0    0    0    0  0.00000000000E+00  0.00000000000E+00  0.74505805969E-08  0.10566000000E+00  0.10566000000E+00 0.  1.
     999900   -1    0    0    0    0 -0.00000000000E+00 -0.00000000000E+00 -0.74505805969E-08  0.93827000000E+00  0.93827000000E+00 0.  1.
     999902    2    1    2    0    0 -0.13784355968E-01  0.19505234560E-01 -0.11073069582E-02  0.10200199859E+01  0.10197397133E+01 0.  0.
     999903    2    3    3    0    0 -0.19925053022E-01  0.79316060181E-02  0.12725458418E+00  0.13061095058E+00  0.20138845718E-01 0.  0.
         14    1    1    2    0    0  0.13784355968E-01 -0.19505234560E-01  0.11073069582E-02  0.23910014082E-01  0.00000000000E+00 0. -1.
     999901    1    3    3    0    0  0.61406970546E-02  0.11573628542E-01 -0.12836189113E+00  0.88940903533E+00  0.88000000000E+00 0.  1.
        -11    1    4    4    0    0 -0.87231360592E-02  0.12958423417E-01  0.90945055329E-01  0.92278264233E-01  0.51100000000E-03 0.  1.
         11    1    4    4    0    0 -0.11201916963E-01 -0.50268173985E-02  0.36309528847E-01  0.38332686351E-01  0.51100000000E-03 0. -1.
</event>
<event>
 8    1  0.1163913E+005  0.1043930E+01  0.7957747E-01            NaN
         13   -1    0    0    0    0  0.00000000000E+00  0.00000000000E+00  0.74505805969E-08  0.10566000000E+00  0.10566000000E+00 0. -1.
     999900   -1    0    0    0    0 -0.00000000000E+00 -0.00000000000E+00 -0.74505805969E-08  0.93827000000E+00  0.93827000000E+00 0. -1.
     999902    2    1    2    0    0 -0.15816483076E-01 -0.15207125490E-01  0.47513871213E-02  0.10214802008E+01  0.10212334734E+01 0.  0.
     999903    2    3    3    0    0  0.66461801729E-01 -0.10903613063E+00  0.28229038559E-01  0.13236558592E+00  0.20438220253E-01 0.  0.
         14    1    1    2    0    0  0.15816483076E-01  0.15207125490E-01 -0.47513871213E-02  0.22449799155E-01  0.00000000000E+00 0. -1.
     999901    1    3    3    0    0 -0.82278284805E-01  0.93829005136E-01 -0.23477651438E-01  0.88911461492E+00  0.88000000000E+00 0.  1.
        -11    1    4    4    0    0  0.26849970340E-01 -0.30506010655E-01  0.15477181734E-01  0.43489560457E-01  0.51100000000E-03 0. -1.
         11    1    4    4    0    0  0.39611831390E-01 -0.78530119970E-01  0.12751856825E-01  0.88876025463E-01  0.51100000000E-03 0.  1.
</event>
<event>
 8    1  0.1163913E+005  0.1043930E+01  0.7957747E-01            NaN
         13   -1    0    0    0    0  0.00000000000E+00  0.00000000000E+00  0.74505805969E-08  0.10566000000E+00  0.10566000000E+00 0.  1.
     999900   -1    0    0    0    0 -0.00000000000E+00 -0.00000000000E+00 -0.74505805969E-08  0.93827000000E+00  0.93827000000E+00 0.  1.
     999902    2    1    2    0    0  0.12326814769E-01 -0.10779080023E-01  0.15765450995E-01  0.10211992197E+01  0.10209462072E+01 0.  0.
     999903    2    3    3    0    0 -0.12973269050E-01  0.63030269242E-01  0.11380531010E+00  0.13232367820E+00  0.20415353426E-01 0.  0.
         14    1    1    2    0    0 -0.12326814769E-01  0.10779080023E-01 -0.15765450995E-01  0.22730780312E-01  0.00000000000E+00 0. -1.
     999901    1    3    3    0    0  0.25300083819E-01 -0.73809349265E-01 -0.98039859105E-01  0.88887554149E+00  0.88000000000E+00 0.  1.
        -11    1    4    4    0    0  0.18635939043E-02  0.36001708814E-01  0.70188542481E-01  0.78906835169E-01  0.51100000000E-03 0. -1.
         11    1    4    4    0    0 -0.14836862954E-01  0.27028560427E-01  0.43616767618E-01  0.53416843033E-01  0.51100000000E-03 0.  1.
</event>
<event>
 8    1  0.1163913E+005  0.1043930E+01  0.7957747E-01            NaN
         13   -1    0    0    0    0  0.00000000000E+00  0.00000000000E+00  0.74505805969E-08  0.10566000000E+00  0.10566000000E+00 0. -1.
     999900   -1    0    0    0    0 -0.00000000000E+00 -0.00000000000E+00 -0.74505805969E-08  0.93827000000E+00  0.93827000000E+00 0. -1.
     999902    2    1    2    0    0 -0.10799130413E-01  0.57728372922E-02 -0.20106345620E-01  0.10203882923E+01  0.10201166870E+01 0.  0.
     999903    2    3    3    0    0  0.74800402729E-01  0.96169179071E-01  0.39285486437E-01  0.12964356544E+00  0.20505934845E-01 0.  0.
         14    1    1    2    0    0  0.10799130413E-01 -0.57728372922E-02  0.20106345620E-01  0.23541707718E-01  0.00000000000E+00 0. -1.
     999901    1    3    3    0    0 -0.85599533142E-01 -0.90396341779E-01 -0.59391832057E-01  0.89074472684E+00  0.88000000000E+00 0. -1.
        -11    1    4    4    0    0  0.38150275658E-01  0.62167262886E-01  0.16950294134E-01  0.74885150061E-01  0.51100000000E-03 0. -1.
         11    1    4    4    0    0  0.36650127071E-01  0.34001916185E-01  0.22335192303E-01  0.54758415379E-01  0.51100000000E-03 0.  1.
</event>
<event>
 8    1  0.1163913E+005  0.1043930E+01  0.7957747E-01            NaN
         13   -1    0    0    0    0  0.00000000000E+00  0.00000000000E+00  0.74505805969E-08  0.10566000000E+00  0.10566000000E+00 0. -1.
     999900   -1    0    0    0    0 -0.00000000000E+00 -0.00000000000E+00 -0.74505805969E-08  0.93827000000E+00  0.93827000000E+00 0. -1.
     999902    2    1    2    0    0 -0.53507643352E-02 -0.21002067707E-01  0.90938169834E-02  0.10204264889E+01  0.10201557745E+01 0.  0.
     999903    2    3    3    0    0 -0.10201186784E+00  0.58376657442E-01  0.53120979001E-01  0.13049236665E+00  0.19803131842E-01 0.  0.
         14    1    1    2    0    0  0.53507643352E-02  0.21002067707E-01 -0.90938169834E-02  0.23503511105E-01  0.00000000000E+00 0.  1.
     999901    1    3    3    0    0  0.96661103502E-01 -0.79378725150E-01 -0.44027162017E-01  0.88993412224E+00  0.88000000000E+00 0. -1.
        -11    1    4    4    0    0 -0.65586380033E-01  0.46635608106E-01  0.30702752173E-01  0.86135784093E-01  0.51100000000E-03 0. -1.
         11    1    4    4    0    0 -0.36425487803E-01  0.11741049337E-01  0.22418226828E-01  0.44356582559E-01  0.51100000000E-03 0.  1.
</event>
<event>
 8    1  0.1163913E+005  0.1043930E+01  0.7957747E-01            NaN
         13   -1    0    0    0    0  0.00000000000E+00  0.00000000000E+00  0.74505805969E-08  0.10566000000E+00  0.10566000000E+00 0. -1.
     999900   -1    0    0    0    0 -0.00000000000E+00 -0.00000000000E+00 -0.74505805969E-08  0.93827000000E+00  0.93827000000E+00 0.  1.
     999902    2    1    2    0    0 -0.71343857688E-02  0.31894805564E-02 -0.21479748848E-01  0.10210727942E+01  0.10208169274E+01 0.  0.
     999903    2    3    3    0    0 -0.80423557472E-01 -0.85621194184E-01 -0.58405564247E-01  0.13280360387E+00  0.20655502341E-01 0.  0.
         14    1    1    2    0    0  0.71343857688E-02 -0.31894805564E-02  0.21479748848E-01  0.22857205802E-01  0.00000000000E+00 0. -1.
     999901    1    3    3    0    0  0.73289171703E-01  0.88810674740E-01  0.36925815399E-01  0.88826919032E+00  0.88000000000E+00 0.  1.
        -11    1    4    4    0    0 -0.46830853215E-01 -0.54378864900E-01 -0.24787883107E-01  0.75926872914E-01  0.51100000000E-03 0.  1.
         11    1    4    4    0    0 -0.33592704257E-01 -0.31242329284E-01 -0.33617681140E-01  0.56876730959E-01  0.51100000000E-03 0. -1.
</event>
<event>
 8    1  0.1163913E+005  0.1043930E+01  0.7957747E-01            NaN
         13   -1    0    0    0    0  0.00000000000E+00  0.00000000000E+00  0.74505805969E-08  0.10566000000E+00  0.10566000000E+00 0. -1.
     999900   -1    0    0    0    0 -0.00000000000E+00 -0.00000000000E+00 -0.74505805969E-08  0.93827000000E+00  0.93827000000E+00 0.  1.
     999902    2    1    2    0    0 -0.21414094482E-01  0.71661908434E-02  0.39466729009E-02  0.10210063450E+01  0.10207489713E+01 0.  0.
     999903    2    3    3    0    0  0.13727481923E-01  0.11703813008E+00 -0.54802666482E-01  0.13153557067E+00  0.20295478445E-01 0.  0.
         14    1    1    2    0    0  0.21414094482E-01 -0.71661908434E-02 -0.39466729009E-02  0.22923655047E-01  0.00000000000E+00 0.  1.
     999901    1    3    3    0    0 -0.35141576406E-01 -0.10987193924E+00  0.58749339383E-01  0.88947077428E+00  0.88000000000E+00 0. -1.
        -11    1    4    4    0    0 -0.87109371852E-03  0.10110000787E-01 -0.11246177690E-01  0.15156139146E-01  0.51100000000E-03 0.  1.
         11    1    4    4    0    0  0.14598575642E-01  0.10692812929E+00 -0.43556488792E-01  0.11637943152E+00  0.51100000000E-03 0. -1.
</event>
<event>
 8    1  0.1163913E+005  0.1043930E+01  0.7957747E-01            NaN
         13   -1    0    0    0    0  0.00000000000E+00  0.00000000000E+00  0.74505805969E-08  0.10566000000E+00  0.10566000000E+00 0.  1.
     999900   -1    0    0    0    0 -0.00000000000E+00 -0.00000000000E+00 -0.74505805969E-08  0.93827000000E+00  0.93827000000E+00 0.  1.
     999902    2    1    2    0    0 -0.20892006759E-01 -0.10857010888E-01 -0.55540042863E-03  0.10203787983E+01  0.10201069713E+01 0.  0.
     999903    2    3    3    0    0 -0.99262238930E-01 -0.63161504067E-01  0.59431428537E-01  0.13331844356E+00  0.19983618862E-01 0.  0.
         14    1    1    2    0    0  0.20892006759E-01  0.10857010888E-01  0.55540042863E-03  0.23551201700E-01  0.00000000000E+00 0.  1.
     999901    1    3    3    0    0  0.78370232170E-01  0.52304493179E-01 -0.59986828965E-01  0.88706035474E+00  0.88000000000E+00 0.  1.
        -11    1    4    4    0    0 -0.27224538345E-01 -0.27020255101E-01  0.24210618715E-01  0.45361711315E-01  0.51100000000E-03 0.  1.
         11    1    4    4    0    0 -0.72037700584E-01 -0.36141248966E-01  0.35220809822E-01  0.87956732248E-01  0.51100000000E-03 0. -1.
</event>
<event>
 8    1  0.1163913E+005  0.1043930E+01  0.7957747E-01            NaN
         13   -1    0    0    0    0  0.00000000000E+00  0.00000000000E+00  0.74505805969E-08  0.10566000000E+00  0.10566000000E+00 0.  1.
     999900   -1    0    0    0    0 -0.00000000000E+00 -0.00000000000E+00 -0.74505805969E-08  0.93827000000E+00  0.93827000000E+00 0.  1.
     999902    2    1    2    0    0  0.10240928339E-01 -0.73112676738E-02  0.20302891827E-01  0.10200440488E+01  0.10197643467E+01 0.  0.
     999903    2    3    3    0    0 -0.56488395365E-01 -0.64997189705E-01 -0.93100237217E-01  0.12839347939E+00  0.20041404661E-01 0.  0.
         14    1    1    2    0    0 -0.10240928339E-01  0.73112676738E-02 -0.20302891827E-01  0.23885951201E-01  0.00000000000E+00 0. -1.
     999901    1    3    3    0    0  0.66729323703E-01  0.57685922032E-01  0.11340312904E+00  0.89165056940E+00  0.88000000000E+00 0. -1.
        -11    1    4    4    0    0 -0.20821858781E-01 -0.11692283981E-01 -0.30818938621E-01  0.38991376053E-01  0.51100000000E-03 0. -1.
         11    1    4    4    0    0 -0.35666536584E-01 -0.53304905724E-01 -0.62281298596E-01  0.89402103342E-01  0.51100000000E-03 0.  1.
</event>
<event>
 8    1  0.1163913E+005  0.1043930E+01  0.7957747E-01            NaN
         13   -1    0    0    0    0  0.00000000000E+00  0.00000000000E+00  0.74505805969E-08  0.10566000000E+00  0.10566000000E+00 0.  1.
     999900   -1    0    0    0    0 -0.00000000000E+00 -0.00000000000E+00 -0.74505805969E-08  0.93827000000E+00  0.93827000000E+00 0. -1.
     999902    2    1    2    0    0 -0.19661687613E-01  0.13764401626E-01  0.26695408007E-02  0.10197811458E+01  0.10194951781E+01 0.  0.
     999903    2    3    3    0    0 -0.17764952496E-01  0.50997986043E-01 -0.11764755272E+00  0.13081200098E+00  0.18826705044E-01 0.  0.
         14    1    1    2    0    0  0.19661687613E-01 -0.13764401626E-01 -0.26695408007E-02  0.24148854217E-01  0.00000000000E+00 0. -1.
     999901    1    3    3    0    0 -0.18967351173E-02 -0.37233584417E-01  0.12031709352E+00  0.88896914480E+00  0.88000000000E+00 0.  1.
        -11    1    4    4    0    0 -0.98922501353E-02  0.19904513712E-01 -0.69393016508E-01  0.72867675549E-01  0.51100000000E-03 0.  1.
         11    1    4    4    0    0 -0.78727023608E-02  0.31093472331E-01 -0.48254536211E-01  0.57944325434E-01  0.51100000000E-03 0. -1.
</event>
<event>
 8    1  0.1163913E+005  0.1043930E+01  0.7957747E-01            NaN
         13   -1    0    0    0    0  0.00000000000E+00  0.00000000000E+00  0.74505805969E-08  0.10566000000E+00  0.10566000000E+00 0. -1.
     999900   -1    0    0    0    0 -0.00000000000E+00 -0.00000000000E+00 -0.74505805969E-08  0.93827000000E+00  0.93827000000E+00 0.  1.
     999902    2    1    2    0    0 -0.45692638286E-02  0.22520115242E-01 -0.59572439723E-02  0.10201913708E+01  0.10199151487E+01 0.  0.
     999903    2    3    3    0    0 -0.35416646679E-01 -0.11001217020E+00  0.50932163643E-01  0.12791743726E+00  0.20292092241E-01 0.  0.
         14    1    1    2    0    0  0.45692638286E-02 -0.22520115242E-01  0.59572439723E-02  0.23738629240E-01  0.00000000000E+00 0. -1.
     999901    1    3    3    0    0  0.30847382851E-01  0.13253228544E+00 -0.56889407615E-01  0.89227393350E+00  0.88000000000E+00 0.  1.
        -11    1    4    4    0    0 -0.35909477613E-02 -0.37234260940E-01  0.21869025314E-01  0.43333595313E-01  0.51100000000E-03 0. -1.
         11    1    4    4    0    0 -0.31825698918E-01 -0.72777909255E-01  0.29063138329E-01  0.84583841942E-01  0.51100000000E-03 0.  1.
</event>
<event>
 8    1  0.1163913E+005  0.1043930E+01  0.7957747E-01            NaN
         13   -1    0    0    0    0  0.00000000000E+00  0.00000000000E+00  0.74505805969E-08  0.10566000000E+00  0.10566000000E+00 0. -1.
     999900   -1    0    0    0    0 -0.00000000000E+00 -0.00000000000E+00 -0.74505805969E-08  0.93827000000E+00  0.93827000000E+00 0.  1.
     999902    2    1    2    0    0 -0.69170968414E-02 -0.20057696307E-01  0.10814557229E-01  0.10201158853E+01  0.10198378829E+01 0.  0.
     999903    2    3    3    0    0  0.10071236113E+00 -0.30197436310E-01 -0.73240252426E-01  0.12952499969E+00  0.18913649160E-01 0.  0.
         14    1    1    2    0    0  0.69170968414E-02  0.20057696307E-01 -0.10814557229E-01  0.23814114678E-01  0.00000000000E+00 0.  1.
     999901    1    3    3    0    0 -0.10762945797E+00  0.10139740003E-01  0.84054809655E-01  0.89059088564E+00  0.88000000000E+00 0. -1.
        -11    1    4    4    0    0  0.61965125478E-01 -0.27381985524E-01 -0.42418340152E-01  0.79931386883E-01  0.51100000000E-03 0. -1.
         11    1    4    4    0    0  0.38747235651E-01 -0.28154507860E-02 -0.30821912274E-01  0.49593612804E-01  0.51100000000E-03 0.  1.
</event>
<event>
 8    1  0.1163913E+005  0.1043930E+01  0.7957747E-01            NaN
         13   -1    0    0    0    0  0.00000000000E+00  0.00000000000E+00  0.74505805969E-08  0.10566000000E+00  0.10566000000E+00 0.  1.
     999900   -1    0    0    0    0 -0.00000000000E+00 -0.00000000000E+00 -0.74505805969E-08  0.93827000000E+00  0.93827000000E+00 0. -1.
     999902    2    1    2    0    0 -0.13336954684E-01 -0.16184578812E-01  0.10298448501E-01  0.10205660750E+01  0.10202986035E+01 0.  0.
     999903    2    3    3    0    0  0.52864532082E-01 -0.43591537385E-02 -0.11591156330E+00  0.12902165958E+00  0.19935826044E-01 0.  0.
         14    1    1    2    0    0  0.13336954684E-01  0.16184578812E-01 -0.10298448501E-01  0.23363925036E-01  0.00000000000E+00 0. -1.
     999901    1    3    3    0    0 -0.66201486766E-01 -0.11825425074E-01  0.12621001180E+00  0.89154441539E+00  0.88000000000E+00 0.  1.
        -11    1    4    4    0    0  0.12964973914E-01 -0.32386789973E-02 -0.51798678014E-01  0.53497137823E-01  0.51100000000E-03 0. -1.
         11    1    4    4    0    0  0.39899558168E-01 -0.11204747412E-02 -0.64112885285E-01  0.75524521754E-01  0.51100000000E-03 0.  1.
</event>
<event>
 8    1  0.1163913E+005  0.1043930E+01  0.7957747E-01            NaN
         13   -1    0    0    0    0  0.00000000000E+00  0.00000000000E+00  0.74505805969E-08  0.10566000000E+00  0.10566000000E+00 0. -1.
     999900   -1    0    0    0    0 -0.00000000000E+00 -0.00000000000E+00 -0.74505805969E-08  0.93827000000E+00  0.93827000000E+00 0. -1.
     999902    2    1    2    0    0  0.96236853687E-02  0.22434529910E-01 -0.66022558848E-02  0.10186414011E+01  0.10183274477E+01 0.  0.
     999903    2    3    3    0    0  0.46652953895E-01  0.82018905139E-01  0.88272715959E-01  0.13076600173E+00  0.20101639679E-01 0.  0.
         14    1    1    2    0    0 -0.96236853687E-02 -0.22434529910E-01  0.66022558848E-02  0.25288598916E-01  0.00000000000E+00 0. -1.
     999901    1    3    3    0    0 -0.37029268526E-01 -0.59584375229E-01 -0.94874971844E-01  0.88787539936E+00  0.88000000000E+00 0. -1.
        -11    1    4    4    0    0  0.24706492395E-01  0.57694765276E-01  0.66409300639E-01  0.91375888718E-01  0.51100000000E-03 0.  1.
         11    1    4    4    0    0  0.21946461501E-01  0.24324139863E-01  0.21863415321E-01  0.39390113010E-01  0.51100000000E-03 0. -1.
</event>
<event>
 8    1  0.1163913E+005  0.1043930E+01  0.7957747E-01            NaN
         13   -1    0    0    0    0  0.00000000000E+00  0.00000000000E+00  0.74505805969E-08  0.10566000000E+00  0.10566000000E+00 0.  1.
     999900   -1    0    0    0    0 -0.00000000000E+00 -0.00000000000E+00 -0.74505805969E-08  0.93827000000E+00  0.93827000000E+00 0. -1.
     999902    2    1    2    0    0  0.51536170359E-02  0.20326745718E-01  0.18100906716E-01  0.10162283902E+01  0.10158507577E+01 0.  0.
     999903    2    3    3    0    0  0.11325784528E+00  0.25710924327E-02 -0.53136084836E-01  0.12657874213E+00  0.19099330188E-01 0.  0.
         14    1    1    2    0    0 -0.51536170359E-02 -0.20326745718E-01 -0.18100906716E-01  0.27701609772E-01  0.00000000000E+00 0. -1.
     999901    1    3    3    0    0 -0.10810422825E+00  0.17755653285E-01  0.71236991551E-01  0.88964964809E+00  0.88000000000E+00 0.  1.
        -11    1    4    4    0    0  0.91685168268E-01 -0.52507076500E-02 -0.44558272156E-01  0.10207566189E+00  0.51100000000E-03 0. -1.
         11    1    4    4    0    0  0.21572677017E-01  0.78218000828E-02 -0.85778126794E-02  0.24503080247E-01  0.51100000000E-03 0.  1.
</event>
<event>
 8    1  0.1163913E+005  0.1043930E+01  0.7957747E-01            NaN
         13   -1    0    0    0    0  0.00000000000E+00  0.00000000000E+00  0.74505805969E-08  0.10566000000E+00  0.10566000000E+00 0. -1.
     999900   -1    0    0    0    0 -0.00000000000E+00 -0.00000000000E+00 -0.74505805969E-08  0.93827000000E+00  0.93827000000E+00 0.  1.
     999902    2    1    2    0    0 -0.85556450905E-02 -0.62465417271E-02  0.21095551904E-01  0.10203240546E+01  0.10200509477E+01 0.  0.
     999903    2    3    3    0    0  0.81558489513E-02 -0.12956369499E+00  0.36171669209E-02  0.13139667388E+00  0.19968301834E-01 0.  0.
         14    1    1    2    0    0  0.85556450905E-02  0.62465417271E-02 -0.21095551904E-01  0.23605945365E-01  0.00000000000E+00 0.  1.
     999901    1    3    3    0    0 -0.16711494042E-01  0.12331715326E+00  0.17478384983E-01  0.88892738076E+00  0.88000000000E+00 0. -1.
        -11    1    4    4    0    0  0.41207194484E-02 -0.49541538566E-02 -0.14230785749E-02  0.66189306415E-02  0.51100000000E-03 0.  1.
         11    1    4    4    0    0  0.40351295029E-02 -0.12460954113E+00  0.50402454958E-02  0.12477774323E+00  0.51100000000E-03 0. -1.
</event>
<event>
 8    1  0.1163913E+005  0.1043930E+01  0.7957747E-01            NaN
         13   -1    0    0    0    0  0.00000000000E+00  0.00000000000E+00  0.74505805969E-08  0.10566000000E+00  0.10566000000E+00 0.  1.
     999900   -1    0    0    0    0 -0.00000000000E+00 -0.00000000000E+00 -0.74505805969E-08  0.93827000000E+00  0.93827000000E+00 0.  1.
     999902    2    1    2    0    0  0.13971778847E-01 -0.17747665869E-01  0.60568114931E-02  0.10205446368E+01  0.10202766686E+01 0.  0.
     999903    2    3    3    0    0  0.85448167800E-01 -0.16494779728E-02  0.99272622746E-01  0.13259350450E+00  0.20539563062E-01 0.  0.
         14    1    1    2    0    0 -0.13971778847E-01  0.17747665869E-01 -0.60568114931E-02  0.23385363230E-01  0.00000000000E+00 0. -1.
     999901    1    3    3    0    0 -0.71476388953E-01 -0.16098187896E-01 -0.93215811253E-01  0.88795113227E+00  0.88000000000E+00 0.  1.
        -11    1    4    4    0    0  0.54970458827E-01  0.14651711636E-02  0.48667106767E-01  0.73434640819E-01  0.51100000000E-03 0.  1.
         11    1    4    4    0    0  0.30477708973E-01 -0.31146491363E-02  0.50605515980E-01  0.59158863681E-01  0.51100000000E-03 0. -1.
</event>
<event>
 8    1  0.1163913E+005  0.1043930E+01  0.7957747E-01            NaN
         13   -1    0    0    0    0  0.00000000000E+00  0.00000000000E+00  0.74505805969E-08  0.10566000000E+00  0.10566000000E+00 0. -1.
     999900   -1    0    0    0    0 -0.00000000000E+00 -0.00000000000E+00 -0.74505805969E-08  0.93827000000E+00  0.93827000000E+00 0.  1.
     999902    2    1    2    0    0 -0.35871026964E-02  0.23461039502E-01  0.49203647177E-03  0.10201912178E+01  0.10199149921E+01 0.  0.
     999903    2    3    3    0    0 -0.11828404594E+00 -0.22948042078E-01  0.45866637053E-01  0.13037772835E+00  0.19413281412E-01 0.  0.
         14    1    1    2    0    0  0.35871026964E-02 -0.23461039502E-01 -0.49203647177E-03  0.23738782196E-01  0.00000000000E+00 0.  1.
     999901    1    3    3    0    0  0.11469694324E+00  0.46409081579E-01 -0.45374600581E-01  0.88981348946E+00  0.88000000000E+00 0. -1.
        -11    1    4    4    0    0 -0.10690806520E+00 -0.19433933130E-01  0.34755762809E-01  0.11408433868E+00  0.51100000000E-03 0.  1.
         11    1    4    4    0    0 -0.11375980740E-01 -0.35141089475E-02  0.11110874244E-01  0.16293389671E-01  0.51100000000E-03 0. -1.
</event>
<event>
 8    1  0.1163913E+005  0.1043930E+01  0.7957747E-01            NaN
         13   -1    0    0    0    0  0.00000000000E+00  0.00000000000E+00  0.74505805969E-08  0.10566000000E+00  0.10566000000E+00 0. -1.
     999900   -1    0    0    0    0 -0.00000000000E+00 -0.00000000000E+00 -0.74505805969E-08  0.93827000000E+00  0.93827000000E+00 0.  1.
     999902    2    1    2    0    0  0.40747934270E-02 -0.18731776172E-01 -0.20014593603E-01  0.10162159722E+01  0.10158379963E+01 0.  0.
     999903    2    3    3    0    0  0.10306540924E+00  0.27375960834E-01 -0.68121248159E-01  0.12816230510E+00  0.20326096116E-01 0.  0.
         14    1    1    2    0    0 -0.40747934270E-02  0.18731776172E-01  0.20014593603E-01  0.27714027804E-01  0.00000000000E+00 0. -1.
     999901    1    3    3    0    0 -0.98990615817E-01 -0.46107737006E-01  0.48106654556E-01  0.88805366710E+00  0.88000000000E+00 0. -1.
        -11    1    4    4    0    0  0.25378289155E-01  0.19547649098E-02 -0.79815111290E-02  0.26680410551E-01  0.51100000000E-03 0. -1.
         11    1    4    4    0    0  0.77687120089E-01  0.25421195924E-01 -0.60139737030E-01  0.10148189455E+00  0.51100000000E-03 0.  1.
</event>
<event>
 8    1  0.1163913E+005  0.1043930E+01  0.7957747E-01            NaN
         13   -1    0    0    0    0  0.00000000000E+00  0.00000000000E+00  0.74505805969E-08  0.10566000000E+00  0.10566000000E+00 0. -1.
     999900   -1    0    0    0    0 -0.00000000000E+00 -0.00000000000E+00 -0.74505805969E-08  0.93827000000E+00  0.93827000000E+00 0.  1.
     999902    2    1    2    0    0 -0.13869331522E-01  0.16280936183E-01  0.79971882512E-02  0.10210962036E+01  0.10208408665E+01 0.  0.
     999903    2    3    3    0    0  0.17982278153E-01  0.12923701722E+00  0.17378824668E-01  0.13325521758E+00  0.20721016382E-01 0.  0.
         14    1    1    2    0    0  0.13869331522E-01 -0.16280936183E-01 -0.79971882512E-02  0.22833796438E-01  0.00000000000E+00 0. -1.
     999901    1    3    3    0    0 -0.31851609675E-01 -0.11295608103E+00 -0.93816364165E-02  0.88784098598E+00  0.88000000000E+00 0.  1.
        -11    1    4    4    0    0  0.69112898088E-02  0.88275845436E-01  0.19865164766E-01  0.90748425367E-01  0.51100000000E-03 0. -1.
         11    1    4    4    0    0  0.11070988344E-01  0.40961171779E-01 -0.24863400984E-02  0.42506792217E-01  0.51100000000E-03 0.  1.
</event>
<event>
 8    1  0.1163913E+005  0.1043930E+01  0.7957747E-01            NaN
         13   -1    0    0    0    0  0.00000000000E+00  0.00000000000E+00  0.74505805969E-08  0.10566000000E+00  0.10566000000E+00 0.  1.
     999900   -1    0    0    0    0 -0.00000000000E+00 -0.00000000000E+00 -0.74505805969E-08  0.93827000000E+00  0.93827000000E+00 0. -1.
     999902    2    1    2    0    0 -0.43598732197E-02 -0.17577195752E-01  0.11972899625E-01  0.10222201720E+01  0.10219896103E+01 0.  0.
     999903    2    3    3    0    0  0.12369980241E+00 -0.34655493774E-01  0.26006868822E-01  0.13267652438E+00  0.20592681451E-01 0.  0.
         14    1    1    2    0    0  0.43598732197E-02  0.17577195752E-01 -0.11972899625E-01  0.21709827968E-01  0.00000000000E+00 0. -1.
     999901    1    3    3    0    0 -0.12805967563E+00  0.17078298023E-01 -0.14033969197E-01  0.88954364765E+00  0.88000000000E+00 0.  1.
        -11    1    4    4    0    0  0.10720741805E+00 -0.25333472659E-01  0.16225447874E-01  0.11134963674E+00  0.51100000000E-03 0. -1.
         11    1    4    4    0    0  0.16492384362E-01 -0.93220211151E-02  0.97814209480E-02  0.21326887639E-01  0.51100000000E-03 0.  1.
</event>
<event>
 8    1  0.1163913E+005  0.1043930E+01  0.7957747E-01            NaN
         13   -1    0    0    0    0  0.00000000000E+00  0.00000000000E+00  0.74505805969E-08  0.10566000000E+00  0.10566000000E+00 0. -1.
     999900   -1    0    0    0    0 -0.00000000000E+00 -0.00000000000E+00 -0.74505805969E-08  0.93827000000E+00  0.93827000000E+00 0. -1.
     999902    2    1    2    0    0  0.11923882983E-01  0.15735770982E-02  0.20044577726E-01  0.10205539390E+01  0.10202861864E+01 0.  0.
     999903    2    3    3    0    0 -0.56154987698E-01  0.10554488439E+00  0.50297153822E-01  0.13130707582E+00  0.20460674811E-01 0.  0.
         14    1    1    2    0    0 -0.11923882983E-01 -0.15735770982E-02 -0.20044577726E-01  0.23376060971E-01  0.00000000000E+00 0.  1.
     999901    1    3    3    0    0  0.68078870681E-01 -0.10397130729E+00 -0.30252576096E-01  0.88924686321E+00  0.88000000000E+00 0. -1.
        -11    1    4    4    0    0 -0.27573195654E-01  0.70191559953E-01  0.26095042563E-01  0.79801933401E-01  0.51100000000E-03 0.  1.
         11    1    4    4    0    0 -0.28581792043E-01  0.35353324432E-01  0.24202111260E-01  0.51505142416E-01  0.51100000000E-03 0. -1.
</event>
<event>
 8    1  0.1163913E+005  0.1043930E+01  0.7957747E-01            NaN
         13   -1    0    0    0    0  0.00000000000E+00  0.00000000000E+00  0.74505805969E-08  0.10566000000E+00  0.10566000000E+00 0.  1.
     999900   -1    0    0    0    0 -0.00000000000E+00 -0.00000000000E+00 -0.74505805969E-08  0.93827000000E+00  0.93827000000E+00 0. -1.
     999902    2    1    2    0    0  0.15074781047E-01 -0.35926612001E-02  0.19014167392E-01  0.10194005320E+01  0.10191053674E+01 0.  0.
     999903    2    3    3    0    0  0.12027469554E-01  0.12601531828E+00 -0.15861740348E-01  0.12921861611E+00  0.20526458020E-01 0.  0.
         14    1    1    2    0    0 -0.15074781047E-01  0.35926612001E-02 -0.19014167392E-01  0.24529467987E-01  0.00000000000E+00 0. -1.
     999901    1    3    3    0    0  0.30473114930E-02 -0.12960797948E+00  0.34875907739E-01  0.89018191590E+00  0.88000000000E+00 0.  1.
        -11    1    4    4    0    0  0.19823661120E-02  0.46954501098E-02 -0.47342059972E-02  0.69750164559E-02  0.51100000000E-03 0.  1.
         11    1    4    4    0    0  0.10045103442E-01  0.12131986817E+00 -0.11127534350E-01  0.12224359966E+00  0.51100000000E-03 0. -1.
</event>
<event>
 8    1  0.1163913E+005  0.1043930E+01  0.7957747E-01            NaN
         13   -1    0    0    0    0  0.00000000000E+00  0.00000000000E+00  0.74505805969E-08  0.10566000000E+00  0.10566000000E+00 0. -1.
     999900   -1    0    0    0    0 -0.00000000000E+00 -0.00000000000E+00 -0.74505805969E-08  0.93827000000E+00  0.93827000000E+00 0.  1.
     999902    2    1    2    0    0  0.38608808742E-02  0.15082394420E-01 -0.13797523307E-01  0.10231271956E+01  0.10229156865E+01 0.  0.
     999903    2    3    3    0    0 -0.95211510755E-01  0.54943301936E-01  0.71318834669E-01  0.13259419499E+00  0.20269340374E-01 0.  0.
         14    1    1    2    0    0 -0.38608808742E-02 -0.15082394420E-01  0.13797523307E-01  0.20802804426E-01  0.00000000000E+00 0. -1.
     999901    1    3    3    0    0  0.99072391629E-01 -0.39860907516E-01 -0.85116357976E-01  0.89053300058E+00  0.88000000000E+00 0.  1.
        -11    1    4    4    0    0 -0.10990295000E-01  0.93478095927E-02  0.24803095132E-02  0.14648589852E-01  0.51100000000E-03 0.  1.
         11    1    4    4    0    0 -0.84221215755E-01  0.45595492343E-01  0.68838525156E-01  0.11794560514E+00  0.51100000000E-03 0. -1.
</event>
<event>
 8    1  0.1163913E+005  0.1043930E+01  0.7957747E-01            NaN
         13   -1    0    0    0    0  0.00000000000E+00  0.00000000000E+00  0.74505805969E-08  0.10566000000E+00  0.10566000000E+00 0. -1.
     999900   -1    0    0    0    0 -0.00000000000E+00 -0.00000000000E+00 -0.74505805969E-08  0.93827000000E+00  0.93827000000E+00 0.  1.
     999902    2    1    2    0    0 -0.18391239445E-02 -0.20432088615E-01  0.11931505304E-01  0.10201978817E+01  0.10199218128E+01 0.  0.
     999903    2    3    3    0    0  0.12974473273E-01 -0.55592644403E-01 -0.11525528836E+00  0.13023597920E+00  0.20463374945E-01 0.  0.
         14    1    1    2    0    0  0.18391239445E-02  0.20432088615E-01 -0.11931505304E-01  0.23732118340E-01  0.00000000000E+00 0.  1.
     999901    1    3    3    0    0 -0.14813597217E-01  0.35160555788E-01  0.12718679367E+00  0.88996190246E+00  0.88000000000E+00 0. -1.
        -11    1    4    4    0    0 -0.31001634468E-02 -0.25604058978E-01 -0.39346751081E-01  0.47048982892E-01  0.51100000000E-03 0. -1.
         11    1    4    4    0    0  0.16074636720E-01 -0.29988585425E-01 -0.75908537283E-01  0.83186996309E-01  0.51100000000E-03 0.  1.
</event>
<event>
 8    1  0.1163913E+005  0.1043930E+01  0.7957747E-01            NaN
         13   -1    0    0    0    0  0.00000000000E+00  0.00000000000E+00  0.74505805969E-08  0.10566000000E+00  0.10566000000E+00 0. -1.
     999900   -1    0    0    0    0 -0.00000000000E+00 -0.00000000000E+00 -0.74505805969E-08  0.93827000000E+00  0.93827000000E+00 0. -1.
     999902    2    1    2    0    0  0.13537828201E-01 -0.18592459062E-01  0.86180616153E-02  0.10193693951E+01  0.10190734715E+01 0.  0.
     999903    2    3    3    0    0 -0.27821414048E-01  0.11520667922E+00  0.43250366034E-01  0.12762268621E+00  0.19244372111E-01 0.  0.
         14    1    1    2    0    0 -0.13537828201E-01  0.18592459062E-01 -0.86180616153E-02  0.24560604886E-01  0.00000000000E+00 0.  1.
     999901    1    3    3    0    0  0.41359242249E-01 -0.13379913828E+00 -0.34632304418E-01  0.89174670890E+00  0.88000000000E+00 0. -1.
        -11    1    4    4    0    0 -0.13239834695E-01  0.60877683566E-01  0.12613316958E-01  0.63566834630E-01  0.51100000000E-03 0.  1.
         11    1    4    4    0    0 -0.14581579353E-01  0.54328995653E-01  0.30637049075E-01  0.64055851584E-01  0.51100000000E-03 0. -1.
</event>
<event>
 8    1  0.1163913E+005  0.1043930E+01  0.7957747E-01            NaN
         13   -1    0    0    0    0  0.00000000000E+00  0.00000000000E+00  0.74505805969E-08  0.10566000000E+00  0.10566000000E+00 0.  1.
     999900   -1    0    0    0    0 -0.00000000000E+00 -0.00000000000E+00 -0.74505805969E-08  0.93827000000E+00  0.93827000000E+00 0. -1.
     999902    2    1    2    0    0 -0.43748053514E-02  0.27882377744E-02 -0.22601554017E-01  0.10207407043E+01  0.10204772618E+01 0.  0.
     999903    2    3    3    0    0 -0.90324392545E-01  0.39054906719E-01 -0.87867500086E-01  0.13340635550E+00  0.19818589492E-01 0.  0.
         14    1    1    2    0    0  0.43748053514E-02 -0.27882377744E-02  0.22601554017E-01  0.23189295714E-01  0.00000000000E+00 0.  1.
     999901    1    3    3    0    0  0.85949587194E-01 -0.36266668945E-01  0.65265946069E-01  0.88733434878E+00  0.88000000000E+00 0.  1.
        -11    1    4    4    0    0 -0.19893335729E-01  0.18089152288E-01 -0.23157306473E-01  0.35489212460E-01  0.51100000000E-03 0. -1.
         11    1    4    4    0    0 -0.70431056816E-01  0.20965754431E-01 -0.64710193613E-01  0.97917143042E-01  0.51100000000E-03 0.  1.
</event>
<event>
 8    1  0.1163913E+005  0.1043930E+01  0.7957747E-01            NaN
         13   -1    0    0    0    0  0.00000000000E+00  0.00000000000E+00  0.74505805969E-08  0.10566000000E+00  0.10566000000E+00 0. -1.
     999900   -1    0    0    0    0 -0.00000000000E+00 -0.00000000000E+00 -0.74505805969E-08  0.93827000000E+00  0.93827000000E+00 0.  1.
     999902    2    1    2    0    0  0.12712192899E-01 -0.11000031751E-01  0.17944345051E-01  0.10193413834E+01  0.10190447762E+01 0.  0.
     999903    2    3    3    0    0  0.46629785207E-01 -0.15216256205E-01  0.12155961613E+00  0.13260337022E+00  0.20026038015E-01 0.  0.
         14    1    1    2    0    0 -0.12712192899E-01  0.11000031751E-01 -0.17944345051E-01  0.24588616597E-01  0.00000000000E+00 0.  1.
     999901    1    3    3    0    0 -0.33917592308E-01  0.42162244544E-02 -0.10361527108E+00  0.88673801318E+00  0.88000000000E+00 0.  1.
        -11    1    4    4    0    0  0.31680267787E-01 -0.19655178601E-01  0.82056126636E-01  0.90130097373E-01  0.51100000000E-03 0.  1.
         11    1    4    4    0    0  0.14949517420E-01  0.44389223960E-02  0.39503489498E-01  0.42473272850E-01  0.51100000000E-03 0. -1.
</event>
<event>
 8    1  0.1163913E+005  0.1043930E+01  0.7957747E-01            NaN
         13   -1    0    0    0    0  0.00000000000E+00  0.00000000000E+00  0.74505805969E-08  0.10566000000E+00  0.10566000000E+00 0. -1.
     999900   -1    0    0    0    0 -0.00000000000E+00 -0.00000000000E+00 -0.74505805969E-08  0.93827000000E+00  0.93827000000E+00 0.  1.
     999902    2    1    2    0    0  0.77182721056E-02 -0.10400315157E-01 -0.15956633220E-01  0.10233787854E+01  0.10231724126E+01 0.  0.
     999903    2    3    3    0    0 -0.14361070701E-01  0.12530558189E+00 -0.35206018023E-01  0.13249488344E+00  0.20191612835E-01 0.  0.
         14    1    1    2    0    0 -0.77182721056E-02  0.10400315157E-01  0.15956633220E-01  0.20551214645E-01  0.00000000000E+00 0. -1.
     999901    1    3    3    0    0  0.22079342807E-01 -0.13570589705E+00  0.19249384804E-01  0.89088390191E+00  0.88000000000E+00 0.  1.
        -11    1    4    4    0    0  0.12957854185E-02  0.46050303719E-01 -0.54148168183E-02  0.46388478038E-01  0.51100000000E-03 0.  1.
         11    1    4    4    0    0 -0.15656856120E-01  0.79255278171E-01 -0.29791201205E-01  0.86106405405E-01  0.51100000000E-03 0. -1.
</event>
<event>
 8    1  0.1163913E+005  0.1043930E+01  0.7957747E-01            NaN
         13   -1    0    0    0    0  0.00000000000E+00  0.00000000000E+00  0.74505805969E-08  0.10566000000E+00  0.10566000000E+00 0.  1.
     999900   -1    0    0    0    0 -0.00000000000E+00 -0.00000000000E+00 -0.74505805969E-08  0.93827000000E+00  0.93827000000E+00 0. -1.
     999902    2    1    2    0    0  0.15006020825E-01 -0.15868699348E-01  0.10153452435E-01  0.10198449657E+01  0.10195605255E+01 0.  0.
     999903    2    3    3    0    0 -0.95716364577E-01 -0.85494130169E-01 -0.62572938629E-02  0.13002674842E+00  0.19923173350E-01 0.  0.
         14    1    1    2    0    0 -0.15006020825E-01  0.15868699348E-01 -0.10153452435E-01  0.24085034282E-01  0.00000000000E+00 0. -1.
     999901    1    3    3    0    0  0.11072238540E+00  0.69625430820E-01  0.16410746298E-01  0.88981821730E+00  0.88000000000E+00 0.  1.
        -11    1    4    4    0    0 -0.55511996737E-01 -0.39847001381E-01  0.34748440962E-02  0.68422956406E-01  0.51100000000E-03 0.  1.
         11    1    4    4    0    0 -0.40204367840E-01 -0.45647128787E-01 -0.97321379591E-02  0.61603792011E-01  0.51100000000E-03 0. -1.
</event>
<event>
 8    1  0.1163913E+005  0.1043930E+01  0.7957747E-01            NaN
         13   -1    0    0    0    0  0.00000000000E+00  0.00000000000E+00  0.74505805969E-08  0.10566000000E+00  0.10566000000E+00 0. -1.
     999900   -1    0    0    0    0 -0.00000000000E+00 -0.00000000000E+00 -0.74505805969E-08  0.93827000000E+00  0.93827000000E+00 0. -1.
     999902    2    1    2    0    0  0.30353572078E-02  0.10499604059E-01 -0.20498252795E-01  0.10206999882E+01  0.10204356092E+01 0.  0.
     999903    2    3    3    0    0 -0.67926747300E-01 -0.10852986027E+00  0.17218779424E-02  0.12957857796E+00  0.19871321847E-01 0.  0.
         14    1    1    2    0    0 -0.30353572078E-02 -0.10499604059E-01  0.20498252795E-01  0.23230011762E-01  0.00000000000E+00 0. -1.
     999901    1    3    3    0    0  0.70962104508E-01  0.11902946433E+00 -0.22220130738E-01  0.89112141028E+00  0.88000000000E+00 0.  1.
        -11    1    4    4    0    0 -0.48909367186E-01 -0.65133040377E-01 -0.55394795609E-02  0.81641815891E-01  0.51100000000E-03 0. -1.
         11    1    4    4    0    0 -0.19017380115E-01 -0.43396819894E-01  0.72613575032E-02  0.47936762064E-01  0.51100000000E-03 0.  1.
</event>
<event>
 8    1  0.1163913E+005  0.1043930E+01  0.7957747E-01            NaN
         13   -1    0    0    0    0  0.00000000000E+00  0.00000000000E+00  0.74505805969E-08  0.10566000000E+00  0.10566000000E+00 0. -1.
     999900   -1    0    0    0    0 -0.00000000000E+00 -0.00000000000E+00 -0.74505805969E-08  0.93827000000E+00  0.93827000000E+00 0.  1.
     999902    2    1    2    0    0 -0.43401383719E-02 -0.13885128964E-01  0.17406913272E-01  0.10212444487E+01  0.10209924533E+01 0.  0.
     999903    2    3    3    0    0  0.10373554639E+00 -0.44516878916E-01  0.66685692783E-01  0.13273611682E+00  0.20714221968E-01 0.  0.
         14    1    1    2    0    0  0.43401383719E-02  0.13885128964E-01 -0.17406913272E-01  0.22685551285E-01  0.00000000000E+00 0. -1.
     999901    1    3    3    0    0 -0.10807568477E+00  0.30631749952E-01 -0.49278779511E-01  0.88850833190E+00  0.88000000000E+00 0.  1.
        -11    1    4    4    0    0  0.67123500194E-01 -0.35526707322E-01  0.53060433639E-01  0.92646543111E-01  0.51100000000E-03 0.  1.
         11    1    4    4    0    0  0.36612046200E-01 -0.89901715945E-02  0.13625259144E-01  0.40089573706E-01  0.51100000000E-03 0. -1.
</event>
<event>
 8    1  0.1163913E+005  0.1043930E+01  0.7957747E-01            NaN
         13   -1    0    0    0    0  0.00000000000E+00  0.00000000000E+00  0.74505805969E-08  0.10566000000E+00  0.10566000000E+00 0. -1.
     999900   -1    0    0    0    0 -0.00000000000E+00 -0.00000000000E+00 -0.74505805969E-08  0.93827000000E+00  0.93827000000E+00 0.  1.
     999902    2    1    2    0    0  0.17363621253E-01  0.63383227963E-02  0.15046971548E-01  0.10200955495E+01  0.10198170665E+01 0.  0.
     999903    2    3    3    0    0  0.51118417531E-01 -0.11743140183E+00 -0.13921360594E-01  0.13032170446E+00  0.19665086530E-01 0.  0.
         14    1    1    2    0    0 -0.17363621253E-01 -0.63383227963E-02 -0.15046971548E-01  0.23834450521E-01  0.00000000000E+00 0.  1.
     999901    1    3    3    0    0 -0.33754796278E-01  0.12376972462E+00  0.28968332142E-01  0.88977384501E+00  0.88000000000E+00 0.  1.
        -11    1    4    4    0    0  0.17560976701E-01 -0.37750482659E-01 -0.13785903748E-01  0.43861134354E-01  0.51100000000E-03 0.  1.
         11    1    4    4    0    0  0.33557440830E-01 -0.79680919166E-01 -0.13545684569E-03  0.86460570110E-01  0.51100000000E-03 0. -1.
</event>
<event>
 8    1  0.1163913E+005  0.1043930E+01  0.7957747E-01            NaN
         13   -1    0    0    0    0  0.00000000000E+00  0.00000000000E+00  0.74505805969E-08  0.10566000000E+00  0.10566000000E+00 0.  1.
     999900   -1    0    0    0    0 -0.00000000000E+00 -0.00000000000E+00 -0.74505805969E-08  0.93827000000E+00  0.93827000000E+00 0.  1.
     999902    2    1    2    0    0 -0.22285835376E-01 -0.58665962747E-03  0.53443686014E-02  0.10210047976E+01  0.10207473889E+01 0.  0.
     999903    2    3    3    0    0 -0.23336854766E-01  0.10554148032E+00  0.73180084908E-01  0.13203574804E+00  0.19862051110E-01 0.  0.
         14    1    1    2    0    0  0.22285835376E-01  0.58665962747E-03 -0.53443686014E-02  0.22925202369E-01  0.00000000000E+00 0. -1.
     999901    1    3    3    0    0  0.10510193898E-02 -0.10612813995E+00 -0.67835716307E-01  0.88896904959E+00  0.88000000000E+00 0. -1.
        -11    1    4    4    0    0 -0.18189152203E-01  0.84691726332E-01  0.67492618187E-01  0.10981369859E+00  0.51100000000E-03 0. -1.
         11    1    4    4    0    0 -0.51477025634E-02  0.20849753986E-01  0.56874667209E-02  0.22222049448E-01  0.51100000000E-03 0.  1.
</event>
<event>
 8    1  0.1163913E+005  0.1043930E+01  0.7957747E-01            NaN
         13   -1    0    0    0    0  0.00000000000E+00  0.00000000000E+00  0.74505805969E-08  0.10566000000E+00  0.10566000000E+00 0. -1.
     999900   -1    0    0    0    0 -0.00000000000E+00 -0.00000000000E+00 -0.74505805969E-08  0.93827000000E+00  0.93827000000E+00 0.  1.
     999902    2    1    2    0    0  0.67478676576E-02  0.98245134645E-02  0.19114660658E-01  0.10214039032E+01  0.10211554772E+01 0.  0.
     999903    2    3    3    0    0 -0.98743201595E-01 -0.49088596843E-01 -0.64384435932E-01  0.12923171169E+00  0.19888929463E-01 0.  0.
         14    1    1    2    0    0 -0.67478676576E-02 -0.98245134645E-02 -0.19114660658E-01  0.22526096750E-01  0.00000000000E+00 0.  1.
     999901    1    3    3    0    0  0.10549106925E+00  0.58913110307E-01  0.83499096590E-01  0.89217219156E+00  0.88000000000E+00 0. -1.
        -11    1    4    4    0    0 -0.76218912947E-01 -0.44630589206E-01 -0.56938792403E-01  0.10508805539E+00  0.51100000000E-03 0. -1.
         11    1    4    4    0    0 -0.22524288648E-01 -0.44580076367E-02 -0.74456435294E-02  0.24143656305E-01  0.51100000000E-03 0.  1.
</event>
<event>
 8    1  0.1163913E+005  0.1043930E+01  0.7957747E-01            NaN
         13   -1    0    0    0    0  0.00000000000E+00  0.00000000000E+00  0.74505805969E-08  0.10566000000E+00  0.10566000000E+00 0. -1.
     999900   -1    0    0    0    0 -0.00000000000E+00 -0.00000000000E+00 -0.74505805969E-08  0.93827000000E+00  0.93827000000E+00 0.  1.
     999902    2    1    2    0    0  0.12924705960E-01  0.58212619072E-02  0.18611237826E-01  0.10205352722E+01  0.10202670869E+01 0.  0.
     999903    2    3    3    0    0 -0.10019653375E+00  0.63142165419E-01 -0.47038462196E-01  0.12902420445E+00  0.20207671295E-01 0.  0.
         14    1    1    2    0    0 -0.12924705960E-01 -0.58212619072E-02 -0.18611237826E-01  0.23394727777E-01  0.00000000000E+00 0.  1.
     999901    1    3    3    0    0  0.11312123971E+00 -0.57320903512E-01  0.65649700022E-01  0.89151106777E+00  0.88000000000E+00 0. -1.
        -11    1    4    4    0    0 -0.26050980616E-02  0.68433365779E-03 -0.51184880577E-02  0.58064523990E-02  0.51100000000E-03 0. -1.
         11    1    4    4    0    0 -0.97591435684E-01  0.62457831761E-01 -0.41919974139E-01  0.12321775205E+00  0.51100000000E-03 0.  1.
</event>
<event>
 8    1  0.1187813E+005  0.1043930E+01  0.7957747E-01            NaN
         13   -1    0    0    0    0  0.00000000000E+00  0.00000000000E+00  0.74505805969E-08  0.10566000000E+00  0.10566000000E+00 0.  1.
     999900   -1    0    0    0    0 -0.00000000000E+00 -0.00000000000E+00 -0.74505805969E-08  0.93827000000E+00  0.93827000000E+00 0.  1.
     999902    2    1    2    0    0 -0.22456978347E-02  0.11048043602E-01  0.20548761343E-01  0.10204916976E+01  0.10202225007E+01 0.  0.
     999903    2    3    3    0    0 -0.58134333998E-01  0.49668626098E-01 -0.10230144601E+00  0.12936473556E+00  0.20568805080E-01 0.  0.
         14    1    1    2    0    0  0.22456978347E-02 -0.11048043602E-01 -0.20548761343E-01  0.23438302390E-01  0.00000000000E+00 0. -1.
     999901    1    3    3    0    0  0.55888636164E-01 -0.38620582496E-01  0.12285020736E+00  0.89112696205E+00  0.88000000000E+00 0. -1.
        -11    1    4    4    0    0 -0.32295580039E-01  0.21195261244E-01 -0.36482873805E-01  0.53136661462E-01  0.51100000000E-03 0.  1.
         11    1    4    4    0    0 -0.25838753960E-01  0.28473364854E-01 -0.65818572208E-01  0.76228074099E-01  0.51100000000E-03 0. -1.
</event>
<event>
 8    1  0.1163913E+005  0.1043930E+01  0.7957747E-01            NaN
         13   -1    0    0    0    0  0.00000000000E+00  0.00000000000E+00  0.74505805969E-08  0.10566000000E+00  0.10566000000E+00 0. -1.
     999900   -1    0    0    0    0 -0.00000000000E+00 -0.00000000000E+00 -0.74505805969E-08  0.93827000000E+00  0.93827000000E+00 0. -1.
     999902    2    1    2    0    0  0.76038829857E-02 -0.11807563842E-01  0.18682340485E-01  0.10205576350E+01  0.10202899680E+01 0.  0.
     999903    2    3    3    0    0  0.12285223689E+00 -0.13754820617E-02  0.44300826045E-01  0.13261207460E+00  0.22996414560E-01 0.  0.
         14    1    1    2    0    0 -0.76038829858E-02  0.11807563842E-01 -0.18682340485E-01  0.23372365013E-01  0.00000000000E+00 0.  1.
     999901    1    3    3    0    0 -0.11524835390E+00 -0.10432081780E-01 -0.25618485560E-01  0.88794556039E+00  0.88000000000E+00 0.  1.
        -11    1    4    4    0    0  0.58447085915E-01  0.59319479528E-02  0.11119671178E-01  0.59792625520E-01  0.51100000000E-03 0.  1.
         11    1    4    4    0    0  0.64405150971E-01 -0.73074300144E-02  0.33181154867E-01  0.72819449080E-01  0.51100000000E-03 0. -1.
</event>
<event>
 8    1  0.1163913E+005  0.1043930E+01  0.7957747E-01            NaN
         13   -1    0    0    0    0  0.00000000000E+00  0.00000000000E+00  0.74505805969E-08  0.10566000000E+00  0.10566000000E+00 0.  1.
     999900   -1    0    0    0    0 -0.00000000000E+00 -0.00000000000E+00 -0.74505805969E-08  0.93827000000E+00  0.93827000000E+00 0. -1.
     999902    2    1    2    0    0 -0.73581693937E-02 -0.18852838126E-01 -0.11783799303E-01  0.10205114158E+01  0.10202426768E+01 0.  0.
     999903    2    3    3    0    0  0.10096405799E+00  0.36966750785E-01 -0.70564667853E-01  0.13017174913E+00  0.20125363429E-01 0.  0.
         14    1    1    2    0    0  0.73581693937E-02  0.18852838126E-01  0.11783799303E-01  0.23418584250E-01  0.00000000000E+00 0.  1.
     999901    1    3    3    0    0 -0.10832222738E+00 -0.55819588911E-01  0.58780868550E-01  0.89033966662E+00  0.88000000000E+00 0.  1.
        -11    1    4    4    0    0  0.54310135125E-02  0.69915279931E-02 -0.29185304714E-02  0.93357545257E-02  0.51100000000E-03 0. -1.
         11    1    4    4    0    0  0.95533044476E-01  0.29975222792E-01 -0.67646137381E-01  0.12083599460E+00  0.51100000000E-03 0.  1.
</event>
<event>
 8    1  0.1163913E+005  0.1043930E+01  0.7957747E-01            NaN
         13   -1    0    0    0    0  0.00000000000E+00  0.00000000000E+00  0.74505805969E-08  0.10566000000E+00  0.10566000000E+00 0.  1.
     999900   -1    0    0    0    0 -0.00000000000E+00 -0.00000000000E+00 -0.74505805969E-08  0.93827000000E+00  0.93827000000E+00 0.  1.
     999902    2    1    2    0    0  0.15957485178E-01 -0.42252184618E-02 -0.10815983693E-01  0.10241947699E+01  0.10240046130E+01 0.  0.
     999903    2    3    3    0    0 -0.24795681811E-01 -0.48514655466E-01  0.11928888098E+00  0.13259527984E+00  0.19574817417E-01 0.  0.
         14    1    1    2    0    0 -0.15957485178E-01  0.42252184618E-02  0.10815983693E-01  0.19735230111E-01  0.00000000000E+00 0. -1.
     999901    1    3    3    0    0  0.40753166990E-01  0.44289437004E-01 -0.13010486468E+00  0.89159949005E+00  0.88000000000E+00 0.  1.
        -11    1    4    4    0    0 -0.82452387061E-02 -0.34132588303E-01  0.84009674338E-01  0.91054401590E-01  0.51100000000E-03 0. -1.
         11    1    4    4    0    0 -0.16550443105E-01 -0.14382067163E-01  0.35279206646E-01  0.41540878246E-01  0.51100000000E-03 0.  1.
</event>
<event>
 8    1  0.1163913E+005  0.1043930E+01  0.7957747E-01            NaN
         13   -1    0    0    0    0  0.00000000000E+00  0.00000000000E+00  0.74505805969E-08  0.10566000000E+00  0.10566000000E+00 0. -1.
     999900   -1    0    0    0    0 -0.00000000000E+00 -0.00000000000E+00 -0.74505805969E-08  0.93827000000E+00  0.93827000000E+00 0.  1.
     999902    2    1    2    0    0 -0.11840157759E-01 -0.45476666749E-02  0.20356225720E-01  0.10199457024E+01  0.10196636648E+01 0.  0.
     999903    2    3    3    0    0 -0.96729023335E-01 -0.73492878730E-01 -0.44001569131E-01  0.13084419661E+00  0.20648450805E-01 0.  0.
         14    1    1    2    0    0  0.11840157759E-01  0.45476666749E-02 -0.20356225720E-01  0.23984297644E-01  0.00000000000E+00 0.  1.
     999901    1    3    3    0    0  0.84888865576E-01  0.68945212055E-01  0.64357794851E-01  0.88910150575E+00  0.88000000000E+00 0.  1.
        -11    1    4    4    0    0 -0.18921922802E-01 -0.51837669280E-02 -0.55462804776E-02  0.20394434295E-01  0.51100000000E-03 0.  1.
         11    1    4    4    0    0 -0.77807100533E-01 -0.68309111802E-01 -0.38455288654E-01  0.11044976231E+00  0.51100000000E-03 0. -1.
</event>
<event>
 8    1  0.1163913E+005  0.1043930E+01  0.7957747E-01            NaN
         13   -1    0    0    0    0  0.00000000000E+00  0.00000000000E+00  0.74505805969E-08  0.10566000000E+00  0.10566000000E+00 0. -1.
     999900   -1    0    0    0    0 -0.00000000000E+00 -0.00000000000E+00 -0.74505805969E-08  0.93827000000E+00  0.93827000000E+00 0.  1.
     999902    2    1    2    0    0 -0.11468915380E-01 -0.97672454637E-02 -0.18918577120E-01  0.10197463761E+01  0.10194595744E+01 0.  0.
     999903    2    3    3    0    0  0.12516145539E+00 -0.29960524259E-02 -0.24932844999E-01  0.12915675194E+00  0.19632971379E-01 0.  0.
         14    1    1    2    0    0  0.11468915380E-01  0.97672454637E-02  0.18918577120E-01  0.24183623885E-01  0.00000000000E+00 0. -1.
     999901    1    3    3    0    0 -0.13663037077E+00 -0.67711930378E-02  0.60142678783E-02  0.89058962418E+00  0.88000000000E+00 0. -1.
        -11    1    4    4    0    0  0.10135002560E+00 -0.10019051947E-01 -0.21497618204E-01  0.10408947017E+00  0.51100000000E-03 0. -1.
         11    1    4    4    0    0  0.23811429798E-01  0.70229995206E-02 -0.34352267944E-02  0.25067281772E-01  0.51100000000E-03 0.  1.
</event>
<event>
 8    1  0.1163913E+005  0.1043930E+01  0.7957747E-01            NaN
         13   -1    0    0    0    0  0.00000000000E+00  0.00000000000E+00  0.74505805969E-08  0.10566000000E+00  0.10566000000E+00 0.  1.
     999900   -1    0    0    0    0 -0.00000000000E+00 -0.00000000000E+00 -0.74505805969E-08  0.93827000000E+00  0.93827000000E+00 0. -1.
     999902    2    1    2    0    0  0.20286270468E-01 -0.12699015886E-01  0.33377888731E-02  0.10197651783E+01  0.10194788278E+01 0.  0.
     999903    2    3    3    0    0  0.12037368819E+00 -0.20992046930E-01 -0.47583915099E-01  0.13259028826E+00  0.19633255509E-01 0.  0.
         14    1    1    2    0    0 -0.20286270468E-01  0.12699015886E-01 -0.33377888731E-02  0.24164821715E-01  0.00000000000E+00 0. -1.
     999901    1    3    3    0    0 -0.10008741772E+00  0.82930310444E-02  0.50921703972E-01  0.88717489002E+00  0.88000000000E+00 0.  1.
        -11    1    4    4    0    0  0.78978772031E-01 -0.16117401080E-01 -0.21530761705E-01  0.83434116941E-01  0.51100000000E-03 0.  1.
         11    1    4    4    0    0  0.41394916162E-01 -0.48746458495E-02 -0.26053153394E-01  0.49156171322E-01  0.51100000000E-03 0. -1.
</event>
<event>
 8    1  0.1163913E+005  0.1043930E+01  0.7957747E-01            NaN
         13   -1    0    0    0    0  0.00000000000E+00  0.00000000000E+00  0.74505805969E-08  0.10566000000E+00  0.10566000000E+00 0. -1.
     999900   -1    0    0    0    0 -0.00000000000E+00 -0.00000000000E+00 -0.74505805969E-08  0.93827000000E+00  0.93827000000E+00 0.  1.
     999902    2    1    2    0    0 -0.95081709045E-03 -0.16981821183E-01 -0.16675297631E-01  0.10201108511E+01  0.10198327297E+01 0.  0.
     999903    2    3    3    0    0  0.64547008682E-01 -0.11361492094E+00 -0.40423291077E-02  0.13231159842E+00  0.20380187980E-01 0.  0.
         14    1    1    2    0    0  0.95081709045E-03  0.16981821183E-01  0.16675297631E-01  0.23819148912E-01  0.00000000000E+00 0.  1.
     999901    1    3    3    0    0 -0.65497825773E-01  0.96633099753E-01 -0.12632968523E-01  0.88779925267E+00  0.88000000000E+00 0.  1.
        -11    1    4    4    0    0  0.35789926137E-01 -0.77993862686E-01 -0.88817751679E-02  0.86273451772E-01  0.51100000000E-03 0.  1.
         11    1    4    4    0    0  0.28757082545E-01 -0.35621058250E-01  0.48394460602E-02  0.46038146645E-01  0.51100000000E-03 0. -1.
</event>
<event>
 8    1  0.1163913E+005  0.1043930E+01  0.7957747E-01            NaN
         13   -1    0    0    0    0  0.00000000000E+00  0.00000000000E+00  0.74505805969E-08  0.10566000000E+00  0.10566000000E+00 0.  1.
     999900   -1    0    0    0    0 -0.00000000000E+00 -0.00000000000E+00 -0.74505805969E-08  0.93827000000E+00  0.93827000000E+00 0.  1.
     999902    2    1    2    0    0  0.12805792912E-01 -0.41730299181E-02  0.19276552146E-01  0.10204143037E+01  0.10201433052E+01 0.  0.
     999903    2    3    3    0    0 -0.41158914573E-01 -0.11805958205E+00 -0.29791579965E-01  0.13008289460E+00  0.20047445412E-01 0.  0.
         14    1    1    2    0    0 -0.12805792912E-01  0.41730299181E-02 -0.19276552146E-01  0.23515696320E-01  0.00000000000E+00 0. -1.
     999901    1    3    3    0    0  0.53964707484E-01  0.11388655213E+00  0.49068132111E-01  0.89033140908E+00  0.88000000000E+00 0. -1.
        -11    1    4    4    0    0 -0.31346493322E-01 -0.84343072295E-01 -0.30342908054E-01  0.94959515994E-01  0.51100000000E-03 0.  1.
         11    1    4    4    0    0 -0.98124212508E-02 -0.33716509754E-01  0.55132808885E-03  0.35123378603E-01  0.51100000000E-03 0. -1.
</event>
<event>
 8    1  0.1163913E+005  0.1043930E+01  0.7957747E-01            NaN
         13   -1    0    0    0    0  0.00000000000E+00  0.00000000000E+00  0.74505805969E-08  0.10566000000E+00  0.10566000000E+00 0.  1.
     999900   -1    0    0    0    0 -0.00000000000E+00 -0.00000000000E+00 -0.74505805969E-08  0.93827000000E+00  0.93827000000E+00 0. -1.
     999902    2    1    2    0    0  0.18087445118E-01  0.87535536768E-02  0.11601034830E-01  0.10207273195E+01  0.10204635694E+01 0.  0.
     999903    2    3    3    0    0  0.47903259793E-01  0.10930686447E+00  0.56211523730E-01  0.13337730580E+00  0.19673773965E-01 0.  0.
         14    1    1    2    0    0 -0.18087445118E-01 -0.87535536768E-02 -0.11601034830E-01  0.23202680492E-01  0.00000000000E+00 0. -1.
     999901    1    3    3    0    0 -0.29815814674E-01 -0.10055331079E+00 -0.44610488900E-01  0.88735001371E+00  0.88000000000E+00 0.  1.
        -11    1    4    4    0    0  0.20546169320E-01  0.32093086450E-01  0.25677226253E-01  0.45953153762E-01  0.51100000000E-03 0.  1.
         11    1    4    4    0    0  0.27357090473E-01  0.77213778021E-01  0.30534297476E-01  0.87424152033E-01  0.51100000000E-03 0. -1.
</event>
<event>
 8    1  0.1163913E+005  0.1043930E+01  0.7957747E-01            NaN
         13   -1    0    0    0    0  0.00000000000E+00  0.00000000000E+00  0.74505805969E-08  0.10566000000E+00  0.10566000000E+00 0. -1.
     999900   -1    0    0    0    0 -0.00000000000E+00 -0.00000000000E+00 -0.74505805969E-08  0.93827000000E+00  0.93827000000E+00 0. -1.
     999902    2    1    2    0    0  0.33946369522E-02 -0.23378896911E-01 -0.19892507254E-02  0.10202223325E+01  0.10199468389E+01 0.  0.
     999903    2    3    3    0    0 -0.66477233393E-01  0.10674597127E+00  0.87996254757E-02  0.12784855461E+00  0.21304801460E-01 0.  0.
         14    1    1    2    0    0 -0.33946369522E-02  0.23378896911E-01  0.19892507254E-02  0.23707667520E-01  0.00000000000E+00 0. -1.
     999901    1    3    3    0    0  0.69871870345E-01 -0.13012486818E+00 -0.10788876201E-01  0.89237377787E+00  0.88000000000E+00 0. -1.
        -11    1    4    4    0    0 -0.28966726095E-01  0.49329691588E-01  0.14530177250E-01  0.59024375175E-01  0.51100000000E-03 0. -1.
         11    1    4    4    0    0 -0.37510507297E-01  0.57416279679E-01 -0.57305517740E-02  0.68824179433E-01  0.51100000000E-03 0.  1.
</event>
<event>
 8    1  0.1163913E+005  0.1043930E+01  0.7957747E-01            NaN
         13   -1    0    0    0    0  0.00000000000E+00  0.00000000000E+00  0.74505805969E-08  0.10566000000E+00  0.10566000000E+00 0. -1.
     999900   -1    0    0    0    0 -0.00000000000E+00 -0.00000000000E+00 -0.74505805969E-08  0.93827000000E+00  0.93827000000E+00 0.  1.
     999902    2    1    2    0    0 -0.62409327423E-02  0.22038100548E-01  0.28711483791E-02  0.10208460097E+01  0.10205849817E+01 0.  0.
     999903    2    3    3    0    0 -0.44681833656E-01 -0.33769396503E-01  0.11653985572E+00  0.13095120991E+00  0.20732655519E-01 0.  0.
         14    1    1    2    0    0  0.62409327423E-02 -0.22038100548E-01 -0.28711483791E-02  0.23083990346E-01  0.00000000000E+00 0.  1.
     999901    1    3    3    0    0  0.38440900914E-01  0.55807497052E-01 -0.11366870734E+00  0.88989479975E+00  0.88000000000E+00 0.  1.
        -11    1    4    4    0    0 -0.51677581923E-02 -0.12035873399E-01  0.15478048349E-01  0.20282975001E-01  0.51100000000E-03 0.  1.
         11    1    4    4    0    0 -0.39514075464E-01 -0.21733523105E-01  0.10106180737E+00  0.11066823490E+00  0.51100000000E-03 0. -1.
</event>
<event>
 8    1  0.1163913E+005  0.1043930E+01  0.7957747E-01            NaN
         13   -1    0    0    0    0  0.00000000000E+00  0.00000000000E+00  0.74505805969E-08  0.10566000000E+00  0.10566000000E+00 0.  1.
     999900   -1    0    0    0    0 -0.00000000000E+00 -0.00000000000E+00 -0.74505805969E-08  0.93827000000E+00  0.93827000000E+00 0.  1.
     999902    2    1    2    0    0  0.21048613174E-02 -0.22766395763E-01 -0.63250534682E-02  0.10202077421E+01  0.10199319054E+01 0.  0.
     999903    2    3    3    0    0  0.68337330967E-01 -0.10169935084E+00  0.46739134055E-01  0.13260819310E+00  0.19688510869E-01 0.  0.
         14    1    1    2    0    0 -0.21048613174E-02  0.22766395763E-01  0.63250534682E-02  0.23722257873E-01  0.00000000000E+00 0. -1.
     999901    1    3    3    0    0 -0.66232469649E-01  0.78932955077E-01 -0.53064187524E-01  0.88759954903E+00  0.88000000000E+00 0.  1.
        -11    1    4    4    0    0 -0.18684733315E-03 -0.51818086537E-02 -0.33544500233E-03  0.52210819951E-02  0.51100000000E-03 0.  1.
         11    1    4    4    0    0  0.68524178300E-01 -0.96517542187E-01  0.47074579058E-01  0.12738711111E+00  0.51100000000E-03 0. -1.
</event>
<event>
 8    1  0.1163913E+005  0.1043930E+01  0.7957747E-01            NaN
         13   -1    0    0    0    0  0.00000000000E+00  0.00000000000E+00  0.74505805969E-08  0.10566000000E+00  0.10566000000E+00 0.  1.
     999900   -1    0    0    0    0 -0.00000000000E+00 -0.00000000000E+00 -0.74505805969E-08  0.93827000000E+00  0.93827000000E+00 0. -1.
     999902    2    1    2    0    0 -0.23413873657E-01 -0.77976234666E-03  0.68668371632E-02  0.10195174835E+01  0.10192251607E+01 0.  0.
     999903    2    3    3    0    0 -0.88902343301E-01 -0.82804277017E-01 -0.46455643262E-01  0.13167738102E+00  0.20509289232E-01 0.  0.
         14    1    1    2    0    0  0.23413873657E-01  0.77976234666E-03 -0.68668371632E-02  0.24412516494E-01  0.00000000000E+00 0. -1.
     999901    1    3    3    0    0  0.65488469643E-01  0.82024514670E-01  0.53322480425E-01  0.88784010249E+00  0.88000000000E+00 0.  1.
        -11    1    4    4    0    0 -0.42618966151E-01 -0.26338601332E-01 -0.21448262198E-01  0.54501259327E-01  0.51100000000E-03 0. -1.
         11    1    4    4    0    0 -0.46283377149E-01 -0.56465675685E-01 -0.25007381064E-01  0.77176121693E-01  0.51100000000E-03 0.  1.
</event>
<event>
 8    1  0.1163913E+005  0.1043930E+01  0.7957747E-01            NaN
         13   -1    0    0    0    0  0.00000000000E+00  0.00000000000E+00  0.74505805969E-08  0.10566000000E+00  0.10566000000E+00 0.  1.
     999900   -1    0    0    0    0 -0.00000000000E+00 -0.00000000000E+00 -0.74505805969E-08  0.93827000000E+00  0.93827000000E+00 0. -1.
     999902    2    1    2    0    0 -0.28060424739E-01 -0.35843637610E-02  0.10700768360E-01  0.10136853055E+01  0.10132340091E+01 0.  0.
     999903    2    3    3    0    0  0.68876886058E-01 -0.98033646506E-01 -0.18440829026E-01  0.12286167431E+00  0.20007637534E-01 0.  0.
         14    1    1    2    0    0  0.28060424739E-01  0.35843637610E-02 -0.10700768360E-01  0.30244694470E-01  0.00000000000E+00 0. -1.
     999901    1    3    3    0    0 -0.96937310797E-01  0.94449282745E-01  0.29141597386E-01  0.89082363122E+00  0.88000000000E+00 0.  1.
        -11    1    4    4    0    0  0.54979133026E-01 -0.66684501262E-01 -0.19295168134E-01  0.88555589384E-01  0.51100000000E-03 0.  1.
         11    1    4    4    0    0  0.13897753031E-01 -0.31349145244E-01  0.85433910808E-03  0.34306084929E-01  0.51100000000E-03 0. -1.
</event>
<event>
 8    1  0.1163913E+005  0.1043930E+01  0.7957747E-01            NaN
         13   -1    0    0    0    0  0.00000000000E+00  0.00000000000E+00  0.74505805969E-08  0.10566000000E+00  0.10566000000E+00 0. -1.
     999900   -1    0    0    0    0 -0.00000000000E+00 -0.00000000000E+00 -0.74505805969E-08  0.93827000000E+00  0.93827000000E+00 0. -1.
     999902    2    1    2    0    0 -0.19306939130E-01 -0.10846540491E-01  0.99469932863E-02  0.10196535090E+01  0.10193644738E+01 0.  0.
     999903    2    3    3    0    0  0.26949932240E-01  0.54849895041E-01  0.11298715067E+00  0.13000582941E+00  0.20015234946E-01 0.  0.
         14    1    1    2    0    0  0.19306939130E-01  0.10846540491E-01 -0.99469932863E-02  0.24276490987E-01  0.00000000000E+00 0.  1.
     999901    1    3    3    0    0 -0.46256871369E-01 -0.65696435532E-01 -0.10304015738E+00  0.88964767960E+00  0.88000000000E+00 0.  1.
        -11    1    4    4    0    0  0.88681476091E-03  0.13126913918E-01  0.12661197488E-01  0.18266618523E-01  0.51100000000E-03 0. -1.
         11    1    4    4    0    0  0.26063117479E-01  0.41722981123E-01  0.10032595318E+00  0.11173921089E+00  0.51100000000E-03 0.  1.
</event>
<event>
 8    1  0.1246179E+005  0.1043930E+01  0.7957747E-01            NaN
         13   -1    0    0    0    0  0.00000000000E+00  0.00000000000E+00  0.74505805969E-08  0.10566000000E+00  0.10566000000E+00 0.  1.
     999900   -1    0    0    0    0 -0.00000000000E+00 -0.00000000000E+00 -0.74505805969E-08  0.93827000000E+00  0.93827000000E+00 0.  1.
     999902    2    1    2    0    0 -0.12258389571E-02  0.97746740279E-02  0.21203818957E-01  0.10205494767E+01  0.10202816206E+01 0.  0.
     999903    2    3    3    0    0 -0.31741047697E-01  0.35237981679E-01 -0.11795903003E+00  0.12872782602E+00  0.20181946478E-01 0.  0.
         14    1    1    2    0    0  0.12258389571E-02 -0.97746740279E-02 -0.21203818957E-01  0.23380523345E-01  0.00000000000E+00 0. -1.
     999901    1    3    3    0    0  0.30515208740E-01 -0.25463307651E-01  0.13916284899E+00  0.89182165063E+00  0.88000000000E+00 0. -1.
        -11    1    4    4    0    0 -0.79853848527E-02  0.88159770794E-02 -0.56451989511E-01  0.57693813047E-01  0.51100000000E-03 0. -1.
         11    1    4    4    0    0 -0.23755662845E-01  0.26422004600E-01 -0.61507040523E-01  0.71034012974E-01  0.51100000000E-03 0.  1.
</event>
<event>
 8    1  0.1163913E+005  0.1043930E+01  0.7957747E-01            NaN
         13   -1    0    0    0    0  0.00000000000E+00  0.00000000000E+00  0.74505805969E-08  0.10566000000E+00  0.10566000000E+00 0.  1.
     999900   -1    0    0    0    0 -0.00000000000E+00 -0.00000000000E+00 -0.74505805969E-08  0.93827000000E+00  0.93827000000E+00 0.  1.
     999902    2    1    2    0    0 -0.99027497821E-02 -0.20886279507E-01  0.54625563257E-02  0.10201783549E+01  0.10199018262E+01 0.  0.
     999903    2    3    3    0    0 -0.51667386300E-01  0.99721015774E-01 -0.59455841697E-01  0.12860401532E+00  0.19753375666E-01 0.  0.
         14    1    1    2    0    0  0.99027497821E-02  0.20886279507E-01 -0.54625563257E-02  0.23751645133E-01  0.00000000000E+00 0. -1.
     999901    1    3    3    0    0  0.41764636518E-01 -0.12060729528E+00  0.64918398023E-01  0.89157433955E+00  0.88000000000E+00 0. -1.
        -11    1    4    4    0    0 -0.12988678114E-01  0.20695747931E-01 -0.44528779361E-02  0.24841678375E-01  0.51100000000E-03 0. -1.
         11    1    4    4    0    0 -0.38678708185E-01  0.79025267843E-01 -0.55002963761E-01  0.10376233694E+00  0.51100000000E-03 0.  1.
</event>
<event>
 8    1  0.1163913E+005  0.1043930E+01  0.7957747E-01            NaN
         13   -1    0    0    0    0  0.00000000000E+00  0.00000000000E+00  0.74505805969E-08  0.10566000000E+00  0.10566000000E+00 0. -1.
     999900   -1    0    0    0    0 -0.00000000000E+00 -0.00000000000E+00 -0.74505805969E-08  0.93827000000E+00  0.93827000000E+00 0.  1.
     999902    2    1    2    0    0  0.16198091687E-01 -0.14902214413E-01  0.10720525249E-01  0.10194476833E+01  0.10191536661E+01 0.  0.
     999903    2    3    3    0    0 -0.10288981957E+00 -0.12591069617E-01 -0.71629342200E-01  0.12761318484E+00  0.20236409647E-01 0.  0.
         14    1    1    2    0    0 -0.16198091687E-01  0.14902214413E-01 -0.10720525249E-01  0.24482316686E-01  0.00000000000E+00 0. -1.
     999901    1    3    3    0    0  0.11908791126E+00 -0.23111447964E-02  0.82349867448E-01  0.89183449847E+00  0.88000000000E+00 0. -1.
        -11    1    4    4    0    0 -0.96002235902E-01 -0.14178596054E-01 -0.60310203746E-01  0.11425867005E+00  0.51100000000E-03 0. -1.
         11    1    4    4    0    0 -0.68875836697E-02  0.15875264368E-02 -0.11319138454E-01  0.13354514792E-01  0.51100000000E-03 0.  1.
</event>
<event>
 8    1  0.1163913E+005  0.1043930E+01  0.7957747E-01            NaN
         13   -1    0    0    0    0  0.00000000000E+00  0.00000000000E+00  0.74505805969E-08  0.10566000000E+00  0.10566000000E+00 0.  1.
     999900   -1    0    0    0    0 -0.00000000000E+00 -0.00000000000E+00 -0.74505805969E-08  0.93827000000E+00  0.93827000000E+00 0. -1.
     999902    2    1    2    0    0  0.19342618712E-02 -0.22170678137E-01 -0.54654456326E-02  0.10210138172E+01  0.10207566132E+01 0.  0.
     999903    2    3    3    0    0  0.88546952315E-01 -0.95479100538E-01  0.20910673573E-01  0.13333618281E+00  0.19607650866E-01 0.  0.
         14    1    1    2    0    0 -0.19342618712E-02  0.22170678137E-01  0.54654456326E-02  0.22916182798E-01  0.00000000000E+00 0. -1.
     999901    1    3    3    0    0 -0.86612690444E-01  0.73308422401E-01 -0.26376119206E-01  0.88767763440E+00  0.88000000000E+00 0. -1.
        -11    1    4    4    0    0  0.74974749816E-01 -0.89647068594E-01  0.17552876358E-01  0.11817857084E+00  0.51100000000E-03 0. -1.
         11    1    4    4    0    0  0.13572202499E-01 -0.58320319442E-02  0.33577972154E-02  0.15157611963E-01  0.51100000000E-03 0.  1.
</event>
<event>
 8    1  0.1163913E+005  0.1043930E+01  0.7957747E-01            NaN
         13   -1    0    0    0    0  0.00000000000E+00  0.00000000000E+00  0.74505805969E-08  0.10566000000E+00  0.10566000000E+00 0. -1.
     999900   -1    0    0    0    0 -0.00000000000E+00 -0.00000000000E+00 -0.74505805969E-08  0.93827000000E+00  0.93827000000E+00 0.  1.
     999902    2    1    2    0    0 -0.72207511873E-02  0.40661435881E-02  0.22988578839E-01  0.10194933978E+01  0.10192004909E+01 0.  0.
     999903    2    3    3    0    0 -0.63317089600E-01  0.10859675883E+00 -0.27112646158E-01  0.13012082036E+00  0.19849998653E-01 0.  0.
         14    1    1    2    0    0  0.72207511873E-02 -0.40661435881E-02 -0.22988578839E-01  0.24436602227E-01  0.00000000000E+00 0.  1.
     999901    1    3    3    0    0  0.56096338412E-01 -0.10453061524E+00  0.50101224997E-01  0.88937257741E+00  0.88000000000E+00 0. -1.
        -11    1    4    4    0    0 -0.62366746975E-01  0.96020969694E-01 -0.22539331200E-01  0.11669584535E+00  0.51100000000E-03 0.  1.
         11    1    4    4    0    0 -0.95034262486E-03  0.12575789133E-01 -0.45733149585E-02  0.13424975015E-01  0.51100000000E-03 0. -1.
</event>
<event>
 8    1  0.1163913E+005  0.1043930E+01  0.7957747E-01            NaN
         13   -1    0    0    0    0  0.00000000000E+00  0.00000000000E+00  0.74505805969E-08  0.10566000000E+00  0.10566000000E+00 0.  1.
     999900   -1    0    0    0    0 -0.00000000000E+00 -0.00000000000E+00 -0.74505805969E-08  0.93827000000E+00  0.93827000000E+00 0.  1.
     999902    2    1    2    0    0 -0.23734124344E-01 -0.34715827962E-02 -0.93604721142E-03  0.10199250686E+01  0.10196425398E+01 0.  0.
     999903    2    3    3    0    0 -0.19983949475E-01 -0.85169332764E-01  0.95215135069E-01  0.13091796179E+00  0.20504079922E-01 0.  0.
         14    1    1    2    0    0  0.23734124344E-01  0.34715827962E-02  0.93604721142E-03  0.24004931366E-01  0.00000000000E+00 0.  1.
     999901    1    3    3    0    0 -0.37501748693E-02  0.81697749968E-01 -0.96151182281E-01  0.88900710684E+00  0.88000000000E+00 0.  1.
        -11    1    4    4    0    0 -0.23506712337E-01 -0.66030995934E-01  0.69968974133E-01  0.99038257311E-01  0.51100000000E-03 0. -1.
         11    1    4    4    0    0  0.35227628618E-02 -0.19138336830E-01  0.25246160937E-01  0.31879704482E-01  0.51100000000E-03 0.  1.
</event>
<event>
 8    1  0.1163913E+005  0.1043930E+01  0.7957747E-01            NaN
         13   -1    0    0    0    0  0.00000000000E+00  0.00000000000E+00  0.74505805969E-08  0.10566000000E+00  0.10566000000E+00 0. -1.
     999900   -1    0    0    0    0 -0.00000000000E+00 -0.00000000000E+00 -0.74505805969E-08  0.93827000000E+00  0.93827000000E+00 0.  1.
     999902    2    1    2    0    0 -0.12707195170E-01  0.52236860568E-03 -0.20847525987E-01  0.10195094141E+01  0.10192168956E+01 0.  0.
     999903    2    3    3    0    0 -0.61111980173E-02 -0.12025244517E+00  0.39769108576E-01  0.12916990622E+00  0.24602547976E-01 0.  0.
         14    1    1    2    0    0  0.12707195170E-01 -0.52236860568E-03  0.20847525987E-01  0.24420585944E-01  0.00000000000E+00 0. -1.
     999901    1    3    3    0    0 -0.65959971523E-02  0.12077481377E+00 -0.60616634564E-01  0.89033950783E+00  0.88000000000E+00 0.  1.
        -11    1    4    4    0    0  0.29558693397E-02 -0.10170979802E+00  0.37302468164E-01  0.10837599102E+00  0.51100000000E-03 0. -1.
         11    1    4    4    0    0 -0.90670673570E-02 -0.18542647151E-01  0.24666404120E-02  0.20793915209E-01  0.51100000000E-03 0.  1.
</event>
<event>
 8    1  0.1163913E+005  0.1043930E+01  0.7957747E-01            NaN
         13   -1    0    0    0    0  0.00000000000E+00  0.00000000000E+00  0.74505805969E-08  0.10566000000E+00  0.10566000000E+00 0.  1.
     999900   -1    0    0    0    0 -0.00000000000E+00 -0.00000000000E+00 -0.74505805969E-08  0.93827000000E+00  0.93827000000E+00 0.  1.
     999902    2    1    2    0    0  0.20113221565E-01 -0.24631052382E-02  0.12214605779E-01  0.10202697979E+01  0.10199954193E+01 0.  0.
     999903    2    3    3    0    0  0.33948967586E-01  0.90191920287E-01 -0.85158562517E-01  0.12995641738E+00  0.18696918558E-01 0.  0.
         14    1    1    2    0    0 -0.20113221565E-01  0.24631052382E-02 -0.12214605779E-01  0.23660202101E-01  0.00000000000E+00 0. -1.
     999901    1    3    3    0    0 -0.13835746021E-01 -0.92655025525E-01  0.97373168296E-01  0.89031338052E+00  0.88000000000E+00 0. -1.
        -11    1    4    4    0    0  0.21382200465E-01  0.53662929914E-01 -0.62760090873E-01  0.85299464658E-01  0.51100000000E-03 0. -1.
         11    1    4    4    0    0  0.12566767121E-01  0.36528990373E-01 -0.22398471645E-01  0.44656952724E-01  0.51100000000E-03 0.  1.
</event>
<event>
 8    1  0.1163913E+005  0.1043930E+01  0.7957747E-01            NaN
         13   -1    0    0    0    0  0.00000000000E+00  0.00000000000E+00  0.74505805969E-08  0.10566000000E+00  0.10566000000E+00 0.  1.
     999900   -1    0    0    0    0 -0.00000000000E+00 -0.00000000000E+00 -0.74505805969E-08  0.93827000000E+00  0.93827000000E+00 0. -1.
     999902    2    1    2    0    0 -0.20737422303E-01  0.73383103842E-02  0.68585462297E-02  0.10208880570E+01  0.10206279899E+01 0.  0.
     999903    2    3    3    0    0  0.27478994107E-01 -0.49001171611E-01  0.11673599224E+00  0.13095996256E+00  0.19157504362E-01 0.  0.
         14    1    1    2    0    0  0.20737422303E-01 -0.73383103842E-02 -0.68585462297E-02  0.23041943048E-01  0.00000000000E+00 0.  1.
     999901    1    3    3    0    0 -0.48216416410E-01  0.56339481995E-01 -0.10987744601E+00  0.88992809439E+00  0.88000000000E+00 0. -1.
        -11    1    4    4    0    0  0.61004778628E-02 -0.10456901688E-01  0.46376591933E-01  0.47933412391E-01  0.51100000000E-03 0. -1.
         11    1    4    4    0    0  0.21378516244E-01 -0.38544269923E-01  0.70359400307E-01  0.83026550171E-01  0.51100000000E-03 0.  1.
</event>
<event>
 8    1  0.1163913E+005  0.1043930E+01  0.7957747E-01            NaN
         13   -1    0    0    0    0  0.00000000000E+00  0.00000000000E+00  0.74505805969E-08  0.10566000000E+00  0.10566000000E+00 0. -1.
     999900   -1    0    0    0    0 -0.00000000000E+00 -0.00000000000E+00 -0.74505805969E-08  0.93827000000E+00  0.93827000000E+00 0.  1.
     999902    2    1    2    0    0  0.53956926391E-02  0.21520222250E-01  0.11136860889E-01  0.10191053523E+01  0.10188029524E+01 0.  0.
     999903    2    3    3    0    0 -0.24991027801E-01  0.73058755441E-01  0.10538891071E+00  0.13205235380E+00  0.19205947682E-01 0.  0.
         14    1    1    2    0    0 -0.53956926391E-02 -0.21520222250E-01 -0.11136860889E-01  0.24824647736E-01  0.00000000000E+00 0.  1.
     999901    1    3    3    0    0  0.30386720441E-01 -0.51538533191E-01 -0.94252049824E-01  0.88705299846E+00  0.88000000000E+00 0.  1.
        -11    1    4    4    0    0 -0.66669017612E-02  0.37517216709E-01  0.64095185318E-01  0.74568378222E-01  0.51100000000E-03 0. -1.
         11    1    4    4    0    0 -0.18324126040E-01  0.35541538732E-01  0.41293725396E-01  0.57483975581E-01  0.51100000000E-03 0.  1.
</event>
<event>
 8    1  0.1163913E+005  0.1043930E+01  0.7957747E-01            NaN
         13   -1    0    0    0    0  0.00000000000E+00  0.00000000000E+00  0.74505805969E-08  0.10566000000E+00  0.10566000000E+00 0. -1.
     999900   -1    0    0    0    0 -0.00000000000E+00 -0.00000000000E+00 -0.74505805969E-08  0.93827000000E+00  0.93827000000E+00 0. -1.
     999902    2    1    2    0    0  0.64186514332E-02 -0.48138306182E-02 -0.22382584680E-01  0.10201528650E+01  0.10198757355E+01 0.  0.
     999903    2    3    3    0    0  0.17919253637E-01  0.12355612484E+00  0.27779336581E-01  0.12935135644E+00  0.19309744570E-01 0.  0.
         14    1    1    2    0    0 -0.64186514332E-02  0.48138306182E-02  0.22382584680E-01  0.23777134992E-01  0.00000000000E+00 0. -1.
     999901    1    3    3    0    0 -0.11500602204E-01 -0.12836995546E+00 -0.50161921262E-01  0.89080150856E+00  0.88000000000E+00 0. -1.
        -11    1    4    4    0    0  0.17140303924E-01  0.90210064960E-01  0.12545298997E-01  0.92678430536E-01  0.51100000000E-03 0.  1.
         11    1    4    4    0    0  0.77894971243E-03  0.33346059884E-01  0.15234037585E-01  0.36672925907E-01  0.51100000000E-03 0. -1.
</event>
<event>
 8    1  0.1163913E+005  0.1043930E+01  0.7957747E-01            NaN
         13   -1    0    0    0    0  0.00000000000E+00  0.00000000000E+00  0.74505805969E-08  0.10566000000E+00  0.10566000000E+00 0. -1.
     999900   -1    0    0    0    0 -0.00000000000E+00 -0.00000000000E+00 -0.74505805969E-08  0.93827000000E+00  0.93827000000E+00 0.  1.
     999902    2    1    2    0    0  0.94182107679E-02 -0.20528156132E-01 -0.50886114515E-02  0.10207782861E+01  0.10205157067E+01 0.  0.
     999903    2    3    3    0    0 -0.65701985536E-01 -0.11229055633E+00 -0.18043645652E-01  0.13272918001E+00  0.19119156203E-01 0.  0.
         14    1    1    2    0    0 -0.94182107679E-02  0.20528156132E-01  0.50886114515E-02  0.23151713862E-01  0.00000000000E+00 0. -1.
     999901    1    3    3    0    0  0.75120196304E-01  0.91762400197E-01  0.12955034200E-01  0.88804910613E+00  0.88000000000E+00 0.  1.
        -11    1    4    4    0    0 -0.29309157470E-01 -0.49875889705E-01 -0.17620991263E-01  0.60476371746E-01  0.51100000000E-03 0. -1.
         11    1    4    4    0    0 -0.36392828067E-01 -0.62414666624E-01 -0.42265438842E-03  0.72252808265E-01  0.51100000000E-03 0.  1.
</event>
<event>
 7    1  0.1163913E+005  0.1043930E+01  0.7957747E-01            NaN
         13   -1    0    0    0    0  0.00000000000E+00  0.00000000000E+00  0.74505805969E-08  0.10566000000E+00  0.10566000000E+00 0. -1.
     999900   -1    0    0    0    0 -0.00000000000E+00 -0.00000000000E+00 -0.74505805969E-08  0.93827000000E+00  0.93827000000E+00 0.  1.
     999902    2    1    2    0    0  0.12277670534E-01 -0.15485119585E-01 -0.95961799994E-02  0.10219614590E+01  0.10217253089E+01 0.  0.
         14    1    1    2    0    0 -0.12277670534E-01  0.15485119585E-01  0.95961799994E-02  0.21968540982E-01  0.00000000000E+00 0. -1.
     999901    1    3    3    0    0  0.10149648542E+00 -0.10026416663E+00 -0.21504002141E-01  0.89174932676E+00  0.88000000000E+00 0.  1.
        -11    1    3    3    0    0 -0.46144845503E-01  0.66193182606E-01  0.18638525608E-01  0.82816302428E-01  0.51100000000E-03 0. -1.
         11    1    3    3    0    0 -0.43073969385E-01  0.18585864437E-01 -0.67307034668E-02  0.47395829833E-01  0.51100000000E-03 0.  1.
</event>
<event>
 8    1  0.1163913E+005  0.1043930E+01  0.7957747E-01            NaN
         13   -1    0    0    0    0  0.00000000000E+00  0.00000000000E+00  0.74505805969E-08  0.10566000000E+00  0.10566000000E+00 0.  1.
     999900   -1    0    0    0    0 -0.00000000000E+00 -0.00000000000E+00 -0.74505805969E-08  0.93827000000E+00  0.93827000000E+00 0. -1.
     999902    2    1    2    0    0 -0.16013496726E-01 -0.69503652660E-02 -0.15843403330E-01  0.10203555841E+01  0.10200832147E+01 0.  0.
     999903    2    3    3    0    0 -0.66931187742E-01 -0.10242899469E+00  0.44538490505E-01  0.13167411530E+00  0.19568154174E-01 0.  0.
         14    1    1    2    0    0  0.16013496726E-01  0.69503652660E-02  0.15843403330E-01  0.23574415874E-01  0.00000000000E+00 0.  1.
     999901    1    3    3    0    0  0.50917691016E-01  0.95478629422E-01 -0.60381893835E-01  0.88868146883E+00  0.88000000000E+00 0. -1.
        -11    1    4    4    0    0 -0.13030357053E-01 -0.10253649197E-01  0.19037182747E-02  0.16697688195E-01  0.51100000000E-03 0.  1.
         11    1    4    4    0    0 -0.53900830688E-01 -0.92175345491E-01  0.42634772231E-01  0.11497642710E+00  0.51100000000E-03 0. -1.
</event>
<event>
 8    1  0.1163913E+005  0.1043930E+01  0.7957747E-01            NaN
         13   -1    0    0    0    0  0.00000000000E+00  0.00000000000E+00  0.74505805969E-08  0.10566000000E+00  0.10566000000E+00 0. -1.
     999900   -1    0    0    0    0 -0.00000000000E+00 -0.00000000000E+00 -0.74505805969E-08  0.93827000000E+00  0.93827000000E+00 0. -1.
     999902    2    1    2    0    0  0.19250144983E-01 -0.53470573353E-02 -0.12528912611E-01  0.10203475329E+01  0.10200749752E+01 0.  0.
     999903    2    3    3    0    0  0.26754201382E-01 -0.10852866769E+00  0.65705143690E-01  0.13084018432E+00  0.17542204089E-01 0.  0.
         14    1    1    2    0    0 -0.19250144983E-01  0.53470573353E-02  0.12528912611E-01  0.23582467115E-01  0.00000000000E+00 0.  1.
     999901    1    3    3    0    0 -0.75040563998E-02  0.10318161036E+00 -0.78234056302E-01  0.88950734856E+00  0.88000000000E+00 0. -1.
        -11    1    4    4    0    0  0.19845522691E-02 -0.38932393594E-01  0.27163212766E-01  0.47516007486E-01  0.51100000000E-03 0. -1.
         11    1    4    4    0    0  0.24769649113E-01 -0.69596274097E-01  0.38541930925E-01  0.83324176839E-01  0.51100000000E-03 0.  1.
</event>
<event>
 8    1  0.1163913E+005  0.1043930E+01  0.7957747E-01            NaN
         13   -1    0    0    0    0  0.00000000000E+00  0.00000000000E+00  0.74505805969E-08  0.10566000000E+00  0.10566000000E+00 0. -1.
     999900   -1    0    0    0    0 -0.00000000000E+00 -0.00000000000E+00 -0.74505805969E-08  0.93827000000E+00  0.93827000000E+00 0.  1.
     999902    2    1    2    0    0 -0.44376557269E-02 -0.21095298392E-01 -0.10581453126E-01  0.10199160134E+01  0.10196332688E+01 0.  0.
     999903    2    3    3    0    0 -0.51586244146E-01  0.41855641407E-01 -0.11095417351E+00  0.13072509283E+00  0.19109839710E-01 0.  0.
         14    1    1    2    0    0  0.44376557269E-02  0.21095298392E-01  0.10581453126E-01  0.24013986609E-01  0.00000000000E+00 0.  1.
     999901    1    3    3    0    0  0.47148588420E-01 -0.62950939799E-01  0.10037272038E+00  0.88919092056E+00  0.88000000000E+00 0. -1.
        -11    1    4    4    0    0 -0.50445767445E-02  0.12914032170E-01 -0.28781581299E-01  0.31950908038E-01  0.51100000000E-03 0. -1.
         11    1    4    4    0    0 -0.46541667402E-01  0.28941609236E-01 -0.82172592210E-01  0.98774184792E-01  0.51100000000E-03 0.  1.
</event>
<event>
 8    1  0.1163913E+005  0.1043930E+01  0.7957747E-01            NaN
         13   -1    0    0    0    0  0.00000000000E+00  0.00000000000E+00  0.74505805969E-08  0.10566000000E+00  0.10566000000E+00 0.  1.
     999900   -1    0    0    0    0 -0.00000000000E+00 -0.00000000000E+00 -0.74505805969E-08  0.93827000000E+00  0.93827000000E+00 0.  1.
     999902    2    1    2    0    0 -0.12153793401E-02  0.21991512813E-01 -0.50546353866E-02  0.10213323647E+01  0.10210823405E+01 0.  0.
     999903    2    3    3    0    0  0.37914217613E-01  0.15774304951E-01 -0.12427496174E+00  0.13240983418E+00  0.20044487483E-01 0.  0.
         14    1    1    2    0    0  0.12153793401E-02 -0.21991512813E-01  0.50546353866E-02  0.22597635310E-01  0.00000000000E+00 0.  1.
     999901    1    3    3    0    0 -0.39129596953E-01  0.62172078621E-02  0.11922032635E+00  0.88892253051E+00  0.88000000000E+00 0. -1.
        -11    1    4    4    0    0  0.28227813407E-01  0.41715579823E-02 -0.60898926682E-01  0.67254380807E-01  0.51100000000E-03 0. -1.
         11    1    4    4    0    0  0.96864042060E-02  0.11602746968E-01 -0.63376035058E-01  0.65155453373E-01  0.51100000000E-03 0.  1.
</event>
<event>
 8    1  0.1163913E+005  0.1043930E+01  0.7957747E-01            NaN
         13   -1    0    0    0    0  0.00000000000E+00  0.00000000000E+00  0.74505805969E-08  0.10566000000E+00  0.10566000000E+00 0. -1.
     999900   -1    0    0    0    0 -0.00000000000E+00 -0.00000000000E+00 -0.74505805969E-08  0.93827000000E+00  0.93827000000E+00 0. -1.
     999902    2    1    2    0    0 -0.12233604226E-01 -0.17262894011E-01 -0.10248221040E-01  0.10204205420E+01  0.10201496890E+01 0.  0.
     999903    2    3    3    0    0 -0.11875015444E+00  0.25355725603E-01 -0.48412007881E-01  0.13215335423E+00  0.19397796953E-01 0.  0.
         14    1    1    2    0    0  0.12233604226E-01  0.17262894011E-01  0.10248221040E-01  0.23509458021E-01  0.00000000000E+00 0.  1.
     999901    1    3    3    0    0  0.10651655021E+00 -0.42618619614E-01  0.38163786841E-01  0.88826718775E+00  0.88000000000E+00 0.  1.
        -11    1    4    4    0    0 -0.60966619230E-01  0.83316177026E-02 -0.15288842791E-01  0.63406264271E-01  0.51100000000E-03 0.  1.
         11    1    4    4    0    0 -0.57783535209E-01  0.17024107901E-01 -0.33123165091E-01  0.68747089958E-01  0.51100000000E-03 0. -1.
</event>
<event>
 8    1  0.1163913E+005  0.1043930E+01  0.7957747E-01            NaN
         13   -1    0    0    0    0  0.00000000000E+00  0.00000000000E+00  0.74505805969E-08  0.10566000000E+00  0.10566000000E+00 0.  1.
     999900   -1    0    0    0    0 -0.00000000000E+00 -0.00000000000E+00 -0.74505805969E-08  0.93827000000E+00  0.93827000000E+00 0.  1.
     999902    2    1    2    0    0  0.19266955329E-01 -0.33060391120E-02  0.11405539872E-01  0.10212974614E+01  0.10210466556E+01 0.  0.
     999903    2    3    3    0    0 -0.97530635560E-01  0.80020529305E-01  0.18981318830E-01  0.12964596748E+00  0.23071116922E-01 0.  0.
         14    1    1    2    0    0 -0.19266955329E-01  0.33060391120E-02 -0.11405539872E-01  0.22632538568E-01  0.00000000000E+00 0.  1.
     999901    1    3    3    0    0  0.11679759089E+00 -0.83326568417E-01 -0.75757789578E-02  0.89165149395E+00  0.88000000000E+00 0.  1.
        -11    1    4    4    0    0 -0.41062490337E-01  0.30085556126E-01 -0.33751521558E-02  0.51018835475E-01  0.51100000000E-03 0. -1.
         11    1    4    4    0    0 -0.56468145222E-01  0.49934973179E-01  0.22356470986E-01  0.78627132004E-01  0.51100000000E-03 0.  1.
</event>
<event>
 8    1  0.1163913E+005  0.1043930E+01  0.7957747E-01            NaN
         13   -1    0    0    0    0  0.00000000000E+00  0.00000000000E+00  0.74505805969E-08  0.10566000000E+00  0.10566000000E+00 0. -1.
     999900   -1    0    0    0    0 -0.00000000000E+00 -0.00000000000E+00 -0.74505805969E-08  0.93827000000E+00  0.93827000000E+00 0.  1.
     999902    2    1    2    0    0  0.22155289217E-01  0.38734453825E-03  0.89044846789E-02  0.10200491138E+01  0.10197695318E+01 0.  0.
     999903    2    3    3    0    0  0.66392234069E-01 -0.21831140463E-01  0.11107118730E+00  0.13275626282E+00  0.20072100804E-01 0.  0.
         14    1    1    2    0    0 -0.22155289217E-01 -0.38734453825E-03 -0.89044846789E-02  0.23880886153E-01  0.00000000000E+00 0. -1.
     999901    1    3    3    0    0 -0.44236944853E-01  0.22218485001E-01 -0.10216670262E+00  0.88729285103E+00  0.88000000000E+00 0.  1.
        -11    1    4    4    0    0  0.24698838345E-01 -0.83830108097E-02  0.24783278589E-01  0.35983044680E-01  0.51100000000E-03 0. -1.
         11    1    4    4    0    0  0.41693395724E-01 -0.13448129653E-01  0.86287908708E-01  0.96773218136E-01  0.51100000000E-03 0.  1.
</event>
<event>
 8    1  0.1163913E+005  0.1043930E+01  0.7957747E-01            NaN
         13   -1    0    0    0    0  0.00000000000E+00  0.00000000000E+00  0.74505805969E-08  0.10566000000E+00  0.10566000000E+00 0. -1.
     999900   -1    0    0    0    0 -0.00000000000E+00 -0.00000000000E+00 -0.74505805969E-08  0.93827000000E+00  0.93827000000E+00 0. -1.
     999902    2    1    2    0    0 -0.26811624911E-02  0.15175888469E-01  0.18029243867E-01  0.10202118665E+01  0.10199361268E+01 0.  0.
     999903    2    3    3    0    0 -0.43757689556E-01 -0.11352271336E+00 -0.34981532764E-01  0.12832580110E+00  0.21015750032E-01 0.  0.
         14    1    1    2    0    0  0.26811624911E-02 -0.15175888469E-01 -0.18029243867E-01  0.23718133518E-01  0.00000000000E+00 0.  1.
     999901    1    3    3    0    0  0.41076527065E-01  0.12869860183E+00  0.53010776631E-01  0.89188606538E+00  0.88000000000E+00 0. -1.
        -11    1    4    4    0    0 -0.99839986307E-02 -0.25891219174E-01 -0.17459816266E-01  0.32789354431E-01  0.51100000000E-03 0.  1.
         11    1    4    4    0    0 -0.33773690925E-01 -0.87631494184E-01 -0.17521716498E-01  0.95536446667E-01  0.51100000000E-03 0. -1.
</event>
<event>
 7    1  0.1163913E+005  0.1043930E+01  0.7957747E-01            NaN
         13   -1    0    0    0    0  0.00000000000E+00  0.00000000000E+00  0.74505805969E-08  0.10566000000E+00  0.10566000000E+00 0. -1.
     999900   -1    0    0    0    0 -0.00000000000E+00 -0.00000000000E+00 -0.74505805969E-08  0.93827000000E+00  0.93827000000E+00 0.  1.
     999903    2    1    2    0    0  0.10613318068E+00 -0.33624905730E-01  0.72024687001E-02  0.11404800282E+00  0.23668229010E-01 0.  0.
         14    1    1    2    0    0 -0.18316011453E-01  0.34979773736E-01 -0.22367161800E-01  0.45380070220E-01  0.00000000000E+00 0. -1.
     999901    1    1    2    0    0 -0.87817169230E-01 -0.13548680057E-02  0.15164693100E-01  0.88450192696E+00  0.88000000000E+00 0.  1.
        -11    1    3    3    0    0  0.68531570576E-01 -0.27788971469E-01 -0.48983903839E-02  0.74115170176E-01  0.51100000000E-03 0.  1.
         11    1    3    3    0    0  0.37601610108E-01 -0.58359342619E-02  0.12100859084E-01  0.39932832644E-01  0.51100000000E-03 0. -1.
</event>
<event>
 8    1  0.1163913E+005  0.1043930E+01  0.7957747E-01            NaN
         13   -1    0    0    0    0  0.00000000000E+00  0.00000000000E+00  0.74505805969E-08  0.10566000000E+00  0.10566000000E+00 0.  1.
     999900   -1    0    0    0    0 -0.00000000000E+00 -0.00000000000E+00 -0.74505805969E-08  0.93827000000E+00  0.93827000000E+00 0.  1.
     999902    2    1    2    0    0 -0.17283883161E-02 -0.18335442479E-01 -0.13848022400E-01  0.10208877887E+01  0.10206277155E+01 0.  0.
     999903    2    3    3    0    0  0.83009068430E-01 -0.89594323809E-01 -0.49030681535E-01  0.13325268110E+00  0.20847565527E-01 0.  0.
         14    1    1    2    0    0  0.17283883161E-02  0.18335442479E-01  0.13848022400E-01  0.23042211297E-01  0.00000000000E+00 0.  1.
     999901    1    3    3    0    0 -0.84737456746E-01  0.71258881330E-01  0.35182659135E-01  0.88763510760E+00  0.88000000000E+00 0. -1.
        -11    1    4    4    0    0  0.43106651745E-01 -0.55707681562E-01 -0.36872601282E-01  0.79507100664E-01  0.51100000000E-03 0. -1.
         11    1    4    4    0    0  0.39902416686E-01 -0.33886642247E-01 -0.12158080253E-01  0.53745580437E-01  0.51100000000E-03 0.  1.
</event>
<event>
 8    1  0.1163913E+005  0.1043930E+01  0.7957747E-01            NaN
         13   -1    0    0    0    0  0.00000000000E+00  0.00000000000E+00  0.74505805969E-08  0.10566000000E+00  0.10566000000E+00 0. -1.
     999900   -1    0    0    0    0 -0.00000000000E+00 -0.00000000000E+00 -0.74505805969E-08  0.93827000000E+00  0.93827000000E+00 0.  1.
     999902    2    1    2    0    0  0.22542401945E-01 -0.20587736777E-02 -0.66080060248E-02  0.10203489869E+01  0.10200764633E+01 0.  0.
     999903    2    3    3    0    0  0.10285805052E+00  0.65895663353E-01  0.47136453242E-01  0.13245435588E+00  0.20007352716E-01 0.  0.
         14    1    1    2    0    0 -0.22542401945E-01  0.20587736777E-02  0.66080060248E-02  0.23581013085E-01  0.00000000000E+00 0. -1.
     999901    1    3    3    0    0 -0.80315648572E-01 -0.67954437030E-01 -0.53744459267E-01  0.88789463103E+00  0.88000000000E+00 0.  1.
        -11    1    4    4    0    0  0.36640123466E-01  0.27604144960E-01  0.81410744923E-02  0.46594266616E-01  0.51100000000E-03 0. -1.
         11    1    4    4    0    0  0.66217927051E-01  0.38291518393E-01  0.38995378750E-01  0.85860089265E-01  0.51100000000E-03 0.  1.
</event>
<event>
 8    1  0.1163913E+005  0.1043930E+01  0.7957747E-01            NaN
         13   -1    0    0    0    0  0.00000000000E+00  0.00000000000E+00  0.74505805969E-08  0.10566000000E+00  0.10566000000E+00 0.  1.
     999900   -1    0    0    0    0 -0.00000000000E+00 -0.00000000000E+00 -0.74505805969E-08  0.93827000000E+00  0.93827000000E+00 0.  1.
     999902    2    1    2    0    0 -0.74410883719E-02 -0.20384007586E-01  0.27618104761E-02  0.10220552392E+01  0.10218211227E+01 0.  0.
     999903    2    3    3    0    0  0.76611822188E-01 -0.10156407600E+00  0.35784163242E-01  0.13371658137E+00  0.20371179660E-01 0.  0.
         14    1    1    2    0    0  0.74410883719E-02  0.20384007586E-01 -0.27618104761E-02  0.21874760765E-01  0.00000000000E+00 0.  1.
     999901    1    3    3    0    0 -0.84052910560E-01  0.81180068413E-01 -0.33022352766E-01  0.88833865787E+00  0.88000000000E+00 0.  1.
        -11    1    4    4    0    0  0.56652357572E-01 -0.70360439433E-01  0.16070100883E-01  0.91752876353E-01  0.51100000000E-03 0.  1.
         11    1    4    4    0    0  0.19959464617E-01 -0.31203636566E-01  0.19714062359E-01  0.41963705013E-01  0.51100000000E-03 0. -1.
</event>
<event>
 8    1  0.1163913E+005  0.1043930E+01  0.7957747E-01            NaN
         13   -1    0    0    0    0  0.00000000000E+00  0.00000000000E+00  0.74505805969E-08  0.10566000000E+00  0.10566000000E+00 0. -1.
     999900   -1    0    0    0    0 -0.00000000000E+00 -0.00000000000E+00 -0.74505805969E-08  0.93827000000E+00  0.93827000000E+00 0. -1.
     999902    2    1    2    0    0 -0.12841501250E-01  0.15471888499E-01 -0.10761923784E-01  0.10211242443E+01  0.10208695411E+01 0.  0.
     999903    2    3    3    0    0 -0.15207203467E-01  0.11480182530E+00  0.61369275405E-01  0.13260021945E+00  0.20147260473E-01 0.  0.
         14    1    1    2    0    0  0.12841501250E-01 -0.15471888499E-01  0.10761923784E-01  0.22805755668E-01  0.00000000000E+00 0. -1.
     999901    1    3    3    0    0  0.23657022172E-02 -0.99329936805E-01 -0.72131199189E-01  0.88852402488E+00  0.88000000000E+00 0.  1.
        -11    1    4    4    0    0 -0.41476847902E-02  0.18183922859E-01  0.18650836234E-01  0.26381303093E-01  0.51100000000E-03 0.  1.
         11    1    4    4    0    0 -0.11059518677E-01  0.96617902445E-01  0.42718439171E-01  0.10621891636E+00  0.51100000000E-03 0. -1.
</event>
<event>
 8    1  0.1163913E+005  0.1043930E+01  0.7957747E-01            NaN
         13   -1    0    0    0    0  0.00000000000E+00  0.00000000000E+00  0.74505805969E-08  0.10566000000E+00  0.10566000000E+00 0. -1.
     999900   -1    0    0    0    0 -0.00000000000E+00 -0.00000000000E+00 -0.74505805969E-08  0.93827000000E+00  0.93827000000E+00 0.  1.
     999902    2    1    2    0    0  0.28333578420E-01  0.19921813168E-01  0.12826989457E-01  0.10069948952E+01  0.10063173044E+01 0.  0.
     999903    2    3    3    0    0 -0.48481079803E-02  0.75148162175E-01 -0.89550094366E-01  0.11872013974E+00  0.20112228885E-01 0.  0.
         14    1    1    2    0    0 -0.28333578420E-01 -0.19921813168E-01 -0.12826989457E-01  0.36935104772E-01  0.00000000000E+00 0. -1.
     999901    1    3    3    0    0  0.33181686400E-01 -0.55226349007E-01  0.10237708382E+00  0.88827475548E+00  0.88000000000E+00 0.  1.
        -11    1    4    4    0    0  0.47023367846E-02  0.10843603468E-01 -0.21926985728E-01  0.24914845605E-01  0.51100000000E-03 0.  1.
         11    1    4    4    0    0 -0.95504447649E-02  0.64304558707E-01 -0.67623108638E-01  0.93805294139E-01  0.51100000000E-03 0. -1.
</event>
<event>
 8    1  0.1163913E+005  0.1043930E+01  0.7957747E-01            NaN
         13   -1    0    0    0    0  0.00000000000E+00  0.00000000000E+00  0.74505805969E-08  0.10566000000E+00  0.10566000000E+00 0.  1.
     999900   -1    0    0    0    0 -0.00000000000E+00 -0.00000000000E+00 -0.74505805969E-08  0.93827000000E+00  0.93827000000E+00 0.  1.
     999902    2    1    2    0    0  0.60946432887E-02  0.21031937222E-01 -0.91582500784E-02  0.10201947813E+01  0.10199186395E+01 0.  0.
     999903    2    3    3    0    0 -0.78872342818E-01  0.87965273947E-01 -0.56164010170E-01  0.13232711002E+00  0.19933191586E-01 0.  0.
         14    1    1    2    0    0 -0.60946432887E-02 -0.21031937222E-01  0.91582500784E-02  0.23735218656E-01  0.00000000000E+00 0.  1.
     999901    1    3    3    0    0  0.84966986107E-01 -0.66933336725E-01  0.47005760092E-01  0.88786767132E+00  0.88000000000E+00 0. -1.
        -11    1    4    4    0    0 -0.58694643259E-01  0.72288526295E-01 -0.36239924652E-01  0.99921396312E-01  0.51100000000E-03 0.  1.
         11    1    4    4    0    0 -0.20177699559E-01  0.15676747652E-01 -0.19924085519E-01  0.32405713712E-01  0.51100000000E-03 0. -1.
</event>
<event>
 8    1  0.1163913E+005  0.1043930E+01  0.7957747E-01            NaN
         13   -1    0    0    0    0  0.00000000000E+00  0.00000000000E+00  0.74505805969E-08  0.10566000000E+00  0.10566000000E+00 0. -1.
     999900   -1    0    0    0    0 -0.00000000000E+00 -0.00000000000E+00 -0.74505805969E-08  0.93827000000E+00  0.93827000000E+00 0.  1.
     999902    2    1    2    0    0 -0.25347695696E-01  0.12497893036E-01 -0.51104034391E-02  0.10152103337E+01  0.10148040217E+01 0.  0.
     999903    2    3    3    0    0 -0.94906255402E-01  0.18054555138E-01  0.81946887001E-01  0.12816566657E+00  0.19441746872E-01 0.  0.
         14    1    1    2    0    0  0.25347695696E-01 -0.12497893036E-01  0.51104034391E-02  0.28719666272E-01  0.00000000000E+00 0. -1.
     999901    1    3    3    0    0  0.69558559706E-01 -0.55566621018E-02 -0.87057290440E-01  0.88704466716E+00  0.88000000000E+00 0.  1.
        -11    1    4    4    0    0 -0.53293286365E-01  0.18800931955E-01  0.41383657839E-01  0.70046539323E-01  0.51100000000E-03 0. -1.
         11    1    4    4    0    0 -0.41612969037E-01 -0.74637681742E-03  0.40563229162E-01  0.58119127243E-01  0.51100000000E-03 0.  1.
</event>
<event>
 8    1  0.1163913E+005  0.1043930E+01  0.7957747E-01            NaN
         13   -1    0    0    0    0  0.00000000000E+00  0.00000000000E+00  0.74505805969E-08  0.10566000000E+00  0.10566000000E+00 0. -1.
     999900   -1    0    0    0    0 -0.00000000000E+00 -0.00000000000E+00 -0.74505805969E-08  0.93827000000E+00  0.93827000000E+00 0.  1.
     999902    2    1    2    0    0 -0.14691374676E-01  0.16180185360E-01  0.10095323624E-01  0.10198561460E+01  0.10195719730E+01 0.  0.
     999903    2    3    3    0    0 -0.37338642997E-01  0.10094427774E+00  0.75725421266E-01  0.13306126562E+00  0.19673319865E-01 0.  0.
         14    1    1    2    0    0  0.14691374676E-01 -0.16180185360E-01 -0.10095323624E-01  0.24073854017E-01  0.00000000000E+00 0.  1.
     999901    1    3    3    0    0  0.22647268320E-01 -0.84764092375E-01 -0.65630097641E-01  0.88679488036E+00  0.88000000000E+00 0.  1.
        -11    1    4    4    0    0 -0.18815769344E-01  0.76245215616E-01  0.54524916392E-01  0.95606452234E-01  0.51100000000E-03 0. -1.
         11    1    4    4    0    0 -0.18522873653E-01  0.24699062120E-01  0.21200504874E-01  0.37454813387E-01  0.51100000000E-03 0.  1.
</event>
<event>
 8    1  0.1163913E+005  0.1043930E+01  0.7957747E-01            NaN
         13   -1    0    0    0    0  0.00000000000E+00  0.00000000000E+00  0.74505805969E-08  0.10566000000E+00  0.10566000000E+00 0. -1.
     999900   -1    0    0    0    0 -0.00000000000E+00 -0.00000000000E+00 -0.74505805969E-08  0.93827000000E+00  0.93827000000E+00 0. -1.
     999902    2    1    2    0    0  0.95510738696E-02  0.19853874925E-01  0.82897482081E-02  0.10203902615E+01  0.10201187022E+01 0.  0.
     999903    2    3    3    0    0 -0.40987827821E-01 -0.86516166401E-01  0.83986511554E-01  0.12932417742E+00  0.22493547178E-01 0.  0.
         14    1    1    2    0    0 -0.95510738696E-02 -0.19853874925E-01 -0.82897482081E-02  0.23539738464E-01  0.00000000000E+00 0.  1.
     999901    1    3    3    0    0  0.50538901691E-01  0.10637004133E+00 -0.75696763346E-01  0.89106608411E+00  0.88000000000E+00 0. -1.
        -11    1    4    4    0    0 -0.24601387270E-01 -0.63877587689E-01  0.47311138559E-01  0.83211654336E-01  0.51100000000E-03 0. -1.
         11    1    4    4    0    0 -0.16386440551E-01 -0.22638578712E-01  0.36675372996E-01  0.46112523087E-01  0.51100000000E-03 0.  1.
</event>
<event>
 7    1  0.1163913E+005  0.1043930E+01  0.7957747E-01            NaN
         13   -1    0    0    0    0  0.00000000000E+00  0.00000000000E+00  0.74505805969E-08  0.10566000000E+00  0.10566000000E+00 0.  1.
     999900   -1    0    0    0    0 -0.00000000000E+00 -0.00000000000E+00 -0.74505805969E-08  0.93827000000E+00  0.93827000000E+00 0. -1.
     999903    2    1    2    0    0 -0.62819238433E-01  0.29203947669E-01  0.76348557727E-01  0.10505661752E+00  0.20215423317E-01 0.  0.
         14    1    1    2    0    0 -0.29432499972E-02  0.24106988894E-01  0.40397395518E-01  0.47135540717E-01  0.00000000000E+00 0.  1.
     999901    1    1    2    0    0  0.65762488430E-01 -0.53310936563E-01 -0.11674595325E+00  0.89173784177E+00  0.88000000000E+00 0. -1.
        -11    1    3    3    0    0 -0.69341010354E-02  0.94586390668E-02  0.63948794399E-02  0.13367992153E-01  0.51100000000E-03 0. -1.
         11    1    3    3    0    0 -0.55885137397E-01  0.19745308602E-01  0.69953678288E-01  0.91688625362E-01  0.51100000000E-03 0.  1.
</event>
<event>
 8    1  0.1163913E+005  0.1043930E+01  0.7957747E-01            NaN
         13   -1    0    0    0    0  0.00000000000E+00  0.00000000000E+00  0.74505805969E-08  0.10566000000E+00  0.10566000000E+00 0.  1.
     999900   -1    0    0    0    0 -0.00000000000E+00 -0.00000000000E+00 -0.74505805969E-08  0.93827000000E+00  0.93827000000E+00 0. -1.
     999902    2    1    2    0    0 -0.32104795612E-02 -0.48428952015E-02  0.25222755670E-01  0.10180466421E+01  0.10177175528E+01 0.  0.
     999903    2    3    3    0    0  0.62978710034E-01  0.42997278932E-01  0.10409654413E+00  0.13075257270E+00  0.21096465441E-01 0.  0.
         14    1    1    2    0    0  0.32104795612E-02  0.48428952015E-02 -0.25222755670E-01  0.25883357907E-01  0.00000000000E+00 0. -1.
     999901    1    3    3    0    0 -0.66189189596E-01 -0.47840174133E-01 -0.78873788458E-01  0.88729406940E+00  0.88000000000E+00 0. -1.
        -11    1    4    4    0    0 -0.30960607483E-04 -0.16249785940E-02  0.39138565131E-02  0.42685955296E-02  0.51100000000E-03 0.  1.
         11    1    4    4    0    0  0.63009670642E-01  0.44622257526E-01  0.10018268762E+00  0.12648397717E+00  0.51100000000E-03 0. -1.
</event>
<event>
 8    1  0.1163913E+005  0.1043930E+01  0.7957747E-01            NaN
         13   -1    0    0    0    0  0.00000000000E+00  0.00000000000E+00  0.74505805969E-08  0.10566000000E+00  0.10566000000E+00 0. -1.
     999900   -1    0    0    0    0 -0.00000000000E+00 -0.00000000000E+00 -0.74505805969E-08  0.93827000000E+00  0.93827000000E+00 0.  1.
     999902    2    1    2    0    0  0.21799782163E-01 -0.57053675065E-02  0.91045137069E-02  0.10196262165E+01  0.10193365232E+01 0.  0.
     999903    2    3    3    0    0 -0.42129986430E-01  0.74305697240E-01  0.95204230483E-01  0.12951277038E+00  0.20333218924E-01 0.  0.
         14    1    1    2    0    0 -0.21799782163E-01  0.57053675065E-02 -0.91045137069E-02  0.24303783462E-01  0.00000000000E+00 0.  1.
     999901    1    3    3    0    0  0.63929768593E-01 -0.80011064746E-01 -0.86099716777E-01  0.89011344615E+00  0.88000000000E+00 0.  1.
        -11    1    4    4    0    0 -0.35333428384E-01  0.63325847119E-01  0.68080793072E-01  0.99467932426E-01  0.51100000000E-03 0. -1.
         11    1    4    4    0    0 -0.67965580461E-02  0.10979850120E-01  0.27123437412E-01  0.30044837959E-01  0.51100000000E-03 0.  1.
</event>
<event>
 8    1  0.1163913E+005  0.1043930E+01  0.7957747E-01            NaN
         13   -1    0    0    0    0  0.00000000000E+00  0.00000000000E+00  0.74505805969E-08  0.10566000000E+00  0.10566000000E+00 0. -1.
     999900   -1    0    0    0    0 -0.00000000000E+00 -0.00000000000E+00 -0.74505805969E-08  0.93827000000E+00  0.93827000000E+00 0.  1.
     999902    2    1    2    0    0 -0.13089830868E-02 -0.54837736639E-02 -0.22995454927E-01  0.10202535104E+01  0.10199787495E+01 0.  0.
     999903    2    3    3    0    0  0.10393884186E+00  0.68184563181E-01  0.28565605890E-01  0.12943216388E+00  0.22006219630E-01 0.  0.
         14    1    1    2    0    0  0.13089830868E-02  0.54837736639E-02  0.22995454927E-01  0.23676489555E-01  0.00000000000E+00 0. -1.
     999901    1    3    3    0    0 -0.10524782495E+00 -0.73668336845E-01 -0.51561060818E-01  0.89082134657E+00  0.88000000000E+00 0. -1.
        -11    1    4    4    0    0  0.73994912704E-01  0.36103267784E-01  0.17569955910E-01  0.84188226745E-01  0.51100000000E-03 0.  1.
         11    1    4    4    0    0  0.29943929157E-01  0.32081295398E-01  0.10995649980E-01  0.45243937132E-01  0.51100000000E-03 0. -1.
</event>
<event>
 8    1  0.1163913E+005  0.1043930E+01  0.7957747E-01            NaN
         13   -1    0    0    0    0  0.00000000000E+00  0.00000000000E+00  0.74505805969E-08  0.10566000000E+00  0.10566000000E+00 0. -1.
     999900   -1    0    0    0    0 -0.00000000000E+00 -0.00000000000E+00 -0.74505805969E-08  0.93827000000E+00  0.93827000000E+00 0. -1.
     999902    2    1    2    0    0  0.77037368838E-02 -0.32518335025E-02 -0.22727387657E-01  0.10197131436E+01  0.10194255437E+01 0.  0.
     999903    2    3    3    0    0 -0.51020090335E-01 -0.30128601017E-02  0.11418670898E+00  0.12719198709E+00  0.22958007953E-01 0.  0.
         14    1    1    2    0    0 -0.77037368838E-02  0.32518335025E-02  0.22727387657E-01  0.24216856377E-01  0.00000000000E+00 0. -1.
     999901    1    3    3    0    0  0.58723827219E-01 -0.23897340088E-03 -0.13691409664E+00  0.89252115653E+00  0.88000000000E+00 0. -1.
        -11    1    4    4    0    0 -0.29315230229E-01 -0.11638880027E-01  0.77790352985E-01  0.83943114013E-01  0.51100000000E-03 0. -1.
         11    1    4    4    0    0 -0.21704860106E-01  0.86260199256E-02  0.36396355997E-01  0.43248873082E-01  0.51100000000E-03 0.  1.
</event>
<event>
 8    1  0.1163913E+005  0.1043930E+01  0.7957747E-01            NaN
         13   -1    0    0    0    0  0.00000000000E+00  0.00000000000E+00  0.74505805969E-08  0.10566000000E+00  0.10566000000E+00 0. -1.
     999900   -1    0    0    0    0 -0.00000000000E+00 -0.00000000000E+00 -0.74505805969E-08  0.93827000000E+00  0.93827000000E+00 0. -1.
     999902    2    1    2    0    0 -0.56042844254E-02  0.12387688207E-01  0.19249443975E-01  0.10203629909E+01  0.10200907947E+01 0.  0.
     999903    2    3    3    0    0  0.12338248052E+00  0.36911099145E-01 -0.48952001713E-02  0.13029448399E+00  0.19157866085E-01 0.  0.
         14    1    1    2    0    0  0.56042844254E-02 -0.12387688207E-01 -0.19249443975E-01  0.23567009068E-01  0.00000000000E+00 0.  1.
     999901    1    3    3    0    0 -0.12898676495E+00 -0.24523410937E-01  0.24144644146E-01  0.89006850695E+00  0.88000000000E+00 0. -1.
        -11    1    4    4    0    0  0.89310076577E-01  0.35267047568E-01 -0.54096094671E-02  0.96174733781E-01  0.51100000000E-03 0. -1.
         11    1    4    4    0    0  0.34072403945E-01  0.16440515769E-02  0.51440929579E-03  0.34119750206E-01  0.51100000000E-03 0.  1.
</event>
<event>
 8    1  0.1423693E+005  0.1043930E+01  0.7957747E-01            NaN
         13   -1    0    0    0    0  0.00000000000E+00  0.00000000000E+00  0.74505805969E-08  0.10566000000E+00  0.10566000000E+00 0. -1.
     999900   -1    0    0    0    0 -0.00000000000E+00 -0.00000000000E+00 -0.74505805969E-08  0.93827000000E+00  0.93827000000E+00 0.  1.
     999902    2    1    2    0    0 -0.10984993551E-01  0.29903344925E-02  0.20343126687E-01  0.10206178790E+01  0.10203516060E+01 0.  0.
     999903    2    3    3    0    0 -0.71024548784E-01  0.10448278363E+00  0.34774254789E-01  0.13263492706E+00  0.20533788602E-01 0.  0.
         14    1    1    2    0    0  0.10984993551E-01 -0.29903344925E-02 -0.20343126687E-01  0.23312121034E-01  0.00000000000E+00 0.  1.
     999901    1    3    3    0    0  0.60039555233E-01 -0.10149244914E+00 -0.14431128102E-01  0.88798295191E+00  0.88000000000E+00 0. -1.
        -11    1    4    4    0    0 -0.27680132197E-01  0.57906562146E-01  0.21020734450E-01  0.67538818880E-01  0.51100000000E-03 0. -1.
         11    1    4    4    0    0 -0.43344416587E-01  0.46576221483E-01  0.13753520339E-01  0.65096108176E-01  0.51100000000E-03 0.  1.
</event>
<event>
 8    1  0.1163913E+005  0.1043930E+01  0.7957747E-01            NaN
         13   -1    0    0    0    0  0.00000000000E+00  0.00000000000E+00  0.74505805969E-08  0.10566000000E+00  0.10566000000E+00 0. -1.
     999900   -1    0    0    0    0 -0.00000000000E+00 -0.00000000000E+00 -0.74505805969E-08  0.93827000000E+00  0.93827000000E+00 0.  1.
     999902    2    1    2    0    0  0.23258305970E-02  0.20146873549E-01 -0.12169324494E-01  0.10202783941E+01  0.10200042172E+01 0.  0.
     999903    2    3    3    0    0  0.83467841853E-01  0.76618118694E-01  0.63836455301E-01  0.13148713287E+00  0.19405059903E-01 0.  0.
         14    1    1    2    0    0 -0.23258305970E-02 -0.20146873549E-01  0.12169324494E-01  0.23651605874E-01  0.00000000000E+00 0. -1.
     999901    1    3    3    0    0 -0.81142011256E-01 -0.56471245144E-01 -0.76005779795E-01  0.88879126125E+00  0.88000000000E+00 0.  1.
        -11    1    4    4    0    0  0.42508203714E-01  0.50628733686E-01  0.31873230812E-01  0.73391961556E-01  0.51100000000E-03 0. -1.
         11    1    4    4    0    0  0.40959638139E-01  0.25989385008E-01  0.31963224489E-01  0.58095171316E-01  0.51100000000E-03 0.  1.
</event>
<event>
 8    1  0.1163913E+005  0.1043930E+01  0.7957747E-01            NaN
         13   -1    0    0    0    0  0.00000000000E+00  0.00000000000E+00  0.74505805969E-08  0.10566000000E+00  0.10566000000E+00 0.  1.
     999900   -1    0    0    0    0 -0.00000000000E+00 -0.00000000000E+00 -0.74505805969E-08  0.93827000000E+00  0.93827000000E+00 0. -1.
     999902    2    1    2    0    0 -0.15265924682E-02 -0.62562271968E-02 -0.22437520084E-01  0.10205866247E+01  0.10203196290E+01 0.  0.
     999903    2    3    3    0    0  0.41977454273E-01  0.11932431935E+00 -0.24660182727E-01  0.13060459342E+00  0.21190454314E-01 0.  0.
         14    1    1    2    0    0  0.15265924682E-02  0.62562271968E-02  0.22437520084E-01  0.23343375309E-01  0.00000000000E+00 0.  1.
     999901    1    3    3    0    0 -0.43504046741E-01 -0.12558054655E+00  0.22226626427E-02  0.88998203127E+00  0.88000000000E+00 0.  1.
        -11    1    4    4    0    0  0.30155489688E-01  0.87502693442E-01 -0.83234527843E-02  0.92928014641E-01  0.51100000000E-03 0. -1.
         11    1    4    4    0    0  0.11821964585E-01  0.31821625912E-01 -0.16336729943E-01  0.37676578779E-01  0.51100000000E-03 0.  1.
</event>
<event>
 8    1  0.1163913E+005  0.1043930E+01  0.7957747E-01            NaN
         13   -1    0    0    0    0  0.00000000000E+00  0.00000000000E+00  0.74505805969E-08  0.10566000000E+00  0.10566000000E+00 0. -1.
     999900   -1    0    0    0    0 -0.00000000000E+00 -0.00000000000E+00 -0.74505805969E-08  0.93827000000E+00  0.93827000000E+00 0. -1.
     999902    2    1    2    0    0 -0.10902149434E-02 -0.23115994978E-01 -0.75252093810E-02  0.10195955272E+01  0.10193050929E+01 0.  0.
     999903    2    3    3    0    0  0.10894660074E+00  0.38666960575E-01 -0.54305657622E-01  0.12936317280E+00  0.20523897619E-01 0.  0.
         14    1    1    2    0    0  0.10902149434E-02  0.23115994978E-01  0.75252093810E-02  0.24334472846E-01  0.00000000000E+00 0. -1.
     999901    1    3    3    0    0 -0.11003681569E+00 -0.61782955554E-01  0.46780448241E-01  0.89023235436E+00  0.88000000000E+00 0. -1.
        -11    1    4    4    0    0  0.54090295594E-01  0.29016442535E-01 -0.23639551728E-01  0.65778442834E-01  0.51100000000E-03 0.  1.
         11    1    4    4    0    0  0.54856305148E-01  0.96505180405E-02 -0.30666105895E-01  0.63584729965E-01  0.51100000000E-03 0. -1.
</event>
<event>
 8    1  0.1163913E+005  0.1043930E+01  0.7957747E-01            NaN
         13   -1    0    0    0    0  0.00000000000E+00  0.00000000000E+00  0.74505805969E-08  0.10566000000E+00  0.10566000000E+00 0.  1.
     999900   -1    0    0    0    0 -0.00000000000E+00 -0.00000000000E+00 -0.74505805969E-08  0.93827000000E+00  0.93827000000E+00 0.  1.
     999902    2    1    2    0    0  0.11281903895E-03  0.23596637254E-01  0.31701540614E-02  0.10201210963E+01  0.10198432170E+01 0.  0.
     999903    2    3    3    0    0  0.50622579333E-01  0.95978793770E-01 -0.73248365089E-01  0.13241044383E+00  0.19814849364E-01 0.  0.
         14    1    1    2    0    0 -0.11281903895E-03 -0.23596637254E-01 -0.31701540614E-02  0.23808903683E-01  0.00000000000E+00 0. -1.
     999901    1    3    3    0    0 -0.50509760294E-01 -0.72382156516E-01  0.76418519151E-01  0.88771065249E+00  0.88000000000E+00 0.  1.
        -11    1    4    4    0    0  0.35158958442E-01  0.47181452837E-01 -0.34535517962E-01  0.68229062521E-01  0.51100000000E-03 0.  1.
         11    1    4    4    0    0  0.15463620892E-01  0.48797340933E-01 -0.38712847127E-01  0.64181381310E-01  0.51100000000E-03 0. -1.
</event>
<event>
 8    1  0.1163913E+005  0.1043930E+01  0.7957747E-01            NaN
         13   -1    0    0    0    0  0.00000000000E+00  0.00000000000E+00  0.74505805969E-08  0.10566000000E+00  0.10566000000E+00 0.  1.
     999900   -1    0    0    0    0 -0.00000000000E+00 -0.00000000000E+00 -0.74505805969E-08  0.93827000000E+00  0.93827000000E+00 0. -1.
     999902    2    1    2    0    0  0.22680912973E-01 -0.21259475436E-02 -0.22356690634E-02  0.10210402276E+01  0.10207836228E+01 0.  0.
     999903    2    3    3    0    0 -0.28350252970E-01 -0.12083275395E+00  0.36199174199E-01  0.13077469247E+00  0.19681176511E-01 0.  0.
         14    1    1    2    0    0 -0.22680912973E-01  0.21259475436E-02  0.22356690634E-02  0.22889772441E-01  0.00000000000E+00 0.  1.
     999901    1    3    3    0    0  0.51031165943E-01  0.11870680640E+00 -0.38434843263E-01  0.89026553509E+00  0.88000000000E+00 0.  1.
        -11    1    4    4    0    0  0.87272805125E-03 -0.31743772550E-01  0.64568777012E-02  0.32409584085E-01  0.51100000000E-03 0.  1.
         11    1    4    4    0    0 -0.29222981021E-01 -0.89088981398E-01  0.29742296498E-01  0.98365108388E-01  0.51100000000E-03 0. -1.
</event>
<event>
 8    1  0.1163913E+005  0.1043930E+01  0.7957747E-01            NaN
         13   -1    0    0    0    0  0.00000000000E+00  0.00000000000E+00  0.74505805969E-08  0.10566000000E+00  0.10566000000E+00 0.  1.
     999900   -1    0    0    0    0 -0.00000000000E+00 -0.00000000000E+00 -0.74505805969E-08  0.93827000000E+00  0.93827000000E+00 0.  1.
     999902    2    1    2    0    0 -0.11507614981E-02 -0.88904203722E-02 -0.24003490626E-01  0.10183071315E+01  0.10179847164E+01 0.  0.
     999903    2    3    3    0    0  0.55543269615E-01  0.11069770415E+00 -0.15410454939E-01  0.12836928373E+00  0.30035884860E-01 0.  0.
         14    1    1    2    0    0  0.11507614981E-02  0.88904203722E-02  0.24003490626E-01  0.25622868471E-01  0.00000000000E+00 0.  1.
     999901    1    3    3    0    0 -0.56694031114E-01 -0.11958812452E+00 -0.85930356878E-02  0.88993784780E+00  0.88000000000E+00 0.  1.
        -11    1    4    4    0    0  0.42569270695E-01  0.10250726664E+00 -0.18982588343E-01  0.11260764763E+00  0.51100000000E-03 0. -1.
         11    1    4    4    0    0  0.12973998921E-01  0.81904375048E-02  0.35721334043E-02  0.15761636101E-01  0.51100000000E-03 0.  1.
</event>
<event>
 8    1  0.1163913E+005  0.1043930E+01  0.7957747E-01            NaN
         13   -1    0    0    0    0  0.00000000000E+00  0.00000000000E+00  0.74505805969E-08  0.10566000000E+00  0.10566000000E+00 0.  1.
     999900   -1    0    0    0    0 -0.00000000000E+00 -0.00000000000E+00 -0.74505805969E-08  0.93827000000E+00  0.93827000000E+00 0.  1.
     999902    2    1    2    0    0 -0.24378120609E-01 -0.78622315172E-02  0.19699344933E-02  0.10182397666E+01  0.10179156322E+01 0.  0.
     999903    2    3    3    0    0  0.60363173291E-01  0.63155742963E-01 -0.89417074484E-01  0.12662537408E+00  0.20154691564E-01 0.  0.
         14    1    1    2    0    0  0.24378120609E-01  0.78622315172E-02 -0.19699344933E-02  0.25690233373E-01  0.00000000000E+00 0. -1.
     999901    1    3    3    0    0 -0.84741293900E-01 -0.71017974480E-01  0.91387008978E-01  0.89161439255E+00  0.88000000000E+00 0. -1.
        -11    1    4    4    0    0  0.20187312242E-01  0.30211591080E-01 -0.47858024968E-01  0.60090926819E-01  0.51100000000E-03 0. -1.
         11    1    4    4    0    0  0.40175861049E-01  0.32944151883E-01 -0.41559049516E-01  0.66534447258E-01  0.51100000000E-03 0.  1.
</event>
<event>
 8    1  0.1163913E+005  0.1043930E+01  0.7957747E-01            NaN
         13   -1    0    0    0    0  0.00000000000E+00  0.00000000000E+00  0.74505805969E-08  0.10566000000E+00  0.10566000000E+00 0. -1.
     999900   -1    0    0    0    0 -0.00000000000E+00 -0.00000000000E+00 -0.74505805969E-08  0.93827000000E+00  0.93827000000E+00 0. -1.
     999902    2    1    2    0    0 -0.23951132245E-01 -0.49265051168E-03 -0.13971365298E-02  0.10199330954E+01  0.10196507577E+01 0.  0.
     999903    2    3    3    0    0  0.30567585241E-01 -0.12055357755E+00 -0.30922712733E-01  0.12961928756E+00  0.19426868464E-01 0.  0.
         14    1    1    2    0    0  0.23951132245E-01  0.49265051168E-03  0.13971365298E-02  0.23996904609E-01  0.00000000000E+00 0. -1.
     999901    1    3    3    0    0 -0.54518717486E-01  0.12006092704E+00  0.29525576203E-01  0.89031380783E+00  0.88000000000E+00 0.  1.
        -11    1    4    4    0    0  0.15736263987E-01 -0.30609089907E-01 -0.45489835192E-02  0.34720322021E-01  0.51100000000E-03 0.  1.
         11    1    4    4    0    0  0.14831321254E-01 -0.89944487642E-01 -0.26373729214E-01  0.94898965543E-01  0.51100000000E-03 0. -1.
</event>
<event>
 8    1  0.1163913E+005  0.1043930E+01  0.7957747E-01            NaN
         13   -1    0    0    0    0  0.00000000000E+00  0.00000000000E+00  0.74505805969E-08  0.10566000000E+00  0.10566000000E+00 0. -1.
     999900   -1    0    0    0    0 -0.00000000000E+00 -0.00000000000E+00 -0.74505805969E-08  0.93827000000E+00  0.93827000000E+00 0. -1.
     999902    2    1    2    0    0  0.13069558386E-04 -0.10971558443E-01 -0.19591802615E-01  0.10214752901E+01  0.10212284536E+01 0.  0.
     999903    2    3    3    0    0  0.11737565292E+00 -0.23451162151E-01  0.49247375065E-01  0.13093132779E+00  0.19766328504E-01 0.  0.
         14    1    1    2    0    0 -0.13069558386E-04  0.10971558443E-01  0.19591802615E-01  0.22454709867E-01  0.00000000000E+00 0. -1.
     999901    1    3    3    0    0 -0.11736258336E+00  0.12479603708E-01 -0.68839177680E-01  0.89054396234E+00  0.88000000000E+00 0. -1.
        -11    1    4    4    0    0  0.21348056499E-01  0.59996782163E-03  0.26784495040E-02  0.21529855792E-01  0.51100000000E-03 0.  1.
         11    1    4    4    0    0  0.96027596417E-01 -0.24051129972E-01  0.46568925561E-01  0.10940147200E+00  0.51100000000E-03 0. -1.
</event>
<event>
 8    1  0.1163913E+005  0.1043930E+01  0.7957747E-01            NaN
         13   -1    0    0    0    0  0.00000000000E+00  0.00000000000E+00  0.74505805969E-08  0.10566000000E+00  0.10566000000E+00 0.  1.
     999900   -1    0    0    0    0 -0.00000000000E+00 -0.00000000000E+00 -0.74505805969E-08  0.93827000000E+00  0.93827000000E+00 0.  1.
     999902    2    1    2    0    0 -0.16499996415E-01  0.16208726085E-01 -0.10369137167E-01  0.10185825802E+01  0.10182671462E+01 0.  0.
     999903    2    3    3    0    0  0.41051366155E-02  0.10910901165E+00  0.67850920673E-01  0.13000314540E+00  0.19376320838E-01 0.  0.
         14    1    1    2    0    0  0.16499996415E-01 -0.16208726085E-01  0.10369137167E-01  0.25347419762E-01  0.00000000000E+00 0. -1.
     999901    1    3    3    0    0 -0.20605133030E-01 -0.92900285562E-01 -0.78220057840E-01  0.88857943484E+00  0.88000000000E+00 0.  1.
        -11    1    4    4    0    0 -0.35125181746E-02  0.57441006025E-01  0.44711073752E-01  0.72877624784E-01  0.51100000000E-03 0. -1.
         11    1    4    4    0    0  0.76176547901E-02  0.51668005622E-01  0.23139846921E-01  0.57125520619E-01  0.51100000000E-03 0.  1.
</event>
<event>
 8    1  0.1163913E+005  0.1043930E+01  0.7957747E-01            NaN
         13   -1    0    0    0    0  0.00000000000E+00  0.00000000000E+00  0.74505805969E-08  0.10566000000E+00  0.10566000000E+00 0. -1.
     999900   -1    0    0    0    0 -0.00000000000E+00 -0.00000000000E+00 -0.74505805969E-08  0.93827000000E+00  0.93827000000E+00 0.  1.
     999902    2    1    2    0    0  0.34142377228E-02  0.20523425237E-01 -0.17759939024E-01  0.10165752301E+01  0.10162071221E+01 0.  0.
     999903    2    3    3    0    0  0.60078234197E-02  0.10109160347E+00  0.75264952695E-01  0.12800807534E+00  0.21578878867E-01 0.  0.
         14    1    1    2    0    0 -0.34142377228E-02 -0.20523425237E-01  0.17759939024E-01  0.27354769910E-01  0.00000000000E+00 0. -1.
     999901    1    3    3    0    0 -0.25935856970E-02 -0.80568178229E-01 -0.93024891719E-01  0.88856715475E+00  0.88000000000E+00 0.  1.
        -11    1    4    4    0    0  0.13991011274E-01  0.69898227300E-01  0.49913100740E-01  0.87023498680E-01  0.51100000000E-03 0. -1.
         11    1    4    4    0    0 -0.79831878547E-02  0.31193376166E-01  0.25351851956E-01  0.40984576655E-01  0.51100000000E-03 0.  1.
</event>
<event>
 8    1  0.1239711E+005  0.1043930E+01  0.7957747E-01            NaN
         13   -1    0    0    0    0  0.00000000000E+00  0.00000000000E+00  0.74505805969E-08  0.10566000000E+00  0.10566000000E+00 0.  1.
     999900   -1    0    0    0    0 -0.00000000000E+00 -0.00000000000E+00 -0.74505805969E-08  0.93827000000E+00  0.93827000000E+00 0.  1.
     999902    2    1    2    0    0 -0.81837781952E-02  0.15302583306E-01 -0.15698564680E-01  0.10205293971E+01  0.10202610755E+01 0.  0.
     999903    2    3    3    0    0  0.32363222151E-01  0.93304310044E-01 -0.87232481673E-01  0.13326087527E+00  0.19896798704E-01 0.  0.
         14    1    1    2    0    0  0.81837781952E-02 -0.15302583306E-01  0.15698564680E-01  0.23400602864E-01  0.00000000000E+00 0.  1.
     999901    1    3    3    0    0 -0.40547000346E-01 -0.78001726738E-01  0.71533916993E-01  0.88726852186E+00  0.88000000000E+00 0. -1.
        -11    1    4    4    0    0  0.15398250159E-02  0.31654152824E-01 -0.24517035018E-01  0.40071218837E-01  0.51100000000E-03 0. -1.
         11    1    4    4    0    0  0.30823397135E-01  0.61650157220E-01 -0.62715446655E-01  0.93189656435E-01  0.51100000000E-03 0.  1.
</event>
<event>
 8    1  0.1163913E+005  0.1043930E+01  0.7957747E-01            NaN
         13   -1    0    0    0    0  0.00000000000E+00  0.00000000000E+00  0.74505805969E-08  0.10566000000E+00  0.10566000000E+00 0. -1.
     999900   -1    0    0    0    0 -0.00000000000E+00 -0.00000000000E+00 -0.74505805969E-08  0.93827000000E+00  0.93827000000E+00 0. -1.
     999902    2    1    2    0    0 -0.21041397058E-01  0.57976357024E-02 -0.10101752636E-01  0.10198800857E+01  0.10195964844E+01 0.  0.
     999903    2    3    3    0    0  0.10703732190E-01 -0.12522208280E+00  0.20445967838E-01  0.12908994036E+00  0.21237589237E-01 0.  0.
         14    1    1    2    0    0  0.21041397058E-01 -0.57976357024E-02  0.10101752636E-01  0.24049914267E-01  0.00000000000E+00 0. -1.
     999901    1    3    3    0    0 -0.31745129248E-01  0.13101971851E+00 -0.30547720474E-01  0.89079014537E+00  0.88000000000E+00 0. -1.
        -11    1    4    4    0    0  0.16131999708E-01 -0.64804883699E-01  0.11642557365E-01  0.67791774049E-01  0.51100000000E-03 0.  1.
         11    1    4    4    0    0 -0.54282675189E-02 -0.60417199106E-01  0.88034104730E-02  0.61298166310E-01  0.51100000000E-03 0. -1.
</event>
<event>
 8    1  0.1163913E+005  0.1043930E+01  0.7957747E-01            NaN
         13   -1    0    0    0    0  0.00000000000E+00  0.00000000000E+00  0.74505805969E-08  0.10566000000E+00  0.10566000000E+00 0. -1.
     999900   -1    0    0    0    0 -0.00000000000E+00 -0.00000000000E+00 -0.74505805969E-08  0.93827000000E+00  0.93827000000E+00 0. -1.
     999902    2    1    2    0    0 -0.76929590002E-02 -0.14876047153E-01 -0.18113268076E-01  0.10192608112E+01  0.10189622330E+01 0.  0.
     999903    2    3    3    0    0 -0.23014448458E-01 -0.11119632458E+00  0.60932466940E-01  0.13035104516E+00  0.19604642555E-01 0.  0.
         14    1    1    2    0    0  0.76929590002E-02  0.14876047153E-01  0.18113268076E-01  0.24669188829E-01  0.00000000000E+00 0. -1.
     999901    1    3    3    0    0  0.15321489458E-01  0.96320277425E-01 -0.79045735017E-01  0.88890976601E+00  0.88000000000E+00 0. -1.
        -11    1    4    4    0    0 -0.26019059580E-01 -0.86103097042E-01  0.48083179766E-01  0.10199503948E+00  0.51100000000E-03 0. -1.
         11    1    4    4    0    0  0.30046111215E-02 -0.25093227536E-01  0.12849287175E-01  0.28356005679E-01  0.51100000000E-03 0.  1.
</event>
<event>
 8    1  0.1163913E+005  0.1043930E+01  0.7957747E-01            NaN
         13   -1    0    0    0    0  0.00000000000E+00  0.00000000000E+00  0.74505805969E-08  0.10566000000E+00  0.10566000000E+00 0. -1.
     999900   -1    0    0    0    0 -0.00000000000E+00 -0.00000000000E+00 -0.74505805969E-08  0.93827000000E+00  0.93827000000E+00 0.  1.
     999902    2    1    2    0    0 -0.76148996714E-03  0.22460424715E-01  0.92551397355E-02  0.10196255116E+01  0.10193358013E+01 0.  0.
     999903    2    3    3    0    0 -0.27524662370E-01  0.79525860801E-01 -0.99673283020E-01  0.13067211986E+00  0.76465668560E-02 0.  0.
         14    1    1    2    0    0  0.76148996714E-03 -0.22460424715E-01 -0.92551397355E-02  0.24304488410E-01  0.00000000000E+00 0.  1.
     999901    1    3    3    0    0  0.26763172403E-01 -0.57065436086E-01  0.10892842276E+00  0.88895339173E+00  0.88000000000E+00 0. -1.
        -11    1    4    4    0    0 -0.24390874520E-02  0.49805673719E-02 -0.42196215858E-02  0.69872402472E-02  0.51100000000E-03 0.  1.
         11    1    4    4    0    0 -0.25085574918E-01  0.74545293429E-01 -0.95453661434E-01  0.12368487961E+00  0.51100000000E-03 0. -1.
</event>
<event>
 8    1  0.1163913E+005  0.1043930E+01  0.7957747E-01            NaN
         13   -1    0    0    0    0  0.00000000000E+00  0.00000000000E+00  0.74505805969E-08  0.10566000000E+00  0.10566000000E+00 0.  1.
     999900   -1    0    0    0    0 -0.00000000000E+00 -0.00000000000E+00 -0.74505805969E-08  0.93827000000E+00  0.93827000000E+00 0. -1.
     999902    2    1    2    0    0  0.16378939587E-01  0.14296595811E-01  0.88871372386E-02  0.10204429073E+01  0.10201725754E+01 0.  0.
     999903    2    3    3    0    0  0.81680093112E-01  0.61902179774E-02 -0.10061059083E+00  0.13121869125E+00  0.19644274931E-01 0.  0.
         14    1    1    2    0    0 -0.16378939587E-01 -0.14296595811E-01 -0.88871372386E-02  0.23487092669E-01  0.00000000000E+00 0.  1.
     999901    1    3    3    0    0 -0.65301153525E-01  0.81063778335E-02  0.10949772806E+00  0.88922421608E+00  0.88000000000E+00 0.  1.
        -11    1    4    4    0    0  0.27462241462E-02 -0.37409190216E-02 -0.51176036702E-02  0.69272801670E-02  0.51100000000E-03 0.  1.
         11    1    4    4    0    0  0.78933868966E-01  0.99311369990E-02 -0.95492987156E-01  0.12429141108E+00  0.51100000000E-03 0. -1.
</event>
<event>
 8    1  0.1163913E+005  0.1043930E+01  0.7957747E-01            NaN
         13   -1    0    0    0    0  0.00000000000E+00  0.00000000000E+00  0.74505805969E-08  0.10566000000E+00  0.10566000000E+00 0. -1.
     999900   -1    0    0    0    0 -0.00000000000E+00 -0.00000000000E+00 -0.74505805969E-08  0.93827000000E+00  0.93827000000E+00 0. -1.
     999902    2    1    2    0    0  0.12474295687E-01  0.20951772654E-01  0.27227367901E-02  0.10193943499E+01  0.10190990347E+01 0.  0.
     999903    2    3    3    0    0 -0.12169995250E+00 -0.26584847835E-01  0.20754949595E-01  0.12777356736E+00  0.19434094024E-01 0.  0.
         14    1    1    2    0    0 -0.12474295687E-01 -0.20951772654E-01 -0.27227367901E-02  0.24535650100E-01  0.00000000000E+00 0. -1.
     999901    1    3    3    0    0  0.13417424818E+00  0.47536620489E-01 -0.18032212805E-01  0.89162078254E+00  0.88000000000E+00 0. -1.
        -11    1    4    4    0    0 -0.69436900779E-01 -0.52919449192E-02  0.11498449220E-01  0.70583024349E-01  0.51100000000E-03 0.  1.
         11    1    4    4    0    0 -0.52263051717E-01 -0.21292902916E-01  0.92565003754E-02  0.57190543008E-01  0.51100000000E-03 0. -1.
</event>
<event>
 8    1  0.1163913E+005  0.1043930E+01  0.7957747E-01            NaN
         13   -1    0    0    0    0  0.00000000000E+00  0.00000000000E+00  0.74505805969E-08  0.10566000000E+00  0.10566000000E+00 0. -1.
     999900   -1    0    0    0    0 -0.00000000000E+00 -0.00000000000E+00 -0.74505805969E-08  0.93827000000E+00  0.93827000000E+00 0.  1.
     999902    2    1    2    0    0 -0.20863951451E-01 -0.30390928956E-02  0.76640556430E-02  0.10214961349E+01  0.10212497614E+01 0.  0.
     999903    2    3    3    0    0 -0.82872930670E-01 -0.45497426650E-01 -0.90975073747E-01  0.13280186716E+00  0.20541017724E-01 0.  0.
         14    1    1    2    0    0  0.20863951451E-01  0.30390928956E-02 -0.76640556430E-02  0.22433865130E-01  0.00000000000E+00 0.  1.
     999901    1    3    3    0    0  0.62008979220E-01  0.42458333754E-01  0.98639129390E-01  0.88869426771E+00  0.88000000000E+00 0. -1.
        -11    1    4    4    0    0 -0.48280576337E-01 -0.34282651382E-01 -0.66069743765E-01  0.88723088310E-01  0.51100000000E-03 0.  1.
         11    1    4    4    0    0 -0.34592354334E-01 -0.11214775268E-01 -0.24905329982E-01  0.44078778853E-01  0.51100000000E-03 0. -1.
</event>
<event>
 8    1  0.1163913E+005  0.1043930E+01  0.7957747E-01            NaN
         13   -1    0    0    0    0  0.00000000000E+00  0.00000000000E+00  0.74505805969E-08  0.10566000000E+00  0.10566000000E+00 0.  1.
     999900   -1    0    0    0    0 -0.00000000000E+00 -0.00000000000E+00 -0.74505805969E-08  0.93827000000E+00  0.93827000000E+00 0. -1.
     999902    2    1    2    0    0  0.20636449883E-01  0.37736046033E-02  0.11262345450E-01  0.10201194229E+01  0.10198415041E+01 0.  0.
     999903    2    3    3    0    0  0.12216217676E+00 -0.34103901129E-01 -0.32069476673E-01  0.13241461531E+00  0.20457407204E-01 0.  0.
         14    1    1    2    0    0 -0.20636449883E-01 -0.37736046033E-02 -0.11262345450E-01  0.23810577072E-01  0.00000000000E+00 0. -1.
     999901    1    3    3    0    0 -0.10152572688E+00  0.37877505732E-01  0.43331822124E-01  0.88770480762E+00  0.88000000000E+00 0.  1.
        -11    1    4    4    0    0  0.70494805009E-01 -0.91952342642E-02 -0.18857329838E-01  0.73552225500E-01  0.51100000000E-03 0. -1.
         11    1    4    4    0    0  0.51667371756E-01 -0.24908666865E-01 -0.13212146835E-01  0.58862389810E-01  0.51100000000E-03 0.  1.
</event>
<event>
 8    1  0.1163913E+005  0.1043930E+01  0.7957747E-01            NaN
         13   -1    0    0    0    0  0.00000000000E+00  0.00000000000E+00  0.74505805969E-08  0.10566000000E+00  0.10566000000E+00 0. -1.
     999900   -1    0    0    0    0 -0.00000000000E+00 -0.00000000000E+00 -0.74505805969E-08  0.93827000000E+00  0.93827000000E+00 0. -1.
     999902    2    1    2    0    0 -0.67152589220E-02  0.14476094297E-01  0.20340017310E-01  0.10180771798E+01  0.10177488765E+01 0.  0.
     999903    2    3    3    0    0 -0.53679716878E-02  0.12879228411E+00 -0.51442335226E-03  0.13043709838E+00  0.19932496982E-01 0.  0.
         14    1    1    2    0    0  0.67152589220E-02 -0.14476094297E-01 -0.20340017310E-01  0.25852820207E-01  0.00000000000E+00 0.  1.
     999901    1    3    3    0    0 -0.13472872342E-02 -0.11431618981E+00  0.20854440663E-01  0.88764008141E+00  0.88000000000E+00 0.  1.
        -11    1    4    4    0    0 -0.11905784694E-01  0.10596248940E+00 -0.18511863374E-02  0.10664654182E+00  0.51100000000E-03 0. -1.
         11    1    4    4    0    0  0.65378130065E-02  0.22829794709E-01  0.13367629851E-02  0.23790556564E-01  0.51100000000E-03 0.  1.
</event>
<event>
 8    1  0.1163913E+005  0.1043930E+01  0.7957747E-01            NaN
         13   -1    0    0    0    0  0.00000000000E+00  0.00000000000E+00  0.74505805969E-08  0.10566000000E+00  0.10566000000E+00 0.  1.
     999900   -1    0    0    0    0 -0.00000000000E+00 -0.00000000000E+00 -0.74505805969E-08  0.93827000000E+00  0.93827000000E+00 0.  1.
     999902    2    1    2    0    0 -0.21315112907E-01 -0.46429823910E-02 -0.73762545619E-02  0.10209017466E+01  0.10206419920E+01 0.  0.
     999903    2    3    3    0    0 -0.10403584870E+00  0.36883287388E-01  0.70775547982E-01  0.13260289178E+00  0.19761427447E-01 0.  0.
         14    1    1    2    0    0  0.21315112907E-01  0.46429823910E-02  0.73762545619E-02  0.23028253409E-01  0.00000000000E+00 0.  1.
     999901    1    3    3    0    0  0.82720735789E-01 -0.41526269779E-01 -0.78151802544E-01  0.88829885481E+00  0.88000000000E+00 0.  1.
        -11    1    4    4    0    0 -0.47914772320E-01  0.27364357514E-01  0.36368790499E-01  0.66087695617E-01  0.51100000000E-03 0.  1.
         11    1    4    4    0    0 -0.56121076376E-01  0.95189298742E-02  0.34406757483E-01  0.66515196166E-01  0.51100000000E-03 0. -1.
</event>
<event>
 8    1  0.1163913E+005  0.1043930E+01  0.7957747E-01            NaN
         13   -1    0    0    0    0  0.00000000000E+00  0.00000000000E+00  0.74505805969E-08  0.10566000000E+00  0.10566000000E+00 0.  1.
     999900   -1    0    0    0    0 -0.00000000000E+00 -0.00000000000E+00 -0.74505805969E-08  0.93827000000E+00  0.93827000000E+00 0. -1.
     999902    2    1    2    0    0  0.65844012060E-02  0.18363261672E-01 -0.14727743264E-01  0.10194867977E+01  0.10191937306E+01 0.  0.
     999903    2    3    3    0    0  0.91046519164E-01 -0.36355290574E-01  0.80691109361E-01  0.12862613137E+00  0.20553606401E-01 0.  0.
         14    1    1    2    0    0 -0.65844012060E-02 -0.18363261672E-01  0.14727743264E-01  0.24443202329E-01  0.00000000000E+00 0.  1.
     999901    1    3    3    0    0 -0.84462117958E-01  0.54718552246E-01 -0.95418852625E-01  0.89086066630E+00  0.88000000000E+00 0. -1.
        -11    1    4    4    0    0  0.41578553616E-01 -0.58154721474E-02  0.35716497745E-01  0.55122818953E-01  0.51100000000E-03 0. -1.
         11    1    4    4    0    0  0.49467965548E-01 -0.30539818426E-01  0.44974611616E-01  0.73503312415E-01  0.51100000000E-03 0.  1.
</event>
<event>
 8    1  0.1163913E+005  0.1043930E+01  0.7957747E-01            NaN
         13   -1    0    0    0    0  0.00000000000E+00  0.00000000000E+00  0.74505805969E-08  0.10566000000E+00  0.10566000000E+00 0.  1.
     999900   -1    0    0    0    0 -0.00000000000E+00 -0.00000000000E+00 -0.74505805969E-08  0.93827000000E+00  0.93827000000E+00 0.  1.
     999902    2    1    2    0    0 -0.17250657731E-01  0.46138645831E-03  0.13750184907E-01  0.10218649676E+01  0.10216267158E+01 0.  0.
     999903    2    3    3    0    0 -0.44616289393E-01 -0.34085537003E-01 -0.11712277878E+00  0.13109558087E+00  0.17772701044E-01 0.  0.
         14    1    1    2    0    0  0.17250657731E-01 -0.46138645831E-03 -0.13750184907E-01  0.22065032395E-01  0.00000000000E+00 0. -1.
     999901    1    3    3    0    0  0.27365631662E-01  0.34546923461E-01  0.13087296369E+00  0.89076938673E+00  0.88000000000E+00 0. -1.
        -11    1    4    4    0    0 -0.55978991020E-02 -0.10298893488E-01 -0.37467769840E-01  0.39261922765E-01  0.51100000000E-03 0. -1.
         11    1    4    4    0    0 -0.39018390291E-01 -0.23786643515E-01 -0.79655008942E-01  0.91833658106E-01  0.51100000000E-03 0.  1.
</event>
<event>
 8    1  0.1163913E+005  0.1043930E+01  0.7957747E-01            NaN
         13   -1    0    0    0    0  0.00000000000E+00  0.00000000000E+00  0.74505805969E-08  0.10566000000E+00  0.10566000000E+00 0.  1.
     999900   -1    0    0    0    0 -0.00000000000E+00 -0.00000000000E+00 -0.74505805969E-08  0.93827000000E+00  0.93827000000E+00 0.  1.
     999902    2    1    2    0    0  0.40278989612E-02 -0.11845210065E-01 -0.21707183299E-01  0.10188753641E+01  0.10185672648E+01 0.  0.
     999903    2    3    3    0    0 -0.21263043786E-01  0.12178903006E+00 -0.26564253639E-01  0.12841406062E+00  0.22356800328E-01 0.  0.
         14    1    1    2    0    0 -0.40278989612E-02  0.11845210065E-01  0.21707183299E-01  0.25054635864E-01  0.00000000000E+00 0.  1.
     999901    1    3    3    0    0  0.25290942747E-01 -0.13363424012E+00  0.48570703403E-02  0.89046130351E+00  0.88000000000E+00 0. -1.
        -11    1    4    4    0    0  0.22011726585E-02  0.50927264963E-01 -0.99177744713E-02  0.51933176768E-01  0.51100000000E-03 0. -1.
         11    1    4    4    0    0 -0.23464216445E-01  0.70861765096E-01 -0.16646479168E-01  0.76480883857E-01  0.51100000000E-03 0.  1.
</event>
<event>
 8    1  0.1163913E+005  0.1043930E+01  0.7957747E-01            NaN
         13   -1    0    0    0    0  0.00000000000E+00  0.00000000000E+00  0.74505805969E-08  0.10566000000E+00  0.10566000000E+00 0.  1.
     999900   -1    0    0    0    0 -0.00000000000E+00 -0.00000000000E+00 -0.74505805969E-08  0.93827000000E+00  0.93827000000E+00 0.  1.
     999902    2    1    2    0    0 -0.12923457319E-01  0.35631658770E-02 -0.19949333291E-01  0.10198948632E+01  0.10196116144E+01 0.  0.
     999903    2    3    3    0    0 -0.83197602241E-01 -0.84995868083E-01 -0.53600911081E-01  0.13202460998E+00  0.20280566121E-01 0.  0.
         14    1    1    2    0    0  0.12923457319E-01 -0.35631658770E-02  0.19949333291E-01  0.24035136756E-01  0.00000000000E+00 0.  1.
     999901    1    3    3    0    0  0.70274144922E-01  0.88559033960E-01  0.33651577790E-01  0.88787025326E+00  0.88000000000E+00 0. -1.
        -11    1    4    4    0    0 -0.35505059563E-01 -0.22937103342E-01 -0.21525187374E-01  0.47437482825E-01  0.51100000000E-03 0. -1.
         11    1    4    4    0    0 -0.47692542678E-01 -0.62058764740E-01 -0.32075723707E-01  0.84587127156E-01  0.51100000000E-03 0.  1.
</event>
<event>
 8    1  0.1163913E+005  0.1043930E+01  0.7957747E-01            NaN
         13   -1    0    0    0    0  0.00000000000E+00  0.00000000000E+00  0.74505805969E-08  0.10566000000E+00  0.10566000000E+00 0. -1.
     999900   -1    0    0    0    0 -0.00000000000E+00 -0.00000000000E+00 -0.74505805969E-08  0.93827000000E+00  0.93827000000E+00 0. -1.
     999902    2    1    2    0    0 -0.19177493843E-01  0.11379198359E-01 -0.17844940810E-03  0.10216299043E+01  0.10213864925E+01 0.  0.
     999903    2    3    3    0    0  0.28778220669E-01  0.11518117032E+00  0.55344660734E-01  0.13249694700E+00  0.19937941529E-01 0.  0.
         14    1    1    2    0    0  0.19177493843E-01 -0.11379198359E-01  0.17844940810E-03  0.22300095730E-01  0.00000000000E+00 0. -1.
     999901    1    3    3    0    0 -0.47955714512E-01 -0.10380197196E+00 -0.55523110142E-01  0.88913295727E+00  0.88000000000E+00 0. -1.
        -11    1    4    4    0    0  0.25158260807E-01  0.59997218426E-01  0.28740356276E-01  0.71125758383E-01  0.51100000000E-03 0. -1.
         11    1    4    4    0    0  0.36199598623E-02  0.55183951893E-01  0.26604304458E-01  0.61371188620E-01  0.51100000000E-03 0.  1.
</event>
<event>
 8    1  0.1163913E+005  0.1043930E+01  0.7957747E-01            NaN
         13   -1    0    0    0    0  0.00000000000E+00  0.00000000000E+00  0.74505805969E-08  0.10566000000E+00  0.10566000000E+00 0. -1.
     999900   -1    0    0    0    0 -0.00000000000E+00 -0.00000000000E+00 -0.74505805969E-08  0.93827000000E+00  0.93827000000E+00 0.  1.
     999902    2    1    2    0    0  0.19702786890E-01  0.59287879002E-02  0.11736144396E-01  0.10202427160E+01  0.10199677015E+01 0.  0.
     999903    2    3    3    0    0  0.45667318292E-01  0.10601862376E+00  0.62339659933E-01  0.13274463269E+00  0.20234914449E-01 0.  0.
         14    1    1    2    0    0 -0.19702786890E-01 -0.59287879002E-02 -0.11736144396E-01  0.23687283983E-01  0.00000000000E+00 0. -1.
     999901    1    3    3    0    0 -0.25964531402E-01 -0.10008983586E+00 -0.50603515538E-01  0.88749808333E+00  0.88000000000E+00 0.  1.
        -11    1    4    4    0    0  0.46889455741E-01  0.99212653344E-01  0.55372412407E-01  0.12291516107E+00  0.51100000000E-03 0.  1.
         11    1    4    4    0    0 -0.12221374487E-02  0.68059704133E-02  0.69672475265E-02  0.98294716189E-02  0.51100000000E-03 0. -1.
</event>
<event>
 8    1  0.1163913E+005  0.1043930E+01  0.7957747E-01            NaN
         13   -1    0    0    0    0  0.00000000000E+00  0.00000000000E+00  0.74505805969E-08  0.10566000000E+00  0.10566000000E+00 0. -1.
     999900   -1    0    0    0    0 -0.00000000000E+00 -0.00000000000E+00 -0.74505805969E-08  0.93827000000E+00  0.93827000000E+00 0. -1.
     999902    2    1    2    0    0  0.11995910617E-01  0.11722007356E-01 -0.15955939811E-01  0.10207805002E+01  0.10205179715E+01 0.  0.
     999903    2    3    3    0    0 -0.10076178799E+00 -0.11432900346E-01 -0.80295815590E-01  0.13095463631E+00  0.20446262268E-01 0.  0.
         14    1    1    2    0    0 -0.11995910617E-01 -0.11722007356E-01  0.15955939811E-01  0.23149499849E-01  0.00000000000E+00 0. -1.
     999901    1    3    3    0    0  0.11275769861E+00  0.23154907702E-01  0.64339875779E-01  0.88982586384E+00  0.88000000000E+00 0.  1.
        -11    1    4    4    0    0 -0.21156541197E-01 -0.89754916667E-02 -0.25203982554E-01  0.34112469035E-01  0.51100000000E-03 0.  1.
         11    1    4    4    0    0 -0.79605246792E-01 -0.24574086791E-02 -0.55091833036E-01  0.96842167275E-01  0.51100000000E-03 0. -1.
</event>
<event>
 8    1  0.1163913E+005  0.1043930E+01  0.7957747E-01            NaN
         13   -1    0    0    0    0  0.00000000000E+00  0.00000000000E+00  0.74505805969E-08  0.10566000000E+00  0.10566000000E+00 0. -1.
     999900   -1    0    0    0    0 -0.00000000000E+00 -0.00000000000E+00 -0.74505805969E-08  0.93827000000E+00  0.93827000000E+00 0. -1.
     999902    2    1    2    0    0  0.28184944210E-02 -0.19309917710E-01  0.14141265732E-01  0.10198303687E+01  0.10195455795E+01 0.  0.
     999903    2    3    3    0    0 -0.20733271490E-01 -0.89753851172E-01  0.94051459232E-01  0.13309327549E+00  0.19558135112E-01 0.  0.
         14    1    1    2    0    0 -0.28184944210E-02  0.19309917710E-01 -0.14141265732E-01  0.24099631309E-01  0.00000000000E+00 0.  1.
     999901    1    3    3    0    0  0.23551765911E-01  0.70443933463E-01 -0.79910193500E-01  0.88673709320E+00  0.88000000000E+00 0. -1.
        -11    1    4    4    0    0 -0.13097054269E-02 -0.22104307688E-01  0.12746125016E-01  0.25554658491E-01  0.51100000000E-03 0.  1.
         11    1    4    4    0    0 -0.19423566063E-01 -0.67649543484E-01  0.81305334216E-01  0.10753861700E+00  0.51100000000E-03 0. -1.
</event>
<event>
 8    1  0.1163913E+005  0.1043930E+01  0.7957747E-01            NaN
         13   -1    0    0    0    0  0.00000000000E+00  0.00000000000E+00  0.74505805969E-08  0.10566000000E+00  0.10566000000E+00 0.  1.
     999900   -1    0    0    0    0 -0.00000000000E+00 -0.00000000000E+00 -0.74505805969E-08  0.93827000000E+00  0.93827000000E+00 0.  1.
     999902    2    1    2    0    0 -0.92943862572E-02  0.21120441528E-01  0.40815671073E-02  0.10204967361E+01  0.10202276562E+01 0.  0.
     999903    2    3    3    0    0  0.12693645713E+00  0.46471172863E-02 -0.15903241335E-01  0.12963782155E+00  0.20459517181E-01 0.  0.
         14    1    1    2    0    0  0.92943862572E-02 -0.21120441528E-01 -0.40815671073E-02  0.23433263885E-01  0.00000000000E+00 0.  1.
     999901    1    3    3    0    0 -0.13623084338E+00  0.16473324242E-01  0.19984808443E-01  0.89085891457E+00  0.88000000000E+00 0. -1.
        -11    1    4    4    0    0  0.79328610229E-02 -0.32347398333E-02 -0.48585959362E-02  0.98620941625E-02  0.51100000000E-03 0.  1.
         11    1    4    4    0    0  0.11900359610E+00  0.78818571196E-02 -0.11044645399E-01  0.11977572738E+00  0.51100000000E-03 0. -1.
</event>
<event>
 8    1  0.1163913E+005  0.1043930E+01  0.7957747E-01            NaN
         13   -1    0    0    0    0  0.00000000000E+00  0.00000000000E+00  0.74505805969E-08  0.10566000000E+00  0.10566000000E+00 0.  1.
     999900   -1    0    0    0    0 -0.00000000000E+00 -0.00000000000E+00 -0.74505805969E-08  0.93827000000E+00  0.93827000000E+00 0. -1.
     999902    2    1    2    0    0  0.18743092068E-01 -0.76281266950E-02 -0.14984916877E-01  0.10187498580E+01  0.10184386254E+01 0.  0.
     999903    2    3    3    0    0 -0.39359795851E-01  0.26057782864E-01 -0.11951760059E+00  0.13002168356E+00  0.19823717281E-01 0.  0.
         14    1    1    2    0    0 -0.18743092068E-01  0.76281266950E-02  0.14984916877E-01  0.25180141996E-01  0.00000000000E+00 0.  1.
     999901    1    3    3    0    0  0.58102887919E-01 -0.33685909559E-01  0.10453268372E+00  0.88872817444E+00  0.88000000000E+00 0.  1.
        -11    1    4    4    0    0 -0.21092966333E-01  0.22406395617E-01 -0.56903978187E-01  0.64693768230E-01  0.51100000000E-03 0.  1.
         11    1    4    4    0    0 -0.18266829518E-01  0.36513872469E-02 -0.62613622405E-01  0.65327915329E-01  0.51100000000E-03 0. -1.
</event>
<event>
 8    1  0.1163913E+005  0.1043930E+01  0.7957747E-01            NaN
         13   -1    0    0    0    0  0.00000000000E+00  0.00000000000E+00  0.74505805969E-08  0.10566000000E+00  0.10566000000E+00 0.  1.
     999900   -1    0    0    0    0 -0.00000000000E+00 -0.00000000000E+00 -0.74505805969E-08  0.93827000000E+00  0.93827000000E+00 0.  1.
     999902    2    1    2    0    0 -0.46226765445E-02 -0.16269931182E-01 -0.23852477849E-01  0.10146892664E+01  0.10142678576E+01 0.  0.
     999903    2    3    3    0    0  0.11169554343E+00 -0.17339516514E-01  0.47410354069E-01  0.12417847846E+00  0.19899738299E-01 0.  0.
         14    1    1    2    0    0  0.46226765445E-02  0.16269931182E-01  0.23852477849E-01  0.29240733552E-01  0.00000000000E+00 0.  1.
     999901    1    3    3    0    0 -0.11631821998E+00  0.10695853324E-02 -0.71262831918E-01  0.89051078799E+00  0.88000000000E+00 0.  1.
        -11    1    4    4    0    0  0.48703846769E-01  0.11508515554E-02  0.15096491507E-01  0.51005434281E-01  0.51100000000E-03 0.  1.
         11    1    4    4    0    0  0.62991696662E-01 -0.18490368070E-01  0.32313862561E-01  0.73173044179E-01  0.51100000000E-03 0. -1.
</event>
<event>
 8    1  0.1163913E+005  0.1043930E+01  0.7957747E-01            NaN
         13   -1    0    0    0    0  0.00000000000E+00  0.00000000000E+00  0.74505805969E-08  0.10566000000E+00  0.10566000000E+00 0. -1.
     999900   -1    0    0    0    0 -0.00000000000E+00 -0.00000000000E+00 -0.74505805969E-08  0.93827000000E+00  0.93827000000E+00 0. -1.
     999902    2    1    2    0    0 -0.19344469290E-02 -0.14887942935E-01  0.18773921708E-01  0.10198914255E+01  0.10196080946E+01 0.  0.
     999903    2    3    3    0    0 -0.87327426269E-01 -0.58347691885E-01  0.78162540363E-01  0.13270051098E+00  0.21668188025E-01 0.  0.
         14    1    1    2    0    0  0.19344469290E-02  0.14887942935E-01 -0.18773921708E-01  0.24038574543E-01  0.00000000000E+00 0.  1.
     999901    1    3    3    0    0  0.85392979340E-01  0.43459748950E-01 -0.59388618655E-01  0.88719091447E+00  0.88000000000E+00 0. -1.
        -11    1    4    4    0    0 -0.52718790551E-01 -0.43480417690E-01  0.59731115807E-01  0.90762794780E-01  0.51100000000E-03 0. -1.
         11    1    4    4    0    0 -0.34608635718E-01 -0.14867274195E-01  0.18431424556E-01  0.41937716204E-01  0.51100000000E-03 0.  1.
</event>
<event>
 8    1  0.1163913E+005  0.1043930E+01  0.7957747E-01            NaN
         13   -1    0    0    0    0  0.00000000000E+00  0.00000000000E+00  0.74505805969E-08  0.10566000000E+00  0.10566000000E+00 0. -1.
     999900   -1    0    0    0    0 -0.00000000000E+00 -0.00000000000E+00 -0.74505805969E-08  0.93827000000E+00  0.93827000000E+00 0. -1.
     999902    2    1    2    0    0  0.10551295656E-01 -0.14393486943E-01 -0.15289869271E-01  0.10204293105E+01  0.10201586618E+01 0.  0.
     999903    2    3    3    0    0  0.58894615608E-01  0.10710429058E+00  0.36846336599E-01  0.12924079478E+00  0.20140151562E-01 0.  0.
         14    1    1    2    0    0 -0.10551295656E-01  0.14393486943E-01  0.15289869271E-01  0.23500689537E-01  0.00000000000E+00 0.  1.
     999901    1    3    3    0    0 -0.48343319952E-01 -0.12149777753E+00 -0.52136205870E-01  0.89118851569E+00  0.88000000000E+00 0. -1.
        -11    1    4    4    0    0  0.40184872405E-01  0.74738235394E-01  0.15736748454E-01  0.86304890782E-01  0.51100000000E-03 0.  1.
         11    1    4    4    0    0  0.18709743203E-01  0.32366055189E-01  0.21109588145E-01  0.42935903995E-01  0.51100000000E-03 0. -1.
</event>
<event>
 8    1  0.1163913E+005  0.1043930E+01  0.7957747E-01            NaN
         13   -1    0    0    0    0  0.00000000000E+00  0.00000000000E+00  0.74505805969E-08  0.10566000000E+00  0.10566000000E+00 0. -1.
     999900   -1    0    0    0    0 -0.00000000000E+00 -0.00000000000E+00 -0.74505805969E-08  0.93827000000E+00  0.93827000000E+00 0. -1.
     999902    2    1    2    0    0 -0.13099897890E-01 -0.18217354321E-01 -0.59300557105E-02  0.10207212757E+01  0.10204573866E+01 0.  0.
     999903    2    3    3    0    0  0.11408017962E-01 -0.96520720553E-01  0.86961617840E-01  0.13203633821E+00  0.20612599535E-01 0.  0.
         14    1    1    2    0    0  0.13099897890E-01  0.18217354321E-01  0.59300557105E-02  0.23208724306E-01  0.00000000000E+00 0.  1.
     999901    1    3    3    0    0 -0.24507915852E-01  0.78303366232E-01 -0.92891673551E-01  0.88868493749E+00  0.88000000000E+00 0. -1.
        -11    1    4    4    0    0 -0.43597841387E-02 -0.48093636151E-01  0.38969109974E-01  0.62055283491E-01  0.51100000000E-03 0. -1.
         11    1    4    4    0    0  0.15767802101E-01 -0.48427084402E-01  0.47992507866E-01  0.69981054715E-01  0.51100000000E-03 0.  1.
</event>
<event>
 8    1  0.1163913E+005  0.1043930E+01  0.7957747E-01            NaN
         13   -1    0    0    0    0  0.00000000000E+00  0.00000000000E+00  0.74505805969E-08  0.10566000000E+00  0.10566000000E+00 0.  1.
     999900   -1    0    0    0    0 -0.00000000000E+00 -0.00000000000E+00 -0.74505805969E-08  0.93827000000E+00  0.93827000000E+00 0. -1.
     999902    2    1    2    0    0  0.13362632621E-01  0.18308551976E-01 -0.97580482800E-02  0.10192524286E+01  0.10189536450E+01 0.  0.
     999903    2    3    3    0    0 -0.52674440206E-01  0.11096138109E+00 -0.40673835382E-01  0.13138913524E+00  0.22841174018E-01 0.  0.
         14    1    1    2    0    0 -0.13362632621E-01 -0.18308551976E-01  0.97580482800E-02  0.24677571441E-01  0.00000000000E+00 0. -1.
     999901    1    3    3    0    0  0.66037072827E-01 -0.92652829112E-01  0.30915787102E-01  0.88786329332E+00  0.88000000000E+00 0.  1.
        -11    1    4    4    0    0 -0.47780844185E-01  0.77733664540E-01 -0.32036180399E-01  0.96706306151E-01  0.51100000000E-03 0. -1.
         11    1    4    4    0    0 -0.48935960207E-02  0.33227716548E-01 -0.86376549826E-02  0.34682829089E-01  0.51100000000E-03 0.  1.
</event>
<event>
 8    1  0.1177736E+005  0.1043930E+01  0.7957747E-01            NaN
         13   -1    0    0    0    0  0.00000000000E+00  0.00000000000E+00  0.74505805969E-08  0.10566000000E+00  0.10566000000E+00 0.  1.
     999900   -1    0    0    0    0 -0.00000000000E+00 -0.00000000000E+00 -0.74505805969E-08  0.93827000000E+00  0.93827000000E+00 0.  1.
     999902    2    1    2    0    0 -0.12891219719E-01 -0.20269518438E-01 -0.89500706476E-03  0.10198917396E+01  0.10196084163E+01 0.  0.
     999903    2    3    3    0    0 -0.56332867808E-01  0.10191409486E+00 -0.51744046392E-01  0.12893627670E+00  0.19678475142E-01 0.  0.
         14    1    1    2    0    0  0.12891219719E-01  0.20269518438E-01  0.89500706476E-03  0.24038260362E-01  0.00000000000E+00 0.  1.
     999901    1    3    3    0    0  0.43441648090E-01 -0.12218361330E+00  0.50849039327E-01  0.89095546294E+00  0.88000000000E+00 0. -1.
        -11    1    4    4    0    0 -0.24608911071E-01  0.33936647718E-01 -0.10050437685E-01  0.43111100439E-01  0.51100000000E-03 0.  1.
         11    1    4    4    0    0 -0.31723956737E-01  0.67977447145E-01 -0.41693608707E-01  0.85825176256E-01  0.51100000000E-03 0. -1.
</event>
<event>
 8    1  0.1163913E+005  0.1043930E+01  0.7957747E-01            NaN
         13   -1    0    0    0    0  0.00000000000E+00  0.00000000000E+00  0.74505805969E-08  0.10566000000E+00  0.10566000000E+00 0.  1.
     999900   -1    0    0    0    0 -0.00000000000E+00 -0.00000000000E+00 -0.74505805969E-08  0.93827000000E+00  0.93827000000E+00 0. -1.
     999902    2    1    2    0    0 -0.15847442428E-02 -0.22364188725E-01  0.76728511922E-02  0.10202331437E+01  0.10199579043E+01 0.  0.
     999903    2    3    3    0    0 -0.65350529145E-01 -0.94754699877E-01  0.64102840467E-01  0.13316448510E+00  0.19350998127E-01 0.  0.
         14    1    1    2    0    0  0.15847442428E-02  0.22364188725E-01 -0.76728511922E-02  0.23696856270E-01  0.00000000000E+00 0. -1.
     999901    1    3    3    0    0  0.63765784902E-01  0.72390511152E-01 -0.56429989275E-01  0.88706865863E+00  0.88000000000E+00 0. -1.
        -11    1    4    4    0    0 -0.38910625721E-01 -0.69914798673E-01  0.49272825129E-01  0.93969081535E-01  0.51100000000E-03 0.  1.
         11    1    4    4    0    0 -0.26439903423E-01 -0.24839901205E-01  0.14830015338E-01  0.39195403568E-01  0.51100000000E-03 0. -1.
</event>
<event>
 8    1  0.1163913E+005  0.1043930E+01  0.7957747E-01            NaN
         13   -1    0    0    0    0  0.00000000000E+00  0.00000000000E+00  0.74505805969E-08  0.10566000000E+00  0.10566000000E+00 0. -1.
     999900   -1    0    0    0    0 -0.00000000000E+00 -0.00000000000E+00 -0.74505805969E-08  0.93827000000E+00  0.93827000000E+00 0.  1.
     999902    2    1    2    0    0 -0.10803188304E-01  0.12649914062E-01  0.17320720516E-01  0.10199146599E+01  0.10196318830E+01 0.  0.
     999903    2    3    3    0    0 -0.71276862323E-01  0.36155452725E-02 -0.10579180147E+00  0.12924335228E+00  0.20456675669E-01 0.  0.
         14    1    1    2    0    0  0.10803188304E-01 -0.12649914062E-01 -0.17320720516E-01  0.24015340149E-01  0.00000000000E+00 0.  1.
     999901    1    3    3    0    0  0.60473674020E-01  0.90343687895E-02  0.12311252198E+00  0.89067130758E+00  0.88000000000E+00 0. -1.
        -11    1    4    4    0    0 -0.73478338913E-02  0.35738914003E-02 -0.24453457000E-01  0.25787517191E-01  0.51100000000E-03 0. -1.
         11    1    4    4    0    0 -0.63929028432E-01  0.41653872183E-04 -0.81338344467E-01  0.10345583508E+00  0.51100000000E-03 0.  1.
</event>
<event>
 8    1  0.1163913E+005  0.1043930E+01  0.7957747E-01            NaN
         13   -1    0    0    0    0  0.00000000000E+00  0.00000000000E+00  0.74505805969E-08  0.10566000000E+00  0.10566000000E+00 0.  1.
     999900   -1    0    0    0    0 -0.00000000000E+00 -0.00000000000E+00 -0.74505805969E-08  0.93827000000E+00  0.93827000000E+00 0. -1.
     999902    2    1    2    0    0 -0.24808569244E-02 -0.15403696541E-01  0.17222036724E-01  0.10206915175E+01  0.10204269434E+01 0.  0.
     999903    2    3    3    0    0 -0.58133141352E-01 -0.68272068469E-02 -0.11349119304E+00  0.12925633685E+00  0.20021909017E-01 0.  0.
         14    1    1    2    0    0  0.24808569244E-02  0.15403696541E-01 -0.17222036724E-01  0.23238482462E-01  0.00000000000E+00 0. -1.
     999901    1    3    3    0    0  0.55652284427E-01 -0.85764896945E-02  0.13071322976E+00  0.89143518069E+00  0.88000000000E+00 0.  1.
        -11    1    4    4    0    0 -0.37957000185E-01 -0.13441481895E-01 -0.80668423045E-01  0.90161315963E-01  0.51100000000E-03 0. -1.
         11    1    4    4    0    0 -0.20176141167E-01  0.66142750476E-02 -0.32822769995E-01  0.39095020885E-01  0.51100000000E-03 0.  1.
</event>
<event>
 8    1  0.1163913E+005  0.1043930E+01  0.7957747E-01            NaN
         13   -1    0    0    0    0  0.00000000000E+00  0.00000000000E+00  0.74505805969E-08  0.10566000000E+00  0.10566000000E+00 0.  1.
     999900   -1    0    0    0    0 -0.00000000000E+00 -0.00000000000E+00 -0.74505805969E-08  0.93827000000E+00  0.93827000000E+00 0. -1.
     999902    2    1    2    0    0 -0.18339488362E-01  0.62302705117E-02  0.13584439133E-01  0.10202722298E+01  0.10199979082E+01 0.  0.
     999903    2    3    3    0    0 -0.84670842550E-03  0.26810206724E-01  0.12814012179E+00  0.13243635784E+00  0.19999849092E-01 0.  0.
         14    1    1    2    0    0  0.18339488362E-01 -0.62302705117E-02 -0.13584439133E-01  0.23657770195E-01  0.00000000000E+00 0. -1.
     999901    1    3    3    0    0 -0.17492779936E-01 -0.20579936213E-01 -0.11455568266E+00  0.88783587197E+00  0.88000000000E+00 0. -1.
        -11    1    4    4    0    0  0.34305176648E-02  0.24420922872E-01  0.72549872677E-01  0.76628291589E-01  0.51100000000E-03 0. -1.
         11    1    4    4    0    0 -0.42772260903E-02  0.23892838525E-02  0.55590249118E-01  0.55808066248E-01  0.51100000000E-03 0.  1.
</event>
<event>
 8    1  0.1163913E+005  0.1043930E+01  0.7957747E-01            NaN
         13   -1    0    0    0    0  0.00000000000E+00  0.00000000000E+00  0.74505805969E-08  0.10566000000E+00  0.10566000000E+00 0. -1.
     999900   -1    0    0    0    0 -0.00000000000E+00 -0.00000000000E+00 -0.74505805969E-08  0.93827000000E+00  0.93827000000E+00 0.  1.
     999902    2    1    2    0    0 -0.10434214434E-01  0.11349663674E-01  0.17891222934E-01  0.10203125583E+01  0.10200391821E+01 0.  0.
     999903    2    3    3    0    0 -0.10118451643E+00 -0.60531698859E-02 -0.79035579181E-01  0.13018151122E+00  0.20631428876E-01 0.  0.
         14    1    1    2    0    0  0.10434214434E-01 -0.11349663674E-01 -0.17891222934E-01  0.23617441742E-01  0.00000000000E+00 0.  1.
     999901    1    3    3    0    0  0.90750301992E-01  0.17402833560E-01  0.96926802115E-01  0.89013104704E+00  0.88000000000E+00 0. -1.
        -11    1    4    4    0    0 -0.41107329841E-01  0.34221230697E-02 -0.42505124067E-01  0.59232340709E-01  0.51100000000E-03 0.  1.
         11    1    4    4    0    0 -0.60077186586E-01 -0.94752929556E-02 -0.36530455115E-01  0.70949170514E-01  0.51100000000E-03 0. -1.
</event>
<event>
 8    1  0.1163913E+005  0.1043930E+01  0.7957747E-01            NaN
         13   -1    0    0    0    0  0.00000000000E+00  0.00000000000E+00  0.74505805969E-08  0.10566000000E+00  0.10566000000E+00 0. -1.
     999900   -1    0    0    0    0 -0.00000000000E+00 -0.00000000000E+00 -0.74505805969E-08  0.93827000000E+00  0.93827000000E+00 0.  1.
     999902    2    1    2    0    0 -0.52019650668E-02  0.16255442430E-01  0.16356994241E-01  0.10202899681E+01  0.10200160625E+01 0.  0.
     999903    2    3    3    0    0 -0.60322283952E-01  0.10828840618E+00  0.44954586479E-01  0.13331412947E+00  0.19661775562E-01 0.  0.
         14    1    1    2    0    0  0.52019650668E-02 -0.16255442430E-01 -0.16356994241E-01  0.23640031932E-01  0.00000000000E+00 0.  1.
     999901    1    3    3    0    0  0.55120318885E-01 -0.92032963747E-01 -0.28597592238E-01  0.88697583860E+00  0.88000000000E+00 0.  1.
        -11    1    4    4    0    0 -0.43512686455E-01  0.85212329909E-01  0.42374160363E-01  0.10464380363E+00  0.51100000000E-03 0.  1.
         11    1    4    4    0    0 -0.16809597497E-01  0.23076076268E-01  0.25804261162E-02  0.28670325842E-01  0.51100000000E-03 0. -1.
</event>
<event>
 8    1  0.1163913E+005  0.1043930E+01  0.7957747E-01            NaN
         13   -1    0    0    0    0  0.00000000000E+00  0.00000000000E+00  0.74505805969E-08  0.10566000000E+00  0.10566000000E+00 0. -1.
     999900   -1    0    0    0    0 -0.00000000000E+00 -0.00000000000E+00 -0.74505805969E-08  0.93827000000E+00  0.93827000000E+00 0. -1.
     999902    2    1    2    0    0  0.22275652594E-01  0.51354926989E-02  0.63269537597E-02  0.10202106339E+01  0.10199348652E+01 0.  0.
     999903    2    3    3    0    0  0.12719187957E-01  0.36948313318E-02  0.12871052598E+00  0.13168874883E+00  0.24496888573E-01 0.  0.
         14    1    1    2    0    0 -0.22275652594E-01 -0.51354926989E-02 -0.63269537597E-02  0.23719366089E-01  0.00000000000E+00 0. -1.
     999901    1    3    3    0    0  0.95564646372E-02  0.14406613671E-02 -0.12238357222E+00  0.88852188508E+00  0.88000000000E+00 0. -1.
        -11    1    4    4    0    0  0.17473336765E-01  0.97185172448E-02  0.86383309095E-01  0.88668507861E-01  0.51100000000E-03 0.  1.
         11    1    4    4    0    0 -0.47541488078E-02 -0.60236859131E-02  0.42327216883E-01  0.43020240968E-01  0.51100000000E-03 0. -1.
</event>
<event>
 8    1  0.1163913E+005  0.1043930E+01  0.7957747E-01            NaN
         13   -1    0    0    0    0  0.00000000000E+00  0.00000000000E+00  0.74505805969E-08  0.10566000000E+00  0.10566000000E+00 0.  1.
     999900   -1    0    0    0    0 -0.00000000000E+00 -0.00000000000E+00 -0.74505805969E-08  0.93827000000E+00  0.93827000000E+00 0.  1.
     999902    2    1    2    0    0 -0.20475986834E-01  0.12963205789E-01 -0.73120880035E-03  0.10196844765E+01  0.10193961871E+01 0.  0.
     999903    2    3    3    0    0 -0.98920769670E-01 -0.72934740109E-01  0.40799071259E-01  0.13105811793E+00  0.20171045427E-01 0.  0.
         14    1    1    2    0    0  0.20475986834E-01 -0.12963205789E-01  0.73120880035E-03  0.24245523452E-01  0.00000000000E+00 0. -1.
     999901    1    3    3    0    0  0.78444782836E-01  0.85897945898E-01 -0.41530280059E-01  0.88862635862E+00  0.88000000000E+00 0. -1.
        -11    1    4    4    0    0 -0.16176181953E-01 -0.35929833961E-02  0.59462029603E-02  0.17612405937E-01  0.51100000000E-03 0. -1.
         11    1    4    4    0    0 -0.82744587717E-01 -0.69341756713E-01  0.34852868299E-01  0.11344571200E+00  0.51100000000E-03 0.  1.
</event>
<event>
 8    1  0.1163913E+005  0.1043930E+01  0.7957747E-01            NaN
         13   -1    0    0    0    0  0.00000000000E+00  0.00000000000E+00  0.74505805969E-08  0.10566000000E+00  0.10566000000E+00 0.  1.
     999900   -1    0    0    0    0 -0.00000000000E+00 -0.00000000000E+00 -0.74505805969E-08  0.93827000000E+00  0.93827000000E+00 0. -1.
     999902    2    1    2    0    0 -0.84457657753E-02  0.10409754884E-01  0.22457519745E-01  0.10177759535E+01  0.10174398544E+01 0.  0.
     999903    2    3    3    0    0 -0.12131272584E+00  0.37660656007E-01 -0.14821272653E-01  0.12936654862E+00  0.19517461851E-01 0.  0.
         14    1    1    2    0    0  0.84457657753E-02 -0.10409754884E-01 -0.22457519745E-01  0.26154046521E-01  0.00000000000E+00 0. -1.
     999901    1    3    3    0    0  0.11286696006E+00 -0.27250901123E-01  0.37278792398E-01  0.88840940486E+00  0.88000000000E+00 0.  1.
        -11    1    4    4    0    0 -0.10448090030E-01  0.59493151498E-02 -0.66892919907E-02  0.13768249139E-01  0.51100000000E-03 0. -1.
         11    1    4    4    0    0 -0.11086463581E+00  0.31711340858E-01 -0.81319806622E-02  0.11559829948E+00  0.51100000000E-03 0.  1.
</event>
<event>
 8    1  0.1163913E+005  0.1043930E+01  0.7957747E-01            NaN
         13   -1    0    0    0    0  0.00000000000E+00  0.00000000000E+00  0.74505805969E-08  0.10566000000E+00  0.10566000000E+00 0. -1.
     999900   -1    0    0    0    0 -0.00000000000E+00 -0.00000000000E+00 -0.74505805969E-08  0.93827000000E+00  0.93827000000E+00 0.  1.
     999902    2    1    2    0    0 -0.16692385512E-01  0.15013385078E-01 -0.69569901024E-02  0.10204260179E+01  0.10201552925E+01 0.  0.
     999903    2    3    3    0    0  0.99587350678E-01 -0.76914142300E-01  0.82746450563E-02  0.12789946360E+00  0.21362989882E-01 0.  0.
         14    1    1    2    0    0  0.16692385512E-01 -0.15013385078E-01  0.69569901024E-02  0.23503982149E-01  0.00000000000E+00 0.  1.
     999901    1    3    3    0    0 -0.11627973619E+00  0.91927527378E-01 -0.15231635159E-01  0.89252655425E+00  0.88000000000E+00 0.  1.
        -11    1    4    4    0    0  0.69545363457E-01 -0.48992181502E-01 -0.37575135274E-02  0.85153810576E-01  0.51100000000E-03 0.  1.
         11    1    4    4    0    0  0.30041987222E-01 -0.27921960798E-01  0.12032158584E-01  0.42745653021E-01  0.51100000000E-03 0. -1.
</event>
<event>
 8    1  0.1163913E+005  0.1043930E+01  0.7957747E-01            NaN
         13   -1    0    0    0    0  0.00000000000E+00  0.00000000000E+00  0.74505805969E-08  0.10566000000E+00  0.10566000000E+00 0. -1.
     999900   -1    0    0    0    0 -0.00000000000E+00 -0.00000000000E+00 -0.74505805969E-08  0.93827000000E+00  0.93827000000E+00 0.  1.
     999902    2    1    2    0    0  0.24712853984E-01 -0.14459212605E-03  0.17174642477E-02  0.10191571168E+01  0.10188559923E+01 0.  0.
     999903    2    3    3    0    0  0.62383038362E-01  0.28838603077E-01  0.11042291752E+00  0.13119543746E+00  0.17196325005E-01 0.  0.
         14    1    1    2    0    0 -0.24712853984E-01  0.14459212605E-03 -0.17174642477E-02  0.24772883207E-01  0.00000000000E+00 0. -1.
     999901    1    3    3    0    0 -0.37670184378E-01 -0.28983195203E-01 -0.10870545327E+00  0.88796167933E+00  0.88000000000E+00 0.  1.
        -11    1    4    4    0    0  0.46858796259E-01  0.20306873421E-01  0.66624316297E-01  0.83947462964E-01  0.51100000000E-03 0.  1.
         11    1    4    4    0    0  0.15524242102E-01  0.85317296554E-02  0.43798601223E-01  0.47247974495E-01  0.51100000000E-03 0. -1.
</event>
<event>
 8    1  0.1163913E+005  0.1043930E+01  0.7957747E-01            NaN
         13   -1    0    0    0    0  0.00000000000E+00  0.00000000000E+00  0.74505805969E-08  0.10566000000E+00  0.10566000000E+00 0. -1.
     999900   -1    0    0    0    0 -0.00000000000E+00 -0.00000000000E+00 -0.74505805969E-08  0.93827000000E+00  0.93827000000E+00 0.  1.
     999902    2    1    2    0    0 -0.30104257321E-02  0.22909098225E-01  0.32522672932E-02  0.10205961900E+01  0.10203294157E+01 0.  0.
     999903    2    3    3    0    0 -0.28685525378E-01  0.10265630389E+00  0.77744611565E-01  0.13348405682E+00  0.20312378068E-01 0.  0.
         14    1    1    2    0    0  0.30104257321E-02 -0.22909098225E-01 -0.32522672932E-02  0.23333809957E-01  0.00000000000E+00 0. -1.
     999901    1    3    3    0    0  0.25675099646E-01 -0.79747205668E-01 -0.74492344272E-01  0.88711213322E+00  0.88000000000E+00 0.  1.
        -11    1    4    4    0    0 -0.31664567894E-01  0.87890314612E-01  0.66218991147E-01  0.11451012258E+00  0.51100000000E-03 0.  1.
         11    1    4    4    0    0  0.29790425161E-02  0.14765989281E-01  0.11525620418E-01  0.18973934246E-01  0.51100000000E-03 0. -1.
</event>
<event>
 8    1  0.1163913E+005  0.1043930E+01  0.7957747E-01            NaN
         13   -1    0    0    0    0  0.00000000000E+00  0.00000000000E+00  0.74505805969E-08  0.10566000000E+00  0.10566000000E+00 0.  1.
     999900   -1    0    0    0    0 -0.00000000000E+00 -0.00000000000E+00 -0.74505805969E-08  0.93827000000E+00  0.93827000000E+00 0.  1.
     999902    2    1    2    0    0 -0.17836913291E-01  0.82319882611E-02  0.55578027843E-02  0.10235140680E+01  0.10233104305E+01 0.  0.
     999903    2    3    3    0    0  0.14964965131E-01  0.92232357578E-01  0.94552163768E-01  0.13444038067E+00  0.20083483624E-01 0.  0.
         14    1    1    2    0    0  0.17836913291E-01 -0.82319882611E-02 -0.55578027843E-02  0.20415931972E-01  0.00000000000E+00 0.  1.
     999901    1    3    3    0    0 -0.32801878423E-01 -0.84000369317E-01 -0.88994360983E-01  0.88907368736E+00  0.88000000000E+00 0.  1.
        -11    1    4    4    0    0  0.13344429028E-02  0.65742099929E-01  0.63815048516E-01  0.91632013941E-01  0.51100000000E-03 0. -1.
         11    1    4    4    0    0  0.13630522229E-01  0.26490257650E-01  0.30737115252E-01  0.42808366724E-01  0.51100000000E-03 0.  1.
</event>
<event>
 8    1  0.1163913E+005  0.1043930E+01  0.7957747E-01            NaN
         13   -1    0    0    0    0  0.00000000000E+00  0.00000000000E+00  0.74505805969E-08  0.10566000000E+00  0.10566000000E+00 0. -1.
     999900   -1    0    0    0    0 -0.00000000000E+00 -0.00000000000E+00 -0.74505805969E-08  0.93827000000E+00  0.93827000000E+00 0.  1.
     999902    2    1    2    0    0 -0.13964888730E-01  0.78645153959E-02  0.17515456012E-01  0.10201884769E+01  0.10199121867E+01 0.  0.
     999903    2    3    3    0    0 -0.11909145730E+00 -0.44144681463E-01  0.31139969429E-01  0.13230212193E+00  0.20065534356E-01 0.  0.
         14    1    1    2    0    0  0.13964888730E-01 -0.78645153959E-02 -0.17515456012E-01  0.23741523097E-01  0.00000000000E+00 0.  1.
     999901    1    3    3    0    0  0.10512656857E+00  0.52009196859E-01 -0.13624513417E-01  0.88788635497E+00  0.88000000000E+00 0.  1.
        -11    1    4    4    0    0 -0.63815561164E-01 -0.32386479060E-01  0.11567979123E-01  0.72494062754E-01  0.51100000000E-03 0.  1.
         11    1    4    4    0    0 -0.55275896134E-01 -0.11758202403E-01  0.19571990307E-01  0.59808059179E-01  0.51100000000E-03 0. -1.
</event>
<event>
 8    1  0.1163913E+005  0.1043930E+01  0.7957747E-01            NaN
         13   -1    0    0    0    0  0.00000000000E+00  0.00000000000E+00  0.74505805969E-08  0.10566000000E+00  0.10566000000E+00 0. -1.
     999900   -1    0    0    0    0 -0.00000000000E+00 -0.00000000000E+00 -0.74505805969E-08  0.93827000000E+00  0.93827000000E+00 0. -1.
     999902    2    1    2    0    0 -0.10239481229E-01 -0.18306413086E-01 -0.12132339527E-01  0.10196985040E+01  0.10194105521E+01 0.  0.
     999903    2    3    3    0    0 -0.62099997554E-01 -0.11424896847E+00  0.11893633328E-01  0.13264059470E+00  0.23298762978E-01 0.  0.
         14    1    1    2    0    0  0.10239481229E-01  0.18306413086E-01  0.12132339527E-01  0.24231495998E-01  0.00000000000E+00 0. -1.
     999901    1    3    3    0    0  0.51860516325E-01  0.95942555380E-01 -0.24025972855E-01  0.88705790930E+00  0.88000000000E+00 0. -1.
        -11    1    4    4    0    0 -0.62098985328E-01 -0.10242629864E+00  0.74959720426E-02  0.12001617120E+00  0.51100000000E-03 0. -1.
         11    1    4    4    0    0 -0.10122251971E-05 -0.11822669824E-01  0.43976612858E-02  0.12624423495E-01  0.51100000000E-03 0.  1.
</event>
<event>
 8    1  0.1163913E+005  0.1043930E+01  0.7957747E-01            NaN
         13   -1    0    0    0    0  0.00000000000E+00  0.00000000000E+00  0.74505805969E-08  0.10566000000E+00  0.10566000000E+00 0. -1.
     999900   -1    0    0    0    0 -0.00000000000E+00 -0.00000000000E+00 -0.74505805969E-08  0.93827000000E+00  0.93827000000E+00 0. -1.
     999902    2    1    2    0    0 -0.81967847267E-02 -0.12242432890E-01 -0.18479165230E-01  0.10202964647E+01  0.10200227115E+01 0.  0.
     999903    2    3    3    0    0 -0.65508933254E-01 -0.10924560237E+00  0.27042419318E-01  0.13194602039E+00  0.21270587228E-01 0.  0.
         14    1    1    2    0    0  0.81967847267E-02  0.12242432890E-01  0.18479165230E-01  0.23633535295E-01  0.00000000000E+00 0. -1.
     999901    1    3    3    0    0  0.57312148527E-01  0.97003169479E-01 -0.45521584548E-01  0.88835044432E+00  0.88000000000E+00 0. -1.
        -11    1    4    4    0    0 -0.20732052157E-01 -0.54155170508E-01  0.15434417484E-01  0.60009023017E-01  0.51100000000E-03 0. -1.
         11    1    4    4    0    0 -0.44776881096E-01 -0.55090431861E-01  0.11608001834E-01  0.71936997372E-01  0.51100000000E-03 0.  1.
</event>
<event>
 7    1  0.1163913E+005  0.1043930E+01  0.7957747E-01            NaN
         13   -1    0    0    0    0  0.00000000000E+00  0.00000000000E+00  0.74505805969E-08  0.10566000000E+00  0.10566000000E+00 0.  1.
     999900   -1    0    0    0    0 -0.00000000000E+00 -0.00000000000E+00 -0.74505805969E-08  0.93827000000E+00  0.93827000000E+00 0. -1.
     999902    2    1    2    0    0  0.22210387739E-01  0.29479926167E-02 -0.43469472872E-03  0.10215206059E+01  0.10212747756E+01 0.  0.
         14    1    1    2    0    0 -0.22210387739E-01 -0.29479926167E-02  0.43469472872E-03  0.22409394090E-01  0.00000000000E+00 0. -1.
     999901    1    3    3    0    0 -0.90745669795E-01 -0.34391315731E-01  0.92873866201E-02  0.88538341679E+00  0.88000000000E+00 0.  1.
        -11    1    3    3    0    0  0.41333004978E-01  0.39447380797E-01 -0.25810583972E-01  0.62697372499E-01  0.51100000000E-03 0. -1.
         11    1    3    3    0    0  0.71623052557E-01 -0.21080724495E-02  0.16088502623E-01  0.73439816617E-01  0.51100000000E-03 0.  1.
</event>
<event>
 8    1  0.1163913E+005  0.1043930E+01  0.7957747E-01            NaN
         13   -1    0    0    0    0  0.00000000000E+00  0.00000000000E+00  0.74505805969E-08  0.10566000000E+00  0.10566000000E+00 0. -1.
     999900   -1    0    0    0    0 -0.00000000000E+00 -0.00000000000E+00 -0.74505805969E-08  0.93827000000E+00  0.93827000000E+00 0. -1.
     999902    2    1    2    0    0 -0.23616730424E-02 -0.25062634175E-01  0.95525363036E-03  0.10187382228E+01  0.10184266988E+01 0.  0.
     999903    2    3    3    0    0 -0.32888864513E-01 -0.83133589098E-01  0.94200919253E-01  0.13138322086E+00  0.19871247838E-01 0.  0.
         14    1    1    2    0    0  0.23616730424E-02  0.25062634175E-01 -0.95525363036E-03  0.25191777247E-01  0.00000000000E+00 0.  1.
     999901    1    3    3    0    0  0.30527191471E-01  0.58070954922E-01 -0.93245665622E-01  0.88735500189E+00  0.88000000000E+00 0. -1.
        -11    1    4    4    0    0 -0.14179159061E-01 -0.14250475578E-01  0.18286335411E-01  0.27180430269E-01  0.51100000000E-03 0. -1.
         11    1    4    4    0    0 -0.18709705452E-01 -0.68883113519E-01  0.75914583842E-01  0.10420279059E+00  0.51100000000E-03 0.  1.
</event>
<event>
 8    1  0.1163913E+005  0.1043930E+01  0.7957747E-01            NaN
         13   -1    0    0    0    0  0.00000000000E+00  0.00000000000E+00  0.74505805969E-08  0.10566000000E+00  0.10566000000E+00 0. -1.
     999900   -1    0    0    0    0 -0.00000000000E+00 -0.00000000000E+00 -0.74505805969E-08  0.93827000000E+00  0.93827000000E+00 0. -1.
     999902    2    1    2    0    0 -0.16459728348E-01  0.14160050578E-01  0.12266632206E-01  0.10189920780E+01  0.10186868778E+01 0.  0.
     999903    2    3    3    0    0  0.78805550575E-01  0.99592175628E-01  0.16766935205E-01  0.12972587818E+00  0.20463555533E-01 0.  0.
         14    1    1    2    0    0  0.16459728348E-01 -0.14160050578E-01 -0.12266632206E-01  0.24937922034E-01  0.00000000000E+00 0.  1.
     999901    1    3    3    0    0 -0.95265278923E-01 -0.85432125050E-01 -0.45003029981E-02  0.88926619979E+00  0.88000000000E+00 0.  1.
        -11    1    4    4    0    0  0.39884152216E-01  0.36847161725E-01  0.12748091943E-01  0.55778435747E-01  0.51100000000E-03 0.  1.
         11    1    4    4    0    0  0.38921398360E-01  0.62745013903E-01  0.40188432618E-02  0.73947442431E-01  0.51100000000E-03 0. -1.
</event>
<event>
 8    1  0.1163913E+005  0.1043930E+01  0.7957747E-01            NaN
         13   -1    0    0    0    0  0.00000000000E+00  0.00000000000E+00  0.74505805969E-08  0.10566000000E+00  0.10566000000E+00 0.  1.
     999900   -1    0    0    0    0 -0.00000000000E+00 -0.00000000000E+00 -0.74505805969E-08  0.93827000000E+00  0.93827000000E+00 0.  1.
     999902    2    1    2    0    0 -0.13173991606E-01 -0.19678957257E-01  0.56566783913E-02  0.10195822399E+01  0.10192914845E+01 0.  0.
     999903    2    3    3    0    0  0.42421170490E-02 -0.90924538370E-01  0.93665108733E-01  0.13215633451E+00  0.20171190404E-01 0.  0.
         14    1    1    2    0    0  0.13173991606E-01  0.19678957257E-01 -0.56566783913E-02  0.24347760143E-01  0.00000000000E+00 0. -1.
     999901    1    3    3    0    0 -0.17416108655E-01  0.71245581113E-01 -0.88008430342E-01  0.88742590535E+00  0.88000000000E+00 0.  1.
        -11    1    4    4    0    0  0.10341278630E-01 -0.46367999005E-01  0.56439375895E-01  0.73773963211E-01  0.51100000000E-03 0.  1.
         11    1    4    4    0    0 -0.60991615813E-02 -0.44556539365E-01  0.37225732838E-01  0.58382371300E-01  0.51100000000E-03 0. -1.
</event>
<event>
 8    1  0.1163913E+005  0.1043930E+01  0.7957747E-01            NaN
         13   -1    0    0    0    0  0.00000000000E+00  0.00000000000E+00  0.74505805969E-08  0.10566000000E+00  0.10566000000E+00 0. -1.
     999900   -1    0    0    0    0 -0.00000000000E+00 -0.00000000000E+00 -0.74505805969E-08  0.93827000000E+00  0.93827000000E+00 0.  1.
     999902    2    1    2    0    0  0.67570718929E-02 -0.20659942229E-01 -0.56539877057E-02  0.10214698395E+01  0.10212228817E+01 0.  0.
     999903    2    3    3    0    0 -0.97470327382E-01  0.82240753825E-01  0.67701273314E-02  0.12927800885E+00  0.20073929341E-01 0.  0.
         14    1    1    2    0    0 -0.67570718929E-02  0.20659942229E-01  0.56539877057E-02  0.22460160517E-01  0.00000000000E+00 0.  1.
     999901    1    3    3    0    0  0.10422739928E+00 -0.10290069605E+00 -0.12424115037E-01  0.89219183063E+00  0.88000000000E+00 0. -1.
        -11    1    4    4    0    0 -0.11795262699E-01  0.73959650054E-02  0.68262832449E-02  0.15514115651E-01  0.51100000000E-03 0. -1.
         11    1    4    4    0    0 -0.85675064684E-01  0.74844788820E-01 -0.56155913552E-04  0.11376389320E+00  0.51100000000E-03 0.  1.
</event>
<event>
 8    1  0.1163913E+005  0.1043930E+01  0.7957747E-01            NaN
         13   -1    0    0    0    0  0.00000000000E+00  0.00000000000E+00  0.74505805969E-08  0.10566000000E+00  0.10566000000E+00 0. -1.
     999900   -1    0    0    0    0 -0.00000000000E+00 -0.00000000000E+00 -0.74505805969E-08  0.93827000000E+00  0.93827000000E+00 0. -1.
     999902    2    1    2    0    0 -0.13105709750E-01  0.12292637278E-01  0.14784954876E-01  0.10206606328E+01  0.10203953469E+01 0.  0.
     999903    2    3    3    0    0  0.91457362364E-01 -0.72312233456E-01  0.53059616940E-01  0.12961833865E+00  0.19801073884E-01 0.  0.
         14    1    1    2    0    0  0.13105709750E-01 -0.12292637278E-01 -0.14784954876E-01  0.23269367202E-01  0.00000000000E+00 0.  1.
     999901    1    3    3    0    0 -0.10456307211E+00  0.84604870734E-01 -0.38274662064E-01  0.89104229415E+00  0.88000000000E+00 0.  1.
        -11    1    4    4    0    0  0.52754775746E-01 -0.49218129885E-01  0.24211904674E-01  0.76104980930E-01  0.51100000000E-03 0. -1.
         11    1    4    4    0    0  0.38702586617E-01 -0.23094103572E-01  0.28847712266E-01  0.53513357721E-01  0.51100000000E-03 0.  1.
</event>
<event>
 8    1  0.1163913E+005  0.1043930E+01  0.7957747E-01            NaN
         13   -1    0    0    0    0  0.00000000000E+00  0.00000000000E+00  0.74505805969E-08  0.10566000000E+00  0.10566000000E+00 0. -1.
     999900   -1    0    0    0    0 -0.00000000000E+00 -0.00000000000E+00 -0.74505805969E-08  0.93827000000E+00  0.93827000000E+00 0. -1.
     999902    2    1    2    0    0  0.23264155511E-01  0.33466884079E-04  0.38900362301E-02  0.10203428333E+01  0.10200701657E+01 0.  0.
     999903    2    3    3    0    0 -0.10509213113E+00 -0.22818964306E-01  0.66560428015E-01  0.12853279301E+00  0.22920016227E-01 0.  0.
         14    1    1    2    0    0 -0.23264155511E-01 -0.33466884079E-04 -0.38900362301E-02  0.23587166713E-01  0.00000000000E+00 0. -1.
     999901    1    3    3    0    0  0.12835628664E+00  0.22852431190E-01 -0.62670391785E-01  0.89181004028E+00  0.88000000000E+00 0.  1.
        -11    1    4    4    0    0 -0.44264616129E-01 -0.31091813198E-02  0.38316599931E-01  0.58629738195E-01  0.51100000000E-03 0. -1.
         11    1    4    4    0    0 -0.60827515002E-01 -0.19709782986E-01  0.28243828084E-01  0.69903054815E-01  0.51100000000E-03 0.  1.
</event>
<event>
 8    1  0.1163913E+005  0.1043930E+01  0.7957747E-01            NaN
         13   -1    0    0    0    0  0.00000000000E+00  0.00000000000E+00  0.74505805969E-08  0.10566000000E+00  0.10566000000E+00 0.  1.
     999900   -1    0    0    0    0 -0.00000000000E+00 -0.00000000000E+00 -0.74505805969E-08  0.93827000000E+00  0.93827000000E+00 0. -1.
     999902    2    1    2    0    0  0.12533583612E-02  0.64292554258E-02  0.16015434623E-01  0.10266268102E+01  0.10264809823E+01 0.  0.
     999903    2    3    3    0    0 -0.10837894978E+00 -0.63079013203E-01 -0.45859756243E-01  0.13495468340E+00  0.19613532762E-01 0.  0.
         14    1    1    2    0    0 -0.12533583612E-02 -0.64292554258E-02 -0.16015434623E-01  0.17303189841E-01  0.00000000000E+00 0. -1.
     999901    1    3    3    0    0  0.10963230814E+00  0.69508268629E-01  0.61875190866E-01  0.89167212676E+00  0.88000000000E+00 0. -1.
        -11    1    4    4    0    0 -0.49339868141E-01 -0.34395416175E-01 -0.30946340308E-01  0.67641735204E-01  0.51100000000E-03 0.  1.
         11    1    4    4    0    0 -0.59039081635E-01 -0.28683597028E-01 -0.14913415935E-01  0.67312948195E-01  0.51100000000E-03 0. -1.
</event>
<event>
 8    1  0.1163913E+005  0.1043930E+01  0.7957747E-01            NaN
         13   -1    0    0    0    0  0.00000000000E+00  0.00000000000E+00  0.74505805969E-08  0.10566000000E+00  0.10566000000E+00 0. -1.
     999900   -1    0    0    0    0 -0.00000000000E+00 -0.00000000000E+00 -0.74505805969E-08  0.93827000000E+00  0.93827000000E+00 0.  1.
     999902    2    1    2    0    0 -0.11664012406E-01  0.15783823620E-01 -0.16262736869E-01  0.10184416716E+01  0.10181226761E+01 0.  0.
     999903    2    3    3    0    0  0.48164946973E-01 -0.19707354925E-01 -0.11733167584E+00  0.12992939901E+00  0.20166423057E-01 0.  0.
         14    1    1    2    0    0  0.11664012406E-01 -0.15783823620E-01  0.16262736869E-01  0.25488328386E-01  0.00000000000E+00 0.  1.
     999901    1    3    3    0    0 -0.59828959379E-01  0.35491178545E-01  0.10106893897E+00  0.88851227260E+00  0.88000000000E+00 0. -1.
        -11    1    4    4    0    0  0.32866751304E-01 -0.34256914022E-02 -0.77599208375E-01  0.84343683606E-01  0.51100000000E-03 0. -1.
         11    1    4    4    0    0  0.15298195669E-01 -0.16281663523E-01 -0.39732467461E-01  0.45585715409E-01  0.51100000000E-03 0.  1.
</event>
<event>
 8    1  0.1163913E+005  0.1043930E+01  0.7957747E-01            NaN
         13   -1    0    0    0    0  0.00000000000E+00  0.00000000000E+00  0.74505805969E-08  0.10566000000E+00  0.10566000000E+00 0. -1.
     999900   -1    0    0    0    0 -0.00000000000E+00 -0.00000000000E+00 -0.74505805969E-08  0.93827000000E+00  0.93827000000E+00 0. -1.
     999902    2    1    2    0    0  0.59556900634E-02  0.19192458454E-01 -0.13801236474E-01  0.10195518369E+01  0.10192603462E+01 0.  0.
     999903    2    3    3    0    0  0.34453307018E-01 -0.81571256243E-01 -0.92435500124E-01  0.12986156062E+00  0.21881568358E-01 0.  0.
         14    1    1    2    0    0 -0.59556900634E-02 -0.19192458454E-01  0.13801236474E-01  0.24378163054E-01  0.00000000000E+00 0. -1.
     999901    1    3    3    0    0 -0.28497616954E-01  0.10076371470E+00  0.78634263650E-01  0.88969027633E+00  0.88000000000E+00 0.  1.
        -11    1    4    4    0    0  0.23176864351E-01 -0.35844216547E-01 -0.55436460870E-01  0.69967401094E-01  0.51100000000E-03 0. -1.
         11    1    4    4    0    0  0.11276442667E-01 -0.45727039695E-01 -0.36999039253E-01  0.59894159525E-01  0.51100000000E-03 0.  1.
</event>
<event>
 8    1  0.1163913E+005  0.1043930E+01  0.7957747E-01            NaN
         13   -1    0    0    0    0  0.00000000000E+00  0.00000000000E+00  0.74505805969E-08  0.10566000000E+00  0.10566000000E+00 0. -1.
     999900   -1    0    0    0    0 -0.00000000000E+00 -0.00000000000E+00 -0.74505805969E-08  0.93827000000E+00  0.93827000000E+00 0.  1.
     999902    2    1    2    0    0 -0.10861023036E-01  0.16739536435E-01 -0.13107156052E-01  0.10200559253E+01  0.10197765046E+01 0.  0.
     999903    2    3    3    0    0 -0.31097233650E-01 -0.60302012667E-01  0.10730071473E+00  0.12829196561E+00  0.18493631008E-01 0.  0.
         14    1    1    2    0    0  0.10861023036E-01 -0.16739536435E-01  0.13107156052E-01  0.23874074667E-01  0.00000000000E+00 0. -1.
     999901    1    3    3    0    0  0.20236210614E-01  0.77041549103E-01 -0.12040787078E+00  0.89176395972E+00  0.88000000000E+00 0.  1.
        -11    1    4    4    0    0 -0.34170322448E-02 -0.10724594113E-01  0.77177727944E-02  0.13657165378E-01  0.51100000000E-03 0. -1.
         11    1    4    4    0    0 -0.27680201406E-01 -0.49577418554E-01  0.99582941932E-01  0.11463480024E+00  0.51100000000E-03 0.  1.
</event>
<event>
 8    1  0.1163913E+005  0.1043930E+01  0.7957747E-01            NaN
         13   -1    0    0    0    0  0.00000000000E+00  0.00000000000E+00  0.74505805969E-08  0.10566000000E+00  0.10566000000E+00 0.  1.
     999900   -1    0    0    0    0 -0.00000000000E+00 -0.00000000000E+00 -0.74505805969E-08  0.93827000000E+00  0.93827000000E+00 0. -1.
     999902    2    1    2    0    0 -0.13376565890E-01 -0.17037313771E-01  0.79735084961E-02  0.10208479851E+01  0.10205870023E+01 0.  0.
     999903    2    3    3    0    0  0.11507121509E+00 -0.50341201193E-01 -0.27803688973E-01  0.13018082545E+00  0.19959486835E-01 0.  0.
         14    1    1    2    0    0  0.13376565890E-01  0.17037313771E-01 -0.79735084961E-02  0.23082014931E-01  0.00000000000E+00 0. -1.
     999901    1    3    3    0    0 -0.12844778098E+00  0.33303887422E-01  0.35777197469E-01  0.89066715961E+00  0.88000000000E+00 0.  1.
        -11    1    4    4    0    0  0.38331362473E-01 -0.75697081982E-02 -0.48419467239E-02  0.39373841574E-01  0.51100000000E-03 0.  1.
         11    1    4    4    0    0  0.76739852622E-01 -0.42771492995E-01 -0.22961742249E-01  0.90806983881E-01  0.51100000000E-03 0. -1.
</event>
<event>
 8    1  0.1163913E+005  0.1043930E+01  0.7957747E-01            NaN
         13   -1    0    0    0    0  0.00000000000E+00  0.00000000000E+00  0.74505805969E-08  0.10566000000E+00  0.10566000000E+00 0. -1.
     999900   -1    0    0    0    0 -0.00000000000E+00 -0.00000000000E+00 -0.74505805969E-08  0.93827000000E+00  0.93827000000E+00 0. -1.
     999902    2    1    2    0    0  0.48811891853E-02  0.83655558949E-02  0.90401434042E-02  0.10306811236E+01  0.10305959663E+01 0.  0.
     999903    2    3    3    0    0  0.13249611562E+00 -0.33101482919E-01  0.25785722093E-01  0.14035225224E+00  0.19568403608E-01 0.  0.
         14    1    1    2    0    0 -0.48811891853E-02 -0.83655558949E-02 -0.90401434042E-02  0.13248876408E-01  0.00000000000E+00 0.  1.
     999901    1    3    3    0    0 -0.12761492643E+00  0.41467038814E-01 -0.16745578689E-01  0.89032887135E+00  0.88000000000E+00 0. -1.
        -11    1    4    4    0    0  0.97749567259E-01 -0.20048160278E-01  0.26426677352E-01  0.10322566070E+00  0.51100000000E-03 0. -1.
         11    1    4    4    0    0  0.34746548360E-01 -0.13053322641E-01 -0.64095525929E-03  0.37126591542E-01  0.51100000000E-03 0.  1.
</event>
<event>
 8    1  0.1163913E+005  0.1043930E+01  0.7957747E-01            NaN
         13   -1    0    0    0    0  0.00000000000E+00  0.00000000000E+00  0.74505805969E-08  0.10566000000E+00  0.10566000000E+00 0. -1.
     999900   -1    0    0    0    0 -0.00000000000E+00 -0.00000000000E+00 -0.74505805969E-08  0.93827000000E+00  0.93827000000E+00 0. -1.
     999902    2    1    2    0    0 -0.11141459435E-01 -0.25737712637E-01  0.11727885545E-01  0.10135309002E+01  0.10130749135E+01 0.  0.
     999903    2    3    3    0    0  0.13522567192E-01  0.11645252717E+00  0.25940821919E-01  0.12166298056E+00  0.19618962462E-01 0.  0.
         14    1    1    2    0    0  0.11141459435E-01  0.25737712637E-01 -0.11727885545E-01  0.30399099814E-01  0.00000000000E+00 0. -1.
     999901    1    3    3    0    0 -0.24664026628E-01 -0.14219023981E+00 -0.14212936373E-01  0.89186791963E+00  0.88000000000E+00 0. -1.
        -11    1    4    4    0    0  0.57617931392E-02  0.67642978441E-02  0.20963526387E-02  0.91438395048E-02  0.51100000000E-03 0. -1.
         11    1    4    4    0    0  0.77607740530E-02  0.10968822933E+00  0.23844469280E-01  0.11251914105E+00  0.51100000000E-03 0.  1.
</event>
<event>
 8    1  0.1193201E+005  0.1043930E+01  0.7957747E-01            NaN
         13   -1    0    0    0    0  0.00000000000E+00  0.00000000000E+00  0.74505805969E-08  0.10566000000E+00  0.10566000000E+00 0.  1.
     999900   -1    0    0    0    0 -0.00000000000E+00 -0.00000000000E+00 -0.74505805969E-08  0.93827000000E+00  0.93827000000E+00 0. -1.
     999902    2    1    2    0    0  0.90617038461E-02 -0.22339303576E-01 -0.63677389197E-02  0.10189959458E+01  0.10186908415E+01 0.  0.
     999903    2    3    3    0    0 -0.34992851192E-01  0.11024011632E+00  0.46616031067E-01  0.12640119659E+00  0.20659749884E-01 0.  0.
         14    1    1    2    0    0 -0.90617038461E-02  0.22339303576E-01  0.63677389197E-02  0.24934054219E-01  0.00000000000E+00 0.  1.
     999901    1    3    3    0    0  0.44054555038E-01 -0.13257941990E+00 -0.52983769986E-01  0.89259474919E+00  0.88000000000E+00 0. -1.
        -11    1    4    4    0    0 -0.29510303271E-01  0.59681416056E-01  0.28305798342E-01  0.72347831774E-01  0.51100000000E-03 0. -1.
         11    1    4    4    0    0 -0.54825479209E-02  0.50558700268E-01  0.18310232725E-01  0.54053364816E-01  0.51100000000E-03 0.  1.
</event>
<event>
 8    1  0.1163913E+005  0.1043930E+01  0.7957747E-01            NaN
         13   -1    0    0    0    0  0.00000000000E+00  0.00000000000E+00  0.74505805969E-08  0.10566000000E+00  0.10566000000E+00 0. -1.
     999900   -1    0    0    0    0 -0.00000000000E+00 -0.00000000000E+00 -0.74505805969E-08  0.93827000000E+00  0.93827000000E+00 0. -1.
     999902    2    1    2    0    0 -0.21839669393E-01 -0.59974930106E-02  0.72094176526E-02  0.10201620219E+01  0.10198851083E+01 0.  0.
     999903    2    3    3    0    0 -0.79086833179E-01 -0.10180286900E+00 -0.23563213982E-01  0.13257942701E+00  0.20088008730E-01 0.  0.
         14    1    1    2    0    0  0.21839669393E-01  0.59974930106E-02 -0.72094176526E-02  0.23767978132E-01  0.00000000000E+00 0.  1.
     999901    1    3    3    0    0  0.57247163786E-01  0.95805375991E-01  0.30772631635E-01  0.88758259485E+00  0.88000000000E+00 0.  1.
        -11    1    4    4    0    0 -0.23101299842E-01 -0.22772462065E-01  0.16969583521E-02  0.32486856905E-01  0.51100000000E-03 0.  1.
         11    1    4    4    0    0 -0.55985533337E-01 -0.79030406936E-01 -0.25260172335E-01  0.10009257011E+00  0.51100000000E-03 0. -1.
</event>
<event>
 8    1  0.1163913E+005  0.1043930E+01  0.7957747E-01            NaN
         13   -1    0    0    0    0  0.00000000000E+00  0.00000000000E+00  0.74505805969E-08  0.10566000000E+00  0.10566000000E+00 0. -1.
     999900   -1    0    0    0    0 -0.00000000000E+00 -0.00000000000E+00 -0.74505805969E-08  0.93827000000E+00  0.93827000000E+00 0. -1.
     999902    2    1    2    0    0 -0.56236080697E-02  0.18445586773E-01  0.13755676065E-01  0.10202428038E+01  0.10199677914E+01 0.  0.
     999903    2    3    3    0    0 -0.57901701096E-01  0.92414585573E-01 -0.70793021957E-01  0.13156238087E+00  0.20098395087E-01 0.  0.
         14    1    1    2    0    0  0.56236080697E-02 -0.18445586773E-01 -0.13755676065E-01  0.23687196185E-01  0.00000000000E+00 0.  1.
     999901    1    3    3    0    0  0.52278093026E-01 -0.73968998800E-01  0.84548698022E-01  0.88868042295E+00  0.88000000000E+00 0.  1.
        -11    1    4    4    0    0 -0.12497007879E-01  0.37153536889E-01 -0.21654094894E-01  0.44785281689E-01  0.51100000000E-03 0.  1.
         11    1    4    4    0    0 -0.45404693217E-01  0.55261048684E-01 -0.49138927064E-01  0.86777099178E-01  0.51100000000E-03 0. -1.
</event>
<event>
 8    1  0.1163913E+005  0.1043930E+01  0.7957747E-01            NaN
         13   -1    0    0    0    0  0.00000000000E+00  0.00000000000E+00  0.74505805969E-08  0.10566000000E+00  0.10566000000E+00 0. -1.
     999900   -1    0    0    0    0 -0.00000000000E+00 -0.00000000000E+00 -0.74505805969E-08  0.93827000000E+00  0.93827000000E+00 0. -1.
     999902    2    1    2    0    0 -0.16209258054E-01  0.15295055851E-01  0.87908858977E-02  0.10199725699E+01  0.10196911714E+01 0.  0.
     999903    2    3    3    0    0 -0.60115264426E-01 -0.31135382923E-01  0.11119161546E+00  0.13173305694E+00  0.20168437102E-01 0.  0.
         14    1    1    2    0    0  0.16209258054E-01 -0.15295055851E-01 -0.87908858977E-02  0.23957430059E-01  0.00000000000E+00 0.  1.
     999901    1    3    3    0    0  0.43906006372E-01  0.46430438774E-01 -0.10240072956E+00  0.88823951300E+00  0.88000000000E+00 0. -1.
        -11    1    4    4    0    0 -0.81962114763E-02 -0.10874771572E-02  0.27785340615E-01  0.28993909071E-01  0.51100000000E-03 0. -1.
         11    1    4    4    0    0 -0.51919052950E-01 -0.30047905766E-01  0.83406274847E-01  0.10273914787E+00  0.51100000000E-03 0.  1.
</event>
<event>
 7    1  0.1163913E+005  0.1043930E+01  0.7957747E-01            NaN
         13   -1    0    0    0    0  0.00000000000E+00  0.00000000000E+00  0.74505805969E-08  0.10566000000E+00  0.10566000000E+00 0. -1.
     999900   -1    0    0    0    0 -0.00000000000E+00 -0.00000000000E+00 -0.74505805969E-08  0.93827000000E+00  0.93827000000E+00 0. -1.
     999902    2    1    2    0    0 -0.21034745460E-01 -0.48443017805E-02 -0.94684124954E-02  0.10203592849E+01  0.10200870020E+01 0.  0.
         14    1    1    2    0    0  0.21034745460E-01  0.48443017805E-02  0.94684124954E-02  0.23570715125E-01  0.00000000000E+00 0. -1.
     999901    1    3    3    0    0  0.89012213403E-01 -0.37444612258E-01 -0.58988524680E-01  0.88724569267E+00  0.88000000000E+00 0.  1.
        -11    1    3    3    0    0 -0.32038430798E-01  0.19868946355E-01  0.37474803645E-01  0.53158800837E-01  0.51100000000E-03 0. -1.
         11    1    3    3    0    0 -0.78008528066E-01  0.12731364122E-01  0.12045308539E-01  0.79954791365E-01  0.51100000000E-03 0.  1.
</event>
<event>
 8    1  0.1163913E+005  0.1043930E+01  0.7957747E-01            NaN
         13   -1    0    0    0    0  0.00000000000E+00  0.00000000000E+00  0.74505805969E-08  0.10566000000E+00  0.10566000000E+00 0. -1.
     999900   -1    0    0    0    0 -0.00000000000E+00 -0.00000000000E+00 -0.74505805969E-08  0.93827000000E+00  0.93827000000E+00 0. -1.
     999902    2    1    2    0    0  0.10181510146E-01 -0.17072294251E-01  0.13101203086E-01  0.10201231123E+01  0.10198452806E+01 0.  0.
     999903    2    3    3    0    0  0.11407364552E+00 -0.64860600186E-01  0.16187557473E-02  0.13264965096E+00  0.19329135303E-01 0.  0.
         14    1    1    2    0    0 -0.10181510146E-01  0.17072294251E-01 -0.13101203086E-01  0.23806887704E-01  0.00000000000E+00 0.  1.
     999901    1    3    3    0    0 -0.10389213537E+00  0.47788305935E-01  0.11482447338E-01  0.88747346133E+00  0.88000000000E+00 0. -1.
        -11    1    4    4    0    0  0.36837193041E-01 -0.11054480824E-01 -0.10857584207E-02  0.38478829631E-01  0.51100000000E-03 0. -1.
         11    1    4    4    0    0  0.77236452479E-01 -0.53806119361E-01  0.27045141679E-02  0.94170821331E-01  0.51100000000E-03 0.  1.
</event>
<event>
 8    1  0.1163913E+005  0.1043930E+01  0.7957747E-01            NaN
         13   -1    0    0    0    0  0.00000000000E+00  0.00000000000E+00  0.74505805969E-08  0.10566000000E+00  0.10566000000E+00 0. -1.
     999900   -1    0    0    0    0 -0.00000000000E+00 -0.00000000000E+00 -0.74505805969E-08  0.93827000000E+00  0.93827000000E+00 0. -1.
     999902    2    1    2    0    0 -0.19191374124E-01 -0.12274729626E-01  0.48974828612E-02  0.10206284300E+01  0.10203624008E+01 0.  0.
     999903    2    3    3    0    0 -0.11671764361E+00 -0.11013848746E-01 -0.61121785151E-01  0.13278187406E+00  0.12281704545E-01 0.  0.
         14    1    1    2    0    0  0.19191374124E-01  0.12274729626E-01 -0.48974828612E-02  0.23301570044E-01  0.00000000000E+00 0. -1.
     999901    1    3    3    0    0  0.97526269484E-01 -0.12608808805E-02  0.66019268012E-01  0.88784655589E+00  0.88000000000E+00 0. -1.
        -11    1    4    4    0    0 -0.72908814217E-01 -0.87033191676E-02 -0.44536113558E-01  0.85878806972E-01  0.51100000000E-03 0.  1.
         11    1    4    4    0    0 -0.43808829390E-01 -0.23105295780E-02 -0.16585671593E-01  0.46903067092E-01  0.51100000000E-03 0. -1.
</event>
<event>
 8    1  0.1163913E+005  0.1043930E+01  0.7957747E-01            NaN
         13   -1    0    0    0    0  0.00000000000E+00  0.00000000000E+00  0.74505805969E-08  0.10566000000E+00  0.10566000000E+00 0.  1.
     999900   -1    0    0    0    0 -0.00000000000E+00 -0.00000000000E+00 -0.74505805969E-08  0.93827000000E+00  0.93827000000E+00 0. -1.
     999902    2    1    2    0    0  0.12352946561E-01 -0.19730930774E-01 -0.57455007356E-03  0.10206440595E+01  0.10203783912E+01 0.  0.
     999903    2    3    3    0    0  0.96047887610E-01  0.51430842496E-01 -0.69926039053E-01  0.13110571284E+00  0.20705765535E-01 0.  0.
         14    1    1    2    0    0 -0.12352946561E-01  0.19730930774E-01  0.57455007356E-03  0.23285940516E-01  0.00000000000E+00 0. -1.
     999901    1    3    3    0    0 -0.83694941049E-01 -0.71161773270E-01  0.69351488979E-01  0.88953834665E+00  0.88000000000E+00 0.  1.
        -11    1    4    4    0    0  0.29831406445E-01  0.25538752486E-01 -0.18861288275E-01  0.43567763374E-01  0.51100000000E-03 0. -1.
         11    1    4    4    0    0  0.66216481165E-01  0.25892090010E-01 -0.51064750778E-01  0.87537949462E-01  0.51100000000E-03 0.  1.
</event>
<event>
 8    1  0.1315995E+005  0.1043930E+01  0.7957747E-01            NaN
         13   -1    0    0    0    0  0.00000000000E+00  0.00000000000E+00  0.74505805969E-08  0.10566000000E+00  0.10566000000E+00 0. -1.
     999900   -1    0    0    0    0 -0.00000000000E+00 -0.00000000000E+00 -0.74505805969E-08  0.93827000000E+00  0.93827000000E+00 0.  1.
     999902    2    1    2    0    0 -0.14839132869E-01 -0.17557291790E-01  0.80354548228E-02  0.10195778565E+01  0.10192869952E+01 0.  0.
     999903    2    3    3    0    0  0.97492518986E-01 -0.78611326251E-01  0.31843335930E-01  0.13002020780E+00  0.14377917827E-01 0.  0.
         14    1    1    2    0    0  0.14839132869E-01  0.17557291790E-01 -0.80354548228E-02  0.24352143510E-01  0.00000000000E+00 0.  1.
     999901    1    3    3    0    0 -0.11233165186E+00  0.61054034462E-01 -0.23807881108E-01  0.88955764869E+00  0.88000000000E+00 0.  1.
        -11    1    4    4    0    0  0.59408966123E-01 -0.50244391448E-01  0.26654917520E-01  0.82247613198E-01  0.51100000000E-03 0. -1.
         11    1    4    4    0    0  0.38083552863E-01 -0.28366934803E-01  0.51884184107E-02  0.47772594606E-01  0.51100000000E-03 0.  1.
</event>
<event>
 8    1  0.1163913E+005  0.1043930E+01  0.7957747E-01            NaN
         13   -1    0    0    0    0  0.00000000000E+00  0.00000000000E+00  0.74505805969E-08  0.10566000000E+00  0.10566000000E+00 0.  1.
     999900   -1    0    0    0    0 -0.00000000000E+00 -0.00000000000E+00 -0.74505805969E-08  0.93827000000E+00  0.93827000000E+00 0.  1.
     999902    2    1    2    0    0  0.13799641232E-01  0.32215958486E-02  0.19125123460E-01  0.10201270774E+01  0.10198493393E+01 0.  0.
     999903    2    3    3    0    0  0.50226664496E-01  0.10605924460E+00 -0.53489449733E-01  0.13042185301E+00  0.19428260854E-01 0.  0.
         14    1    1    2    0    0 -0.13799641232E-01 -0.32215958486E-02 -0.19125123460E-01  0.23802922621E-01  0.00000000000E+00 0. -1.
     999901    1    3    3    0    0 -0.36427023264E-01 -0.10283764875E+00  0.72614573194E-01  0.88970522437E+00  0.88000000000E+00 0. -1.
        -11    1    4    4    0    0  0.26429818216E-01  0.66203038882E-01 -0.23092171504E-01  0.74932550696E-01  0.51100000000E-03 0.  1.
         11    1    4    4    0    0  0.23796846280E-01  0.39856205715E-01 -0.30397278229E-01  0.55489302317E-01  0.51100000000E-03 0. -1.
</event>
<event>
 8    1  0.1163913E+005  0.1043930E+01  0.7957747E-01            NaN
         13   -1    0    0    0    0  0.00000000000E+00  0.00000000000E+00  0.74505805969E-08  0.10566000000E+00  0.10566000000E+00 0. -1.
     999900   -1    0    0    0    0 -0.00000000000E+00 -0.00000000000E+00 -0.74505805969E-08  0.93827000000E+00  0.93827000000E+00 0. -1.
     999902    2    1    2    0    0  0.17664454672E-02 -0.19101045884E-01 -0.16302733570E-01  0.10187556201E+01  0.10184445316E+01 0.  0.
     999903    2    3    3    0    0  0.24071510304E-01  0.75417843107E-01  0.96428998884E-01  0.12626484711E+00  0.19415744221E-01 0.  0.
         14    1    1    2    0    0 -0.17664454672E-02  0.19101045884E-01  0.16302733570E-01  0.25174379939E-01  0.00000000000E+00 0. -1.
     999901    1    3    3    0    0 -0.22305064837E-01 -0.94518888992E-01 -0.11273173245E+00  0.89249077295E+00  0.88000000000E+00 0. -1.
        -11    1    4    4    0    0  0.84604280293E-02  0.23448997051E-01  0.45290223997E-01  0.51700094931E-01  0.51100000000E-03 0.  1.
         11    1    4    4    0    0  0.15611082275E-01  0.51968846056E-01  0.51138774886E-01  0.74564752183E-01  0.51100000000E-03 0. -1.
</event>
<event>
 8    1  0.1163913E+005  0.1043930E+01  0.7957747E-01            NaN
         13   -1    0    0    0    0  0.00000000000E+00  0.00000000000E+00  0.74505805969E-08  0.10566000000E+00  0.10566000000E+00 0.  1.
     999900   -1    0    0    0    0 -0.00000000000E+00 -0.00000000000E+00 -0.74505805969E-08  0.93827000000E+00  0.93827000000E+00 0. -1.
     999902    2    1    2    0    0 -0.17475485337E-01 -0.53599560099E-02  0.14339966388E-01  0.10206973430E+01  0.10204329030E+01 0.  0.
     999903    2    3    3    0    0 -0.71246000034E-01 -0.85120491790E-01  0.71531750229E-01  0.13361002402E+00  0.20331172734E-01 0.  0.
         14    1    1    2    0    0  0.17475485337E-01  0.53599560099E-02 -0.14339966388E-01  0.23232657020E-01  0.00000000000E+00 0. -1.
     999901    1    3    3    0    0  0.53770514698E-01  0.79760535780E-01 -0.57191783840E-01  0.88708731896E+00  0.88000000000E+00 0. -1.
        -11    1    4    4    0    0 -0.25605998422E-01 -0.19254316769E-01  0.27200834836E-01  0.42030255843E-01  0.51100000000E-03 0. -1.
         11    1    4    4    0    0 -0.45640001612E-01 -0.65866175021E-01  0.44330915392E-01  0.91579768178E-01  0.51100000000E-03 0.  1.
</event>
<event>
 8    1  0.1163913E+005  0.1043930E+01  0.7957747E-01            NaN
         13   -1    0    0    0    0  0.00000000000E+00  0.00000000000E+00  0.74505805969E-08  0.10566000000E+00  0.10566000000E+00 0. -1.
     999900   -1    0    0    0    0 -0.00000000000E+00 -0.00000000000E+00 -0.74505805969E-08  0.93827000000E+00  0.93827000000E+00 0. -1.
     999902    2    1    2    0    0 -0.31406437222E-02  0.11871938845E-02 -0.24493356467E-01  0.10192075895E+01  0.10189077057E+01 0.  0.
     999903    2    3    3    0    0  0.12432608493E+00 -0.15005580207E-01  0.20995406061E-01  0.12871379365E+00  0.21078205977E-01 0.  0.
         14    1    1    2    0    0  0.31406437222E-02 -0.11871938845E-02  0.24493356467E-01  0.24722410548E-01  0.00000000000E+00 0. -1.
     999901    1    3    3    0    0 -0.12746672866E+00  0.16192774092E-01 -0.45488762528E-01  0.89049379580E+00  0.88000000000E+00 0. -1.
        -11    1    4    4    0    0  0.77477168894E-01 -0.34623822040E-02  0.21417792242E-01  0.80459199200E-01  0.51100000000E-03 0. -1.
         11    1    4    4    0    0  0.46848916041E-01 -0.11543198003E-01 -0.42238618124E-03  0.48254594449E-01  0.51100000000E-03 0.  1.
</event>
<event>
 8    1  0.1163913E+005  0.1043930E+01  0.7957747E-01            NaN
         13   -1    0    0    0    0  0.00000000000E+00  0.00000000000E+00  0.74505805969E-08  0.10566000000E+00  0.10566000000E+00 0.  1.
     999900   -1    0    0    0    0 -0.00000000000E+00 -0.00000000000E+00 -0.74505805969E-08  0.93827000000E+00  0.93827000000E+00 0.  1.
     999902    2    1    2    0    0  0.11022660644E-01  0.19320316217E-01  0.14550328963E-01  0.10173502005E+01  0.10170029227E+01 0.  0.
     999903    2    3    3    0    0 -0.11331882334E+00 -0.22332183089E-01 -0.45304296496E-01  0.12562248900E+00  0.19714165882E-01 0.  0.
         14    1    1    2    0    0 -0.11022660644E-01 -0.19320316217E-01 -0.14550328963E-01  0.26579799460E-01  0.00000000000E+00 0. -1.
     999901    1    3    3    0    0  0.12434148399E+00  0.41652499305E-01  0.59854625460E-01  0.89172771154E+00  0.88000000000E+00 0. -1.
        -11    1    4    4    0    0 -0.44974236970E-01 -0.16321747970E-01 -0.11860407604E-01  0.49295150242E-01  0.51100000000E-03 0. -1.
         11    1    4    4    0    0 -0.68344586373E-01 -0.60104351188E-02 -0.33443888892E-01  0.76327338759E-01  0.51100000000E-03 0.  1.
</event>
<event>
 8    1  0.1163913E+005  0.1043930E+01  0.7957747E-01            NaN
         13   -1    0    0    0    0  0.00000000000E+00  0.00000000000E+00  0.74505805969E-08  0.10566000000E+00  0.10566000000E+00 0. -1.
     999900   -1    0    0    0    0 -0.00000000000E+00 -0.00000000000E+00 -0.74505805969E-08  0.93827000000E+00  0.93827000000E+00 0.  1.
     999902    2    1    2    0    0 -0.92527685726E-02  0.20249312426E-01  0.89981014480E-02  0.10199172074E+01  0.10196344912E+01 0.  0.
     999903    2    3    3    0    0  0.77249525286E-01 -0.95842038810E-01  0.28583525641E-01  0.12787268073E+00  0.19524829806E-01 0.  0.
         14    1    1    2    0    0  0.92527685726E-02 -0.20249312426E-01 -0.89981014480E-02  0.24012792625E-01  0.00000000000E+00 0.  1.
     999901    1    3    3    0    0 -0.86502293859E-01  0.11609135124E+00 -0.19585424193E-01  0.89204452664E+00  0.88000000000E+00 0.  1.
        -11    1    4    4    0    0  0.60427337879E-01 -0.60642252526E-01  0.20385280930E-01  0.88004356450E-01  0.51100000000E-03 0. -1.
         11    1    4    4    0    0  0.16822187407E-01 -0.35199786284E-01  0.81982447113E-02  0.39868324281E-01  0.51100000000E-03 0.  1.
</event>
<event>
 8    1  0.1163913E+005  0.1043930E+01  0.7957747E-01            NaN
         13   -1    0    0    0    0  0.00000000000E+00  0.00000000000E+00  0.74505805969E-08  0.10566000000E+00  0.10566000000E+00 0. -1.
     999900   -1    0    0    0    0 -0.00000000000E+00 -0.00000000000E+00 -0.74505805969E-08  0.93827000000E+00  0.93827000000E+00 0. -1.
     999902    2    1    2    0    0  0.11584640399E-01 -0.15810201428E-01 -0.13792869724E-01  0.10199631559E+01  0.10196815335E+01 0.  0.
     999903    2    3    3    0    0  0.45116684156E-01 -0.11212839083E+00 -0.52211527668E-01  0.13324020881E+00  0.20460166241E-01 0.  0.
         14    1    1    2    0    0 -0.11584640399E-01  0.15810201428E-01  0.13792869724E-01  0.23966844131E-01  0.00000000000E+00 0. -1.
     999901    1    3    3    0    0 -0.33532043757E-01  0.96318189400E-01  0.38418657944E-01  0.88672294706E+00  0.88000000000E+00 0. -1.
        -11    1    4    4    0    0  0.23930433822E-01 -0.34901872062E-01 -0.14626064786E-01  0.44777106075E-01  0.51100000000E-03 0. -1.
         11    1    4    4    0    0  0.21186250335E-01 -0.77226518766E-01 -0.37585462882E-01  0.88463102732E-01  0.51100000000E-03 0.  1.
</event>
<event>
 8    1  0.1163913E+005  0.1043930E+01  0.7957747E-01            NaN
         13   -1    0    0    0    0  0.00000000000E+00  0.00000000000E+00  0.74505805969E-08  0.10566000000E+00  0.10566000000E+00 0. -1.
     999900   -1    0    0    0    0 -0.00000000000E+00 -0.00000000000E+00 -0.74505805969E-08  0.93827000000E+00  0.93827000000E+00 0.  1.
     999902    2    1    2    0    0  0.22795330286E-01  0.75968393980E-02  0.18526698769E-02  0.10198308001E+01  0.10195460212E+01 0.  0.
     999903    2    3    3    0    0  0.62019346286E-01 -0.48344231119E-01  0.10329800970E+00  0.13137197504E+00  0.20113503423E-01 0.  0.
         14    1    1    2    0    0 -0.22795330286E-01 -0.75968393980E-02 -0.18526698769E-02  0.24099199932E-01  0.00000000000E+00 0. -1.
     999901    1    3    3    0    0 -0.39224016000E-01  0.55941070517E-01 -0.10144533983E+00  0.88845882503E+00  0.88000000000E+00 0.  1.
        -11    1    4    4    0    0  0.54810793538E-01 -0.49020109525E-01  0.89994804389E-01  0.11621755532E+00  0.51100000000E-03 0.  1.
         11    1    4    4    0    0  0.72085527486E-02  0.67587840607E-03  0.13303205316E-01  0.15154419719E-01  0.51100000000E-03 0. -1.
</event>
<event>
 8    1  0.1163913E+005  0.1043930E+01  0.7957747E-01            NaN
         13   -1    0    0    0    0  0.00000000000E+00  0.00000000000E+00  0.74505805969E-08  0.10566000000E+00  0.10566000000E+00 0.  1.
     999900   -1    0    0    0    0 -0.00000000000E+00 -0.00000000000E+00 -0.74505805969E-08  0.93827000000E+00  0.93827000000E+00 0. -1.
     999902    2    1    2    0    0  0.20615081801E-01 -0.88773159625E-02 -0.46706878169E-02  0.10210039523E+01  0.10207465244E+01 0.  0.
     999903    2    3    3    0    0  0.21578843602E-01  0.11055977242E+00 -0.64542540411E-01  0.13091924534E+00  0.16881928472E-01 0.  0.
         14    1    1    2    0    0 -0.20615081801E-01  0.88773159625E-02  0.46706878169E-02  0.22926047654E-01  0.00000000000E+00 0.  1.
     999901    1    3    3    0    0 -0.96376180099E-03 -0.11943708838E+00  0.59871852594E-01  0.89008470701E+00  0.88000000000E+00 0.  1.
        -11    1    4    4    0    0  0.16798431101E-01  0.44605176352E-01 -0.29859011375E-01  0.56246161879E-01  0.51100000000E-03 0.  1.
         11    1    4    4    0    0  0.47804125007E-02  0.65954596065E-01 -0.34683529037E-01  0.74673083458E-01  0.51100000000E-03 0. -1.
</event>
<event>
 8    1  0.1163913E+005  0.1043930E+01  0.7957747E-01            NaN
         13   -1    0    0    0    0  0.00000000000E+00  0.00000000000E+00  0.74505805969E-08  0.10566000000E+00  0.10566000000E+00 0.  1.
     999900   -1    0    0    0    0 -0.00000000000E+00 -0.00000000000E+00 -0.74505805969E-08  0.93827000000E+00  0.93827000000E+00 0. -1.
     999902    2    1    2    0    0  0.20941832019E-01 -0.43948449360E-02 -0.66067375357E-02  0.10215352691E+01  0.10212897640E+01 0.  0.
     999903    2    3    3    0    0 -0.10483608149E+00  0.71425700229E-01 -0.15064557187E-01  0.12932432248E+00  0.20139634206E-01 0.  0.
         14    1    1    2    0    0 -0.20941832019E-01  0.43948449360E-02  0.66067375357E-02  0.22394730880E-01  0.00000000000E+00 0.  1.
     999901    1    3    3    0    0  0.12577791351E+00 -0.75820545165E-01  0.84578196517E-02  0.89221094664E+00  0.88000000000E+00 0.  1.
        -11    1    4    4    0    0 -0.32471528275E-01  0.11920474359E-01 -0.69358380421E-02  0.35282642018E-01  0.51100000000E-03 0.  1.
         11    1    4    4    0    0 -0.72364553214E-01  0.59505225870E-01 -0.81287191453E-02  0.94041680459E-01  0.51100000000E-03 0. -1.
</event>
<event>
 8    1  0.1163913E+005  0.1043930E+01  0.7957747E-01            NaN
         13   -1    0    0    0    0  0.00000000000E+00  0.00000000000E+00  0.74505805969E-08  0.10566000000E+00  0.10566000000E+00 0.  1.
     999900   -1    0    0    0    0 -0.00000000000E+00 -0.00000000000E+00 -0.74505805969E-08  0.93827000000E+00  0.93827000000E+00 0. -1.
     999902    2    1    2    0    0 -0.12278906555E-01 -0.13755758315E-01  0.15886316779E-01  0.10195913991E+01  0.10193008651E+01 0.  0.
     999903    2    3    3    0    0 -0.20188759896E-01  0.41169933778E-01  0.12164004445E+00  0.13152425730E+00  0.19994508532E-01 0.  0.
         14    1    1    2    0    0  0.12278906555E-01  0.13755758315E-01 -0.15886316779E-01  0.24338600901E-01  0.00000000000E+00 0. -1.
     999901    1    3    3    0    0  0.79098533410E-02 -0.54925692093E-01 -0.10575372767E+00  0.88806714180E+00  0.88000000000E+00 0. -1.
        -11    1    4    4    0    0 -0.14543596278E-01  0.10053481739E-01  0.54692228663E-01  0.57481211582E-01  0.51100000000E-03 0.  1.
         11    1    4    4    0    0 -0.56451636178E-02  0.31116452039E-01  0.66947815783E-01  0.74043045715E-01  0.51100000000E-03 0. -1.
</event>
<event>
 8    1  0.1163913E+005  0.1043930E+01  0.7957747E-01            NaN
         13   -1    0    0    0    0  0.00000000000E+00  0.00000000000E+00  0.74505805969E-08  0.10566000000E+00  0.10566000000E+00 0.  1.
     999900   -1    0    0    0    0 -0.00000000000E+00 -0.00000000000E+00 -0.74505805969E-08  0.93827000000E+00  0.93827000000E+00 0. -1.
     999902    2    1    2    0    0  0.21717290276E-01  0.12288339447E-01  0.18675353846E-02  0.10189073768E+01  0.10186000740E+01 0.  0.
     999903    2    3    3    0    0  0.12019280864E+00  0.88596629225E-02 -0.49749511098E-01  0.13190483846E+00  0.19976678394E-01 0.  0.
         14    1    1    2    0    0 -0.21717290276E-01 -0.12288339447E-01 -0.18675353846E-02  0.25022623198E-01  0.00000000000E+00 0.  1.
     999901    1    3    3    0    0 -0.98475518360E-01  0.34286765245E-02  0.51617046483E-01  0.88700253834E+00  0.88000000000E+00 0.  1.
        -11    1    4    4    0    0  0.38096112204E-01 -0.64243984134E-02 -0.14714659492E-01  0.41344515780E-01  0.51100000000E-03 0.  1.
         11    1    4    4    0    0  0.82096696431E-01  0.15284061336E-01 -0.35034851606E-01  0.90560322680E-01  0.51100000000E-03 0. -1.
</event>
<event>
 8    1  0.1163913E+005  0.1043930E+01  0.7957747E-01            NaN
         13   -1    0    0    0    0  0.00000000000E+00  0.00000000000E+00  0.74505805969E-08  0.10566000000E+00  0.10566000000E+00 0.  1.
     999900   -1    0    0    0    0 -0.00000000000E+00 -0.00000000000E+00 -0.74505805969E-08  0.93827000000E+00  0.93827000000E+00 0. -1.
     999902    2    1    2    0    0  0.14268767567E-01  0.18832650352E-01  0.25117836645E-02  0.10201692024E+01  0.10198924580E+01 0.  0.
     999903    2    3    3    0    0 -0.53811750301E-01  0.83468653746E-01 -0.83457944591E-01  0.13101029417E+00  0.18323428553E-01 0.  0.
         14    1    1    2    0    0 -0.14268767567E-01 -0.18832650352E-01 -0.25117836645E-02  0.23760797637E-01  0.00000000000E+00 0.  1.
     999901    1    3    3    0    0  0.68080517868E-01 -0.64636003394E-01  0.85969728255E-01  0.88915890820E+00  0.88000000000E+00 0.  1.
        -11    1    4    4    0    0 -0.20106649559E-01  0.19444945231E-01 -0.16813582613E-01  0.32639560855E-01  0.51100000000E-03 0.  1.
         11    1    4    4    0    0 -0.33705100742E-01  0.64023708514E-01 -0.66644361978E-01  0.98370733312E-01  0.51100000000E-03 0. -1.
</event>
<event>
 8    1  0.1163913E+005  0.1043930E+01  0.7957747E-01            NaN
         13   -1    0    0    0    0  0.00000000000E+00  0.00000000000E+00  0.74505805969E-08  0.10566000000E+00  0.10566000000E+00 0.  1.
     999900   -1    0    0    0    0 -0.00000000000E+00 -0.00000000000E+00 -0.74505805969E-08  0.93827000000E+00  0.93827000000E+00 0. -1.
     999902    2    1    2    0    0 -0.22780018591E-01  0.46852745217E-02  0.11906828903E-01  0.10178023591E+01  0.10174669472E+01 0.  0.
     999903    2    3    3    0    0 -0.10980590438E+00  0.66733893507E-01 -0.13619775913E-01  0.13096802087E+00  0.21362935566E-01 0.  0.
         14    1    1    2    0    0  0.22780018591E-01 -0.46852745217E-02 -0.11906828903E-01  0.26127640898E-01  0.00000000000E+00 0. -1.
     999901    1    3    3    0    0  0.87025885786E-01 -0.62048618985E-01  0.25526604816E-01  0.88683433823E+00  0.88000000000E+00 0.  1.
        -11    1    4    4    0    0 -0.37402396585E-01  0.12058843444E-01 -0.76727147086E-02  0.40043559376E-01  0.51100000000E-03 0. -1.
         11    1    4    4    0    0 -0.72403507792E-01  0.54675050063E-01 -0.59470612040E-02  0.90924461493E-01  0.51100000000E-03 0.  1.
</event>
<event>
 8    1  0.1163913E+005  0.1043930E+01  0.7957747E-01            NaN
         13   -1    0    0    0    0  0.00000000000E+00  0.00000000000E+00  0.74505805969E-08  0.10566000000E+00  0.10566000000E+00 0.  1.
     999900   -1    0    0    0    0 -0.00000000000E+00 -0.00000000000E+00 -0.74505805969E-08  0.93827000000E+00  0.93827000000E+00 0. -1.
     999902    2    1    2    0    0  0.40183823668E-02 -0.20650190232E-01  0.88740661978E-02  0.10210974179E+01  0.10208421083E+01 0.  0.
     999903    2    3    3    0    0 -0.99647080763E-01  0.46958837392E-01  0.67210814351E-01  0.13052418396E+00  0.19611117239E-01 0.  0.
         14    1    1    2    0    0 -0.40183823668E-02  0.20650190232E-01 -0.88740661978E-02  0.22832582078E-01  0.00000000000E+00 0. -1.
     999901    1    3    3    0    0  0.10366546313E+00 -0.67609027623E-01 -0.58336748153E-01  0.89057323396E+00  0.88000000000E+00 0. -1.
        -11    1    4    4    0    0 -0.29546175542E-01  0.11811252295E-01  0.29954697654E-01  0.43703857982E-01  0.51100000000E-03 0.  1.
         11    1    4    4    0    0 -0.70100905221E-01  0.35147585097E-01  0.37256116697E-01  0.86820325980E-01  0.51100000000E-03 0. -1.
</event>
<event>
 8    1  0.1163913E+005  0.1043930E+01  0.7957747E-01            NaN
         13   -1    0    0    0    0  0.00000000000E+00  0.00000000000E+00  0.74505805969E-08  0.10566000000E+00  0.10566000000E+00 0.  1.
     999900   -1    0    0    0    0 -0.00000000000E+00 -0.00000000000E+00 -0.74505805969E-08  0.93827000000E+00  0.93827000000E+00 0.  1.
     999902    2    1    2    0    0  0.60848869352E-02  0.15774903221E-01 -0.16067027829E-01  0.10206057036E+01  0.10203391492E+01 0.  0.
     999903    2    3    3    0    0  0.46616861840E-01 -0.85909556966E-01  0.80955743631E-01  0.12853172199E+00  0.20322090070E-01 0.  0.
         14    1    1    2    0    0 -0.60848869352E-02 -0.15774903221E-01  0.16067027829E-01  0.23324296429E-01  0.00000000000E+00 0.  1.
     999901    1    3    3    0    0 -0.40531974905E-01  0.10168446019E+00 -0.97022771460E-01  0.89207398158E+00  0.88000000000E+00 0.  1.
        -11    1    4    4    0    0  0.15934980694E-01 -0.42184978123E-01  0.26778331550E-01  0.52448414185E-01  0.51100000000E-03 0. -1.
         11    1    4    4    0    0  0.30681881146E-01 -0.43724578843E-01  0.54177412080E-01  0.76083307804E-01  0.51100000000E-03 0.  1.
</event>
<event>
 8    1  0.1163913E+005  0.1043930E+01  0.7957747E-01            NaN
         13   -1    0    0    0    0  0.00000000000E+00  0.00000000000E+00  0.74505805969E-08  0.10566000000E+00  0.10566000000E+00 0. -1.
     999900   -1    0    0    0    0 -0.00000000000E+00 -0.00000000000E+00 -0.74505805969E-08  0.93827000000E+00  0.93827000000E+00 0. -1.
     999902    2    1    2    0    0  0.19432332883E-01  0.45817522986E-02 -0.13732028094E-01  0.10196982726E+01  0.10194103151E+01 0.  0.
     999903    2    3    3    0    0 -0.10503997837E+00 -0.94225218353E-02 -0.71548316694E-01  0.12895016055E+00  0.19667264945E-01 0.  0.
         14    1    1    2    0    0 -0.19432332883E-01 -0.45817522986E-02  0.13732028094E-01  0.24231727362E-01  0.00000000000E+00 0.  1.
     999901    1    3    3    0    0  0.12447231125E+00  0.14004274134E-01  0.57816288600E-01  0.89074811209E+00  0.88000000000E+00 0.  1.
        -11    1    4    4    0    0 -0.77426683503E-01  0.77840842697E-03 -0.56728436278E-01  0.95988925619E-01  0.51100000000E-03 0.  1.
         11    1    4    4    0    0 -0.27613294866E-01 -0.10200930262E-01 -0.14819880416E-01  0.32961234930E-01  0.51100000000E-03 0. -1.
</event>
<event>
 8    1  0.1163913E+005  0.1043930E+01  0.7957747E-01            NaN
         13   -1    0    0    0    0  0.00000000000E+00  0.00000000000E+00  0.74505805969E-08  0.10566000000E+00  0.10566000000E+00 0. -1.
     999900   -1    0    0    0    0 -0.00000000000E+00 -0.00000000000E+00 -0.74505805969E-08  0.93827000000E+00  0.93827000000E+00 0. -1.
     999902    2    1    2    0    0  0.21747256730E-01  0.12132030461E-01  0.13075955747E-02  0.10189932972E+01  0.10186881273E+01 0.  0.
     999903    2    3    3    0    0  0.57329298239E-01  0.20538863291E-02  0.11585268039E+00  0.13079949681E+00  0.19894670822E-01 0.  0.
         14    1    1    2    0    0 -0.21747256730E-01 -0.12132030461E-01 -0.13075955747E-02  0.24936702760E-01  0.00000000000E+00 0.  1.
     999901    1    3    3    0    0 -0.35582041510E-01  0.10078144131E-01 -0.11454508481E+00  0.88819380043E+00  0.88000000000E+00 0. -1.
        -11    1    4    4    0    0  0.15111164303E-01  0.65145364149E-03  0.14344750904E-01  0.20851970600E-01  0.51100000000E-03 0.  1.
         11    1    4    4    0    0  0.42218133937E-01  0.14024326876E-02  0.10150792948E+00  0.10994752621E+00  0.51100000000E-03 0. -1.
</event>
<event>
 8    1  0.1163913E+005  0.1043930E+01  0.7957747E-01            NaN
         13   -1    0    0    0    0  0.00000000000E+00  0.00000000000E+00  0.74505805969E-08  0.10566000000E+00  0.10566000000E+00 0.  1.
     999900   -1    0    0    0    0 -0.00000000000E+00 -0.00000000000E+00 -0.74505805969E-08  0.93827000000E+00  0.93827000000E+00 0.  1.
     999902    2    1    2    0    0  0.94241183723E-02  0.22319669710E-01 -0.14332953655E-03  0.10197018716E+01  0.10194140006E+01 0.  0.
     999903    2    3    3    0    0 -0.63389015263E-01 -0.18976862058E-01  0.10838358137E+00  0.12909239131E+00  0.23228349802E-01 0.  0.
         14    1    1    2    0    0 -0.94241183723E-02 -0.22319669710E-01  0.14332953655E-03  0.24228128414E-01  0.00000000000E+00 0. -1.
     999901    1    3    3    0    0  0.72813133635E-01  0.41296531768E-01 -0.10852691091E+00  0.89060948028E+00  0.88000000000E+00 0.  1.
        -11    1    4    4    0    0 -0.27279006929E-01 -0.18077058540E-01  0.39384340152E-01  0.51208511350E-01  0.51100000000E-03 0.  1.
         11    1    4    4    0    0 -0.36110008333E-01 -0.89980351739E-03  0.68999241217E-01  0.77883879961E-01  0.51100000000E-03 0. -1.
</event>
<event>
 8    1  0.1163913E+005  0.1043930E+01  0.7957747E-01            NaN
         13   -1    0    0    0    0  0.00000000000E+00  0.00000000000E+00  0.74505805969E-08  0.10566000000E+00  0.10566000000E+00 0.  1.
     999900   -1    0    0    0    0 -0.00000000000E+00 -0.00000000000E+00 -0.74505805969E-08  0.93827000000E+00  0.93827000000E+00 0.  1.
     999902    2    1    2    0    0 -0.14760686978E-01  0.22758228119E-02  0.20638003911E-01  0.10184548267E+01  0.10181361645E+01 0.  0.
     999903    2    3    3    0    0  0.37209334119E-01 -0.58731637583E-03  0.12402745845E+00  0.13087471202E+00  0.18986845702E-01 0.  0.
         14    1    1    2    0    0  0.14760686978E-01 -0.22758228119E-02 -0.20638003911E-01  0.25475173306E-01  0.00000000000E+00 0. -1.
     999901    1    3    3    0    0 -0.51970021097E-01  0.28631391877E-02 -0.10338945454E+00  0.88758011468E+00  0.88000000000E+00 0.  1.
        -11    1    4    4    0    0  0.21314765899E-01 -0.11169719122E-02  0.98554505337E-01  0.10084055987E+00  0.51100000000E-03 0.  1.
         11    1    4    4    0    0  0.15894568220E-01  0.52965553634E-03  0.25472953114E-01  0.30034152148E-01  0.51100000000E-03 0. -1.
</event>
<event>
 8    1  0.1163913E+005  0.1043930E+01  0.7957747E-01            NaN
         13   -1    0    0    0    0  0.00000000000E+00  0.00000000000E+00  0.74505805969E-08  0.10566000000E+00  0.10566000000E+00 0.  1.
     999900   -1    0    0    0    0 -0.00000000000E+00 -0.00000000000E+00 -0.74505805969E-08  0.93827000000E+00  0.93827000000E+00 0.  1.
     999902    2    1    2    0    0 -0.14962292896E-01 -0.10919152427E-01 -0.16243652852E-01  0.10192935563E+01  0.10189957800E+01 0.  0.
     999903    2    3    3    0    0 -0.58053693848E-02 -0.12916523918E+00 -0.11035413955E-01  0.13132220993E+00  0.20158897118E-01 0.  0.
         14    1    1    2    0    0  0.14962292896E-01  0.10919152427E-01  0.16243652852E-01  0.24636443665E-01  0.00000000000E+00 0.  1.
     999901    1    3    3    0    0 -0.91569235117E-02  0.11824608676E+00 -0.52082388971E-02  0.88797134640E+00  0.88000000000E+00 0.  1.
        -11    1    4    4    0    0  0.26259136210E-02 -0.84760185942E-01 -0.14314922861E-01  0.86002108584E-01  0.51100000000E-03 0. -1.
         11    1    4    4    0    0 -0.84312830058E-02 -0.44405053242E-01  0.32795089060E-02  0.45320101348E-01  0.51100000000E-03 0.  1.
</event>
<event>
 8    1  0.1163913E+005  0.1043930E+01  0.7957747E-01            NaN
         13   -1    0    0    0    0  0.00000000000E+00  0.00000000000E+00  0.74505805969E-08  0.10566000000E+00  0.10566000000E+00 0.  1.
     999900   -1    0    0    0    0 -0.00000000000E+00 -0.00000000000E+00 -0.74505805969E-08  0.93827000000E+00  0.93827000000E+00 0. -1.
     999902    2    1    2    0    0 -0.15137073198E-01  0.14283324750E-01 -0.11089445206E-01  0.10203478002E+01  0.10200752488E+01 0.  0.
     999903    2    3    3    0    0 -0.50813824439E-01 -0.29190453016E-01  0.11407625623E+00  0.12971361453E+00  0.19444851664E-01 0.  0.
         14    1    1    2    0    0  0.15137073198E-01 -0.14283324750E-01  0.11089445206E-01  0.23582199768E-01  0.00000000000E+00 0. -1.
     999901    1    3    3    0    0  0.35676751241E-01  0.43473777766E-01 -0.12516570144E+00  0.89063418571E+00  0.88000000000E+00 0. -1.
        -11    1    4    4    0    0 -0.21803349432E-01 -0.21075873518E-01  0.70387993475E-01  0.76644042413E-01  0.51100000000E-03 0. -1.
         11    1    4    4    0    0 -0.29010475007E-01 -0.81145794980E-02  0.43688262756E-01  0.53069572113E-01  0.51100000000E-03 0.  1.
</event>
<event>
 8    1  0.1163913E+005  0.1043930E+01  0.7957747E-01            NaN
         13   -1    0    0    0    0  0.00000000000E+00  0.00000000000E+00  0.74505805969E-08  0.10566000000E+00  0.10566000000E+00 0.  1.
     999900   -1    0    0    0    0 -0.00000000000E+00 -0.00000000000E+00 -0.74505805969E-08  0.93827000000E+00  0.93827000000E+00 0. -1.
     999902    2    1    2    0    0  0.62563322926E-02 -0.39679871087E-03 -0.22474462975E-01  0.10205976056E+01  0.10203308639E+01 0.  0.
     999903    2    3    3    0    0  0.16980964062E-01  0.12852840229E+00 -0.22017558719E-02  0.13090793619E+00  0.18003796587E-01 0.  0.
         14    1    1    2    0    0 -0.62563322926E-02  0.39679871087E-03  0.22474462975E-01  0.23332394412E-01  0.00000000000E+00 0.  1.
     999901    1    3    3    0    0 -0.10724631770E-01 -0.12892520101E+00 -0.20272707103E-01  0.88968966940E+00  0.88000000000E+00 0.  1.
        -11    1    4    4    0    0  0.61408157216E-02  0.96445662276E-01 -0.59929619313E-02  0.96827951044E-01  0.51100000000E-03 0. -1.
         11    1    4    4    0    0  0.10840148341E-01  0.32082740019E-01  0.37912060594E-02  0.34079985146E-01  0.51100000000E-03 0.  1.
</event>
<event>
 8    1  0.1163913E+005  0.1043930E+01  0.7957747E-01            NaN
         13   -1    0    0    0    0  0.00000000000E+00  0.00000000000E+00  0.74505805969E-08  0.10566000000E+00  0.10566000000E+00 0. -1.
     999900   -1    0    0    0    0 -0.00000000000E+00 -0.00000000000E+00 -0.74505805969E-08  0.93827000000E+00  0.93827000000E+00 0.  1.
     999902    2    1    2    0    0 -0.73101470704E-02  0.64147173142E-02  0.32738650632E-01  0.10097773121E+01  0.10091995907E+01 0.  0.
     999903    2    3    3    0    0 -0.11502435437E+00  0.35690794362E-01 -0.12914989330E-02  0.12207381977E+00  0.19897602970E-01 0.  0.
         14    1    1    2    0    0  0.73101470704E-02 -0.64147173142E-02 -0.32738650632E-01  0.34152687941E-01  0.00000000000E+00 0.  1.
     999901    1    3    3    0    0  0.10771420730E+00 -0.29276077047E-01  0.34030149565E-01  0.88770349229E+00  0.88000000000E+00 0. -1.
        -11    1    4    4    0    0 -0.49791727403E-01  0.25638687327E-01  0.12349085416E-02  0.56020929354E-01  0.51100000000E-03 0.  1.
         11    1    4    4    0    0 -0.65232626965E-01  0.10052107034E-01 -0.25264074746E-02  0.66052890416E-01  0.51100000000E-03 0. -1.
</event>
<event>
 8    1  0.1163913E+005  0.1043930E+01  0.7957747E-01            NaN
         13   -1    0    0    0    0  0.00000000000E+00  0.00000000000E+00  0.74505805969E-08  0.10566000000E+00  0.10566000000E+00 0.  1.
     999900   -1    0    0    0    0 -0.00000000000E+00 -0.00000000000E+00 -0.74505805969E-08  0.93827000000E+00  0.93827000000E+00 0.  1.
     999902    2    1    2    0    0 -0.10886062605E-01  0.15638045423E-01  0.14106905149E-01  0.10202222039E+01  0.10199467073E+01 0.  0.
     999903    2    3    3    0    0  0.29138065916E-01 -0.10780142833E+00 -0.58593894051E-01  0.12773991233E+00  0.20348610400E-01 0.  0.
         14    1    1    2    0    0  0.10886062605E-01 -0.15638045423E-01 -0.14106905149E-01  0.23707796114E-01  0.00000000000E+00 0. -1.
     999901    1    3    3    0    0 -0.40024128521E-01  0.12343947375E+00  0.72700799200E-01  0.89248229156E+00  0.88000000000E+00 0.  1.
        -11    1    4    4    0    0  0.18781734114E-01 -0.77990604490E-01 -0.51684836103E-01  0.95429928896E-01  0.51100000000E-03 0. -1.
         11    1    4    4    0    0  0.10356331802E-01 -0.29810823842E-01 -0.69090579478E-02  0.32309983430E-01  0.51100000000E-03 0.  1.
</event>
<event>
 8    1  0.1163913E+005  0.1043930E+01  0.7957747E-01            NaN
         13   -1    0    0    0    0  0.00000000000E+00  0.00000000000E+00  0.74505805969E-08  0.10566000000E+00  0.10566000000E+00 0. -1.
     999900   -1    0    0    0    0 -0.00000000000E+00 -0.00000000000E+00 -0.74505805969E-08  0.93827000000E+00  0.93827000000E+00 0. -1.
     999902    2    1    2    0    0 -0.79647643377E-03  0.16767512815E-01 -0.17413472602E-01  0.10197429603E+01  0.10194560767E+01 0.  0.
     999903    2    3    3    0    0  0.17486354836E-01 -0.47896883547E-01  0.11503288508E+00  0.12729812519E+00  0.19296734672E-01 0.  0.
         14    1    1    2    0    0  0.79647643377E-03 -0.16767512815E-01  0.17413472602E-01  0.24187039686E-01  0.00000000000E+00 0. -1.
     999901    1    3    3    0    0 -0.18282831269E-01  0.64664396362E-01 -0.13244635768E+00  0.89244483512E+00  0.88000000000E+00 0. -1.
        -11    1    4    4    0    0 -0.30275045595E-02 -0.12650756593E-01  0.19760140185E-01  0.23662875720E-01  0.51100000000E-03 0. -1.
         11    1    4    4    0    0  0.20513859395E-01 -0.35246126954E-01  0.95272744892E-01  0.10363524947E+00  0.51100000000E-03 0.  1.
</event>
<event>
 8    1  0.1163913E+005  0.1043930E+01  0.7957747E-01            NaN
         13   -1    0    0    0    0  0.00000000000E+00  0.00000000000E+00  0.74505805969E-08  0.10566000000E+00  0.10566000000E+00 0. -1.
     999900   -1    0    0    0    0 -0.00000000000E+00 -0.00000000000E+00 -0.74505805969E-08  0.93827000000E+00  0.93827000000E+00 0. -1.
     999902    2    1    2    0    0  0.10686112641E-01 -0.20831081252E-01  0.80924502994E-02  0.10191587525E+01  0.10188576683E+01 0.  0.
     999903    2    3    3    0    0  0.12191290558E+00  0.38467796872E-01 -0.15100439686E-01  0.12987495837E+00  0.17232341365E-01 0.  0.
         14    1    1    2    0    0 -0.10686112641E-01  0.20831081252E-01 -0.80924502994E-02  0.24771247472E-01  0.00000000000E+00 0. -1.
     999901    1    3    3    0    0 -0.11122679294E+00 -0.59298878124E-01  0.23192889986E-01  0.88928379416E+00  0.88000000000E+00 0.  1.
        -11    1    4    4    0    0  0.35691931266E-01  0.14391925063E-01 -0.11944642304E-01  0.40298598800E-01  0.51100000000E-03 0. -1.
         11    1    4    4    0    0  0.86220974313E-01  0.24075871808E-01 -0.31557973821E-02  0.89576359565E-01  0.51100000000E-03 0.  1.
</event>
<event>
 8    1  0.1163913E+005  0.1043930E+01  0.7957747E-01            NaN
         13   -1    0    0    0    0  0.00000000000E+00  0.00000000000E+00  0.74505805969E-08  0.10566000000E+00  0.10566000000E+00 0.  1.
     999900   -1    0    0    0    0 -0.00000000000E+00 -0.00000000000E+00 -0.74505805969E-08  0.93827000000E+00  0.93827000000E+00 0.  1.
     999902    2    1    2    0    0 -0.21922892114E-01 -0.23639775525E-02 -0.77230946631E-02  0.10205666146E+01  0.10202991556E+01 0.  0.
     999903    2    3    3    0    0 -0.88479110639E-01  0.35171575245E-01 -0.91238764101E-01  0.13331607779E+00  0.19572220024E-01 0.  0.
         14    1    1    2    0    0  0.21922892114E-01  0.23639775525E-02  0.77230946631E-02  0.23363385450E-01  0.00000000000E+00 0.  1.
     999901    1    3    3    0    0  0.66556218525E-01 -0.37535552797E-01  0.83515669438E-01  0.88725053677E+00  0.88000000000E+00 0. -1.
        -11    1    4    4    0    0 -0.41247683415E-01  0.12477544438E-01 -0.53699344519E-01  0.68854493136E-01  0.51100000000E-03 0.  1.
         11    1    4    4    0    0 -0.47231427224E-01  0.22694030807E-01 -0.37539419583E-01  0.64461584649E-01  0.51100000000E-03 0. -1.
</event>
<event>
 8    1  0.1163913E+005  0.1043930E+01  0.7957747E-01            NaN
         13   -1    0    0    0    0  0.00000000000E+00  0.00000000000E+00  0.74505805969E-08  0.10566000000E+00  0.10566000000E+00 0.  1.
     999900   -1    0    0    0    0 -0.00000000000E+00 -0.00000000000E+00 -0.74505805969E-08  0.93827000000E+00  0.93827000000E+00 0.  1.
     999902    2    1    2    0    0 -0.24737249413E-01  0.22489720264E-02 -0.51635313559E-02  0.10185597134E+01  0.10182437029E+01 0.  0.
     999903    2    3    3    0    0 -0.30627909675E-01  0.57909847293E-01 -0.11105604543E+00  0.13044594965E+00  0.19775775268E-01 0.  0.
         14    1    1    2    0    0  0.24737249413E-01 -0.22489720264E-02  0.51635313559E-02  0.25370286553E-01  0.00000000000E+00 0. -1.
     999901    1    3    3    0    0  0.58906602616E-02 -0.55660875266E-01  0.10589251408E+00  0.88811376380E+00  0.88000000000E+00 0. -1.
        -11    1    4    4    0    0 -0.21491385216E-01  0.19768699679E-01 -0.47835528402E-01  0.56046231131E-01  0.51100000000E-03 0. -1.
         11    1    4    4    0    0 -0.91365244584E-02  0.38141147614E-01 -0.63220517031E-01  0.74399718515E-01  0.51100000000E-03 0.  1.
</event>
<event>
 8    1  0.1163913E+005  0.1043930E+01  0.7957747E-01            NaN
         13   -1    0    0    0    0  0.00000000000E+00  0.00000000000E+00  0.74505805969E-08  0.10566000000E+00  0.10566000000E+00 0.  1.
     999900   -1    0    0    0    0 -0.00000000000E+00 -0.00000000000E+00 -0.74505805969E-08  0.93827000000E+00  0.93827000000E+00 0.  1.
     999902    2    1    2    0    0  0.23172968359E-02 -0.92052404186E-02  0.20987361718E-01  0.10208957718E+01  0.10206358808E+01 0.  0.
     999903    2    3    3    0    0  0.25118896135E-01 -0.12790714038E+00 -0.85933069365E-02  0.13214098565E+00  0.19904764778E-01 0.  0.
         14    1    1    2    0    0 -0.23172968359E-02  0.92052404186E-02 -0.20987361718E-01  0.23034228177E-01  0.00000000000E+00 0. -1.
     999901    1    3    3    0    0 -0.22801599299E-01  0.11870189996E+00  0.29580668655E-01  0.88875478617E+00  0.88000000000E+00 0. -1.
        -11    1    4    4    0    0  0.72910597535E-02 -0.83355395029E-01 -0.19823985245E-02  0.83698700454E-01  0.51100000000E-03 0.  1.
         11    1    4    4    0    0  0.17827836382E-01 -0.44551745353E-01 -0.66109084119E-02  0.48442285197E-01  0.51100000000E-03 0. -1.
</event>
<event>
 8    1  0.1163913E+005  0.1043930E+01  0.7957747E-01            NaN
         13   -1    0    0    0    0  0.00000000000E+00  0.00000000000E+00  0.74505805969E-08  0.10566000000E+00  0.10566000000E+00 0.  1.
     999900   -1    0    0    0    0 -0.00000000000E+00 -0.00000000000E+00 -0.74505805969E-08  0.93827000000E+00  0.93827000000E+00 0. -1.
     999902    2    1    2    0    0 -0.37064839864E-02  0.21017478377E-01  0.10125789281E-01  0.10203078911E+01  0.10200344056E+01 0.  0.
     999903    2    3    3    0    0 -0.44951615184E-01  0.11907095672E+00 -0.32572769433E-01  0.13287405559E+00  0.19899469804E-01 0.  0.
         14    1    1    2    0    0  0.37064839864E-02 -0.21017478377E-01 -0.10125789281E-01  0.23622108912E-01  0.00000000000E+00 0. -1.
     999901    1    3    3    0    0  0.41245131198E-01 -0.98053478347E-01  0.42698558714E-01  0.88743383549E+00  0.88000000000E+00 0. -1.
        -11    1    4    4    0    0 -0.27290037366E-01  0.54084353506E-01 -0.23233122684E-01  0.64883761792E-01  0.51100000000E-03 0.  1.
         11    1    4    4    0    0 -0.17661577818E-01  0.64986603219E-01 -0.93396467489E-02  0.67990293802E-01  0.51100000000E-03 0. -1.
</event>
<event>
 8    1  0.1163913E+005  0.1043930E+01  0.7957747E-01            NaN
         13   -1    0    0    0    0  0.00000000000E+00  0.00000000000E+00  0.74505805969E-08  0.10566000000E+00  0.10566000000E+00 0.  1.
     999900   -1    0    0    0    0 -0.00000000000E+00 -0.00000000000E+00 -0.74505805969E-08  0.93827000000E+00  0.93827000000E+00 0. -1.
     999902    2    1    2    0    0  0.13940822351E-01  0.22606611696E-01  0.99209733238E-02  0.10155780842E+01  0.10151822565E+01 0.  0.
     999903    2    3    3    0    0  0.83567042199E-02 -0.24929300121E-01  0.12241914881E+00  0.12712623697E+00  0.21984713352E-01 0.  0.
         14    1    1    2    0    0 -0.13940822351E-01 -0.22606611696E-01 -0.99209733238E-02  0.28351915842E-01  0.00000000000E+00 0. -1.
     999901    1    3    3    0    0  0.55841181315E-02  0.47535911817E-01 -0.11249817548E+00  0.88845184719E+00  0.88000000000E+00 0.  1.
        -11    1    4    4    0    0  0.10249802157E-01 -0.19954949851E-01  0.53704721320E-01  0.58204095052E-01  0.51100000000E-03 0.  1.
         11    1    4    4    0    0 -0.18930979372E-02 -0.49743502697E-02  0.68714427487E-01  0.68922141916E-01  0.51100000000E-03 0. -1.
</event>
<event>
 8    1  0.1163913E+005  0.1043930E+01  0.7957747E-01            NaN
         13   -1    0    0    0    0  0.00000000000E+00  0.00000000000E+00  0.74505805969E-08  0.10566000000E+00  0.10566000000E+00 0. -1.
     999900   -1    0    0    0    0 -0.00000000000E+00 -0.00000000000E+00 -0.74505805969E-08  0.93827000000E+00  0.93827000000E+00 0.  1.
     999902    2    1    2    0    0  0.40596595263E-02 -0.14009923231E-01 -0.18559081397E-01  0.10203249521E+01  0.10200518661E+01 0.  0.
     999903    2    3    3    0    0 -0.12213217818E+00  0.27781967135E-01 -0.29888474683E-01  0.13026916892E+00  0.19713670580E-01 0.  0.
         14    1    1    2    0    0 -0.40596595263E-02  0.14009923231E-01  0.18559081397E-01  0.23605047907E-01  0.00000000000E+00 0. -1.
     999901    1    3    3    0    0  0.12619183771E+00 -0.41791890366E-01  0.11329393285E-01  0.89005578317E+00  0.88000000000E+00 0.  1.
        -11    1    4    4    0    0 -0.54702824762E-01  0.18922568230E-01 -0.21472179032E-01  0.61739600086E-01  0.51100000000E-03 0. -1.
         11    1    4    4    0    0 -0.67429353418E-01  0.88593989048E-02 -0.84162956510E-02  0.68529568836E-01  0.51100000000E-03 0.  1.
</event>
<event>
 8    1  0.1163913E+005  0.1043930E+01  0.7957747E-01            NaN
         13   -1    0    0    0    0  0.00000000000E+00  0.00000000000E+00  0.74505805969E-08  0.10566000000E+00  0.10566000000E+00 0.  1.
     999900   -1    0    0    0    0 -0.00000000000E+00 -0.00000000000E+00 -0.74505805969E-08  0.93827000000E+00  0.93827000000E+00 0. -1.
     999902    2    1    2    0    0 -0.10979407263E-01  0.19826612652E-01  0.34767715950E-02  0.10210011995E+01  0.10207437090E+01 0.  0.
     999903    2    3    3    0    0 -0.66121468269E-01  0.83449443004E-01 -0.77499027575E-01  0.13328187925E+00  0.20545120063E-01 0.  0.
         14    1    1    2    0    0  0.10979407263E-01 -0.19826612652E-01 -0.34767715950E-02  0.22928800531E-01  0.00000000000E+00 0.  1.
     999901    1    3    3    0    0  0.55142061006E-01 -0.63622830352E-01  0.80975799170E-01  0.88771932022E+00  0.88000000000E+00 0.  1.
        -11    1    4    4    0    0 -0.55429192379E-01  0.76500664813E-01 -0.61127072935E-01  0.11252345201E+00  0.51100000000E-03 0.  1.
         11    1    4    4    0    0 -0.10692275890E-01  0.69487781908E-02 -0.16371954640E-01  0.20758427247E-01  0.51100000000E-03 0. -1.
</event>
<event>
 8    1  0.1163913E+005  0.1043930E+01  0.7957747E-01            NaN
         13   -1    0    0    0    0  0.00000000000E+00  0.00000000000E+00  0.74505805969E-08  0.10566000000E+00  0.10566000000E+00 0.  1.
     999900   -1    0    0    0    0 -0.00000000000E+00 -0.00000000000E+00 -0.74505805969E-08  0.93827000000E+00  0.93827000000E+00 0.  1.
     999902    2    1    2    0    0  0.31834363510E-02 -0.41990010942E-02 -0.23268155556E-01  0.10200726544E+01  0.10197936297E+01 0.  0.
     999903    2    3    3    0    0  0.78208658553E-01  0.27715287546E-01  0.96146467881E-01  0.12827270031E+00  0.18028059298E-01 0.  0.
         14    1    1    2    0    0 -0.31834363510E-02  0.41990010942E-02  0.23268155556E-01  0.23857345623E-01  0.00000000000E+00 0.  1.
     999901    1    3    3    0    0 -0.75025222202E-01 -0.31914288640E-01 -0.11941462344E+00  0.89179995407E+00  0.88000000000E+00 0.  1.
        -11    1    4    4    0    0  0.59312953475E-01  0.15076079004E-01  0.60981471488E-01  0.86396270718E-01  0.51100000000E-03 0.  1.
         11    1    4    4    0    0  0.18895705078E-01  0.12639208542E-01  0.35164996393E-01  0.41876429591E-01  0.51100000000E-03 0. -1.
</event>
<event>
 8    1  0.1163913E+005  0.1043930E+01  0.7957747E-01            NaN
         13   -1    0    0    0    0  0.00000000000E+00  0.00000000000E+00  0.74505805969E-08  0.10566000000E+00  0.10566000000E+00 0. -1.
     999900   -1    0    0    0    0 -0.00000000000E+00 -0.00000000000E+00 -0.74505805969E-08  0.93827000000E+00  0.93827000000E+00 0. -1.
     999902    2    1    2    0    0 -0.14498405718E-01 -0.10573295003E-01  0.20603738075E-01  0.10166076217E+01  0.10162403968E+01 0.  0.
     999903    2    3    3    0    0  0.76951240951E-01 -0.15210638983E-01 -0.94380147502E-01  0.12441602969E+00  0.20466538043E-01 0.  0.
         14    1    1    2    0    0  0.14498405718E-01  0.10573295003E-01 -0.20603738075E-01  0.27322378342E-01  0.00000000000E+00 0.  1.
     999901    1    3    3    0    0 -0.91449646668E-01  0.46373439803E-02  0.11498388558E+00  0.89219159197E+00  0.88000000000E+00 0.  1.
        -11    1    4    4    0    0  0.54312949922E-01 -0.19248112075E-01 -0.73088363457E-01  0.93072855019E-01  0.51100000000E-03 0. -1.
         11    1    4    4    0    0  0.22638291029E-01  0.40374730919E-02 -0.21291784045E-01  0.31343174672E-01  0.51100000000E-03 0.  1.
</event>
<event>
 8    1  0.1163913E+005  0.1043930E+01  0.7957747E-01            NaN
         13   -1    0    0    0    0  0.00000000000E+00  0.00000000000E+00  0.74505805969E-08  0.10566000000E+00  0.10566000000E+00 0.  1.
     999900   -1    0    0    0    0 -0.00000000000E+00 -0.00000000000E+00 -0.74505805969E-08  0.93827000000E+00  0.93827000000E+00 0. -1.
     999902    2    1    2    0    0 -0.11299681430E-01  0.19120511281E-01  0.67854880615E-02  0.10207067444E+01  0.10204425209E+01 0.  0.
     999903    2    3    3    0    0 -0.30013078616E-01 -0.52424713244E-01 -0.11210087318E+00  0.12963835350E+00  0.24297355497E-01 0.  0.
         14    1    1    2    0    0  0.11299681430E-01 -0.19120511281E-01 -0.67854880615E-02  0.23223255592E-01  0.00000000000E+00 0. -1.
     999901    1    3    3    0    0  0.18713397186E-01  0.71545224525E-01  0.11888636124E+00  0.89106839091E+00  0.88000000000E+00 0.  1.
        -11    1    4    4    0    0  0.30643024278E-02 -0.13803541719E-01 -0.27621391987E-01  0.31034337912E-01  0.51100000000E-03 0. -1.
         11    1    4    4    0    0 -0.33077381044E-01 -0.38621171525E-01 -0.84479481191E-01  0.98604015588E-01  0.51100000000E-03 0.  1.
</event>
<event>
 8    1  0.1163913E+005  0.1043930E+01  0.7957747E-01            NaN
         13   -1    0    0    0    0  0.00000000000E+00  0.00000000000E+00  0.74505805969E-08  0.10566000000E+00  0.10566000000E+00 0. -1.
     999900   -1    0    0    0    0 -0.00000000000E+00 -0.00000000000E+00 -0.74505805969E-08  0.93827000000E+00  0.93827000000E+00 0. -1.
     999902    2    1    2    0    0  0.10202966487E-01 -0.90696921508E-03  0.21689972813E-01  0.10199429610E+01  0.10196608582E+01 0.  0.
     999903    2    3    3    0    0 -0.12209591803E+00  0.15203693673E-01 -0.30447397737E-01  0.12838205244E+00  0.20404456851E-01 0.  0.
         14    1    1    2    0    0 -0.10202966487E-01  0.90696921508E-03 -0.21689972813E-01  0.23987038978E-01  0.00000000000E+00 0.  1.
     999901    1    3    3    0    0  0.13229888452E+00 -0.16110662888E-01  0.52137370550E-01  0.89156090858E+00  0.88000000000E+00 0.  1.
        -11    1    4    4    0    0 -0.88847126583E-01  0.18052578337E-02 -0.21379494198E-01  0.91402487663E-01  0.51100000000E-03 0.  1.
         11    1    4    4    0    0 -0.33248791445E-01  0.13398435839E-01 -0.90679035388E-02  0.36979564777E-01  0.51100000000E-03 0. -1.
</event>
<event>
 8    1  0.1163913E+005  0.1043930E+01  0.7957747E-01            NaN
         13   -1    0    0    0    0  0.00000000000E+00  0.00000000000E+00  0.74505805969E-08  0.10566000000E+00  0.10566000000E+00 0. -1.
     999900   -1    0    0    0    0 -0.00000000000E+00 -0.00000000000E+00 -0.74505805969E-08  0.93827000000E+00  0.93827000000E+00 0.  1.
     999902    2    1    2    0    0 -0.13474715196E-01 -0.13854498438E-01  0.14206608084E-01  0.10199436958E+01  0.10196616104E+01 0.  0.
     999903    2    3    3    0    0  0.59393524898E-01  0.98500283997E-01  0.55800639108E-01  0.12884132178E+00  0.16014934427E-01 0.  0.
         14    1    1    2    0    0  0.13474715196E-01  0.13854498438E-01 -0.14206608084E-01  0.23986304214E-01  0.00000000000E+00 0.  1.
     999901    1    3    3    0    0 -0.72868240094E-01 -0.11235478244E+00 -0.41594031024E-01  0.89110237401E+00  0.88000000000E+00 0. -1.
        -11    1    4    4    0    0  0.60503591909E-02  0.13933633486E-01  0.13301559089E-01  0.20197662827E-01  0.51100000000E-03 0.  1.
         11    1    4    4    0    0  0.53343165707E-01  0.84566650512E-01  0.42499080018E-01  0.10864365895E+00  0.51100000000E-03 0. -1.
</event>
<event>
 7    1  0.1163913E+005  0.1043930E+01  0.7957747E-01            NaN
         13   -1    0    0    0    0  0.00000000000E+00  0.00000000000E+00  0.74505805969E-08  0.10566000000E+00  0.10566000000E+00 0.  1.
     999900   -1    0    0    0    0 -0.00000000000E+00 -0.00000000000E+00 -0.74505805969E-08  0.93827000000E+00  0.93827000000E+00 0. -1.
     999902    2    1    2    0    0  0.18147550308E-01  0.88437654843E-02  0.11139946723E-01  0.10208725894E+01  0.10206121691E+01 0.  0.
         14    1    1    2    0    0 -0.18147550308E-01 -0.88437654843E-02 -0.11139946723E-01  0.23057410590E-01  0.00000000000E+00 0. -1.
     999901    1    3    3    0    0 -0.44322153922E-01 -0.94705660487E-01  0.52814052910E-01  0.88776288481E+00  0.88000000000E+00 0. -1.
        -11    1    3    3    0    0  0.31492839057E-01  0.77743140182E-01 -0.16245285833E-01  0.85439833743E-01  0.51100000000E-03 0.  1.
         11    1    3    3    0    0  0.30976865173E-01  0.25806285790E-01 -0.25428820354E-01  0.47669870860E-01  0.51100000000E-03 0. -1.
</event>
<event>
 8    1  0.1163913E+005  0.1043930E+01  0.7957747E-01            NaN
         13   -1    0    0    0    0  0.00000000000E+00  0.00000000000E+00  0.74505805969E-08  0.10566000000E+00  0.10566000000E+00 0.  1.
     999900   -1    0    0    0    0 -0.00000000000E+00 -0.00000000000E+00 -0.74505805969E-08  0.93827000000E+00  0.93827000000E+00 0.  1.
     999902    2    1    2    0    0 -0.15579467085E-02 -0.24394559803E-01  0.41975891057E-02  0.10191279537E+01  0.10188261110E+01 0.  0.
     999903    2    3    3    0    0 -0.74423853417E-01  0.92641978334E-01  0.42037162736E-01  0.12759061576E+00  0.19768562740E-01 0.  0.
         14    1    1    2    0    0  0.15579467085E-02  0.24394559803E-01 -0.41975891057E-02  0.24802046291E-01  0.00000000000E+00 0.  1.
     999901    1    3    3    0    0  0.72865906709E-01 -0.11703653814E+00 -0.37839573630E-01  0.89153733795E+00  0.88000000000E+00 0. -1.
        -11    1    4    4    0    0 -0.28385382186E-02  0.11732960334E-01  0.13791172411E-02  0.12160704863E-01  0.51100000000E-03 0.  1.
         11    1    4    4    0    0 -0.71585315199E-01  0.80909018000E-01  0.40658045495E-01  0.11542991090E+00  0.51100000000E-03 0. -1.
</event>
<event>
 8    1  0.1163913E+005  0.1043930E+01  0.7957747E-01            NaN
         13   -1    0    0    0    0  0.00000000000E+00  0.00000000000E+00  0.74505805969E-08  0.10566000000E+00  0.10566000000E+00 0. -1.
     999900   -1    0    0    0    0 -0.00000000000E+00 -0.00000000000E+00 -0.74505805969E-08  0.93827000000E+00  0.93827000000E+00 0. -1.
     999902    2    1    2    0    0 -0.19119365759E-01  0.13171986767E-01 -0.50646987263E-02  0.10201665290E+01  0.10198897216E+01 0.  0.
     999903    2    3    3    0    0 -0.12523884325E+00  0.35899723369E-01  0.19461022194E-01  0.13316066399E+00  0.19480068059E-01 0.  0.
         14    1    1    2    0    0  0.19119365759E-01 -0.13171986767E-01  0.50646987263E-02  0.23763471034E-01  0.00000000000E+00 0.  1.
     999901    1    3    3    0    0  0.10611947750E+00 -0.22727736602E-01 -0.24525720920E-01  0.88700586498E+00  0.88000000000E+00 0. -1.
        -11    1    4    4    0    0 -0.73704950956E-01  0.14984057610E-01  0.18840844116E-01  0.77538250598E-01  0.51100000000E-03 0.  1.
         11    1    4    4    0    0 -0.51533892299E-01  0.20915665759E-01  0.62017807784E-03  0.55622413391E-01  0.51100000000E-03 0. -1.
</event>
<event>
 8    1  0.1163913E+005  0.1043930E+01  0.7957747E-01            NaN
         13   -1    0    0    0    0  0.00000000000E+00  0.00000000000E+00  0.74505805969E-08  0.10566000000E+00  0.10566000000E+00 0.  1.
     999900   -1    0    0    0    0 -0.00000000000E+00 -0.00000000000E+00 -0.74505805969E-08  0.93827000000E+00  0.93827000000E+00 0. -1.
     999902    2    1    2    0    0 -0.79286123598E-02 -0.17074132797E-01 -0.14479005704E-01  0.10201806735E+01  0.10199041994E+01 0.  0.
     999903    2    3    3    0    0  0.12434313890E+00 -0.32050418388E-01 -0.49292652043E-02  0.13011814597E+00  0.20444773013E-01 0.  0.
         14    1    1    2    0    0  0.79286123598E-02  0.17074132797E-01  0.14479005704E-01  0.23749326536E-01  0.00000000000E+00 0.  1.
     999901    1    3    3    0    0 -0.13227175126E+00  0.14976285590E-01 -0.95497404996E-02  0.89006252750E+00  0.88000000000E+00 0. -1.
        -11    1    4    4    0    0  0.45351191744E-01 -0.18637344776E-01  0.54011452930E-02  0.49330666977E-01  0.51100000000E-03 0.  1.
         11    1    4    4    0    0  0.78991947158E-01 -0.13413073612E-01 -0.10330410497E-01  0.80787478990E-01  0.51100000000E-03 0. -1.
</event>
<event>
 8    1  0.1163913E+005  0.1043930E+01  0.7957747E-01            NaN
         13   -1    0    0    0    0  0.00000000000E+00  0.00000000000E+00  0.74505805969E-08  0.10566000000E+00  0.10566000000E+00 0. -1.
     999900   -1    0    0    0    0 -0.00000000000E+00 -0.00000000000E+00 -0.74505805969E-08  0.93827000000E+00  0.93827000000E+00 0. -1.
     999902    2    1    2    0    0 -0.21529355765E-01 -0.58803741445E-02 -0.12659907323E-02  0.10215761482E+01  0.10213315484E+01 0.  0.
     999903    2    3    3    0    0 -0.54583245240E-01  0.60187502500E-01 -0.10292331193E+00  0.13264885367E+00  0.20016096565E-01 0.  0.
         14    1    1    2    0    0  0.21529355765E-01  0.58803741445E-02  0.12659907323E-02  0.22353851844E-01  0.00000000000E+00 0.  1.
     999901    1    3    3    0    0  0.33053889475E-01 -0.66067876644E-01  0.10165732120E+00  0.88892729449E+00  0.88000000000E+00 0.  1.
        -11    1    4    4    0    0 -0.91631344811E-02  0.23710057939E-01 -0.31241310636E-01  0.40279157045E-01  0.51100000000E-03 0.  1.
         11    1    4    4    0    0 -0.45420110759E-01  0.36477444561E-01 -0.71682001297E-01  0.92369696622E-01  0.51100000000E-03 0. -1.
</event>
<event>
 8    1  0.1163913E+005  0.1043930E+01  0.7957747E-01            NaN
         13   -1    0    0    0    0  0.00000000000E+00  0.00000000000E+00  0.74505805969E-08  0.10566000000E+00  0.10566000000E+00 0. -1.
     999900   -1    0    0    0    0 -0.00000000000E+00 -0.00000000000E+00 -0.74505805969E-08  0.93827000000E+00  0.93827000000E+00 0. -1.
     999902    2    1    2    0    0 -0.18481283698E-02  0.20217266549E-01  0.12909418537E-01  0.10198716016E+01  0.10195877977E+01 0.  0.
     999903    2    3    3    0    0  0.75941447135E-02 -0.63349245554E-01 -0.10829768336E+00  0.12759155590E+00  0.21918461826E-01 0.  0.
         14    1    1    2    0    0  0.18481283698E-02 -0.20217266549E-01 -0.12909418537E-01  0.24058398370E-01  0.00000000000E+00 0.  1.
     999901    1    3    3    0    0 -0.94422730833E-02  0.83566512102E-01  0.12120710190E+00  0.89228004573E+00  0.88000000000E+00 0.  1.
        -11    1    4    4    0    0  0.58260303475E-02 -0.59393551432E-01 -0.84821908710E-01  0.10371380766E+00  0.51100000000E-03 0.  1.
         11    1    4    4    0    0  0.17681143659E-02 -0.39556941217E-02 -0.23475774649E-01  0.23877748235E-01  0.51100000000E-03 0. -1.
</event>
<event>
 8    1  0.1163913E+005  0.1043930E+01  0.7957747E-01            NaN
         13   -1    0    0    0    0  0.00000000000E+00  0.00000000000E+00  0.74505805969E-08  0.10566000000E+00  0.10566000000E+00 0.  1.
     999900   -1    0    0    0    0 -0.00000000000E+00 -0.00000000000E+00 -0.74505805969E-08  0.93827000000E+00  0.93827000000E+00 0. -1.
     999902    2    1    2    0    0  0.19155261614E-01 -0.39192212681E-03  0.13120898551E-01  0.10207085524E+01  0.10204443705E+01 0.  0.
     999903    2    3    3    0    0  0.12285976688E+00 -0.93048542304E-02  0.47835394478E-01  0.13389450142E+00  0.21410509462E-01 0.  0.
         14    1    1    2    0    0 -0.19155261614E-01  0.39192212681E-03 -0.13120898551E-01  0.23221447613E-01  0.00000000000E+00 0. -1.
     999901    1    3    3    0    0 -0.10370450526E+00  0.89129321036E-02 -0.34714495927E-01  0.88681405097E+00  0.88000000000E+00 0. -1.
        -11    1    4    4    0    0  0.11004960057E+00 -0.69542584422E-02  0.49279235882E-01  0.12078071248E+00  0.51100000000E-03 0. -1.
         11    1    4    4    0    0  0.12810166305E-01 -0.23505957882E-02 -0.14438414047E-02  0.13113788939E-01  0.51100000000E-03 0.  1.
</event>
<event>
 8    1  0.1163913E+005  0.1043930E+01  0.7957747E-01            NaN
         13   -1    0    0    0    0  0.00000000000E+00  0.00000000000E+00  0.74505805969E-08  0.10566000000E+00  0.10566000000E+00 0.  1.
     999900   -1    0    0    0    0 -0.00000000000E+00 -0.00000000000E+00 -0.74505805969E-08  0.93827000000E+00  0.93827000000E+00 0. -1.
     999902    2    1    2    0    0 -0.11275301977E-01  0.26170924352E-02  0.20277841765E-01  0.10205810712E+01  0.10203139470E+01 0.  0.
     999903    2    3    3    0    0  0.43813157225E-01  0.11723425726E+00  0.34083712266E-01  0.13133282982E+00  0.20570583993E-01 0.  0.
         14    1    1    2    0    0  0.11275301977E-01 -0.26170924352E-02 -0.20277841765E-01  0.23348928758E-01  0.00000000000E+00 0. -1.
     999901    1    3    3    0    0 -0.55088459203E-01 -0.11461716482E+00 -0.13805870501E-01  0.88924824142E+00  0.88000000000E+00 0. -1.
        -11    1    4    4    0    0  0.29339702063E-01  0.99984495114E-01  0.25933018873E-01  0.10738016562E+00  0.51100000000E-03 0.  1.
         11    1    4    4    0    0  0.14473455162E-01  0.17249762145E-01  0.81506933929E-02  0.23952664198E-01  0.51100000000E-03 0. -1.
</event>
<event>
 8    1  0.1163913E+005  0.1043930E+01  0.7957747E-01            NaN
         13   -1    0    0    0    0  0.00000000000E+00  0.00000000000E+00  0.74505805969E-08  0.10566000000E+00  0.10566000000E+00 0.  1.
     999900   -1    0    0    0    0 -0.00000000000E+00 -0.00000000000E+00 -0.74505805969E-08  0.93827000000E+00  0.93827000000E+00 0.  1.
     999902    2    1    2    0    0  0.32096692354E-02  0.25999695794E-01  0.18017997189E-01  0.10121348057E+01  0.10116352754E+01 0.  0.
     999903    2    3    3    0    0  0.38197088265E-01 -0.11188789185E+00 -0.91388630937E-02  0.12029703941E+00  0.20246999208E-01 0.  0.
         14    1    1    2    0    0 -0.32096692354E-02 -0.25999695794E-01 -0.18017997189E-01  0.31795194302E-01  0.00000000000E+00 0. -1.
     999901    1    3    3    0    0 -0.34987419029E-01  0.13788758765E+00  0.27156860283E-01  0.89183776629E+00  0.88000000000E+00 0.  1.
        -11    1    4    4    0    0  0.14939449861E-01 -0.33055197252E-01 -0.11537717720E-01  0.38068533971E-01  0.51100000000E-03 0. -1.
         11    1    4    4    0    0  0.23257638404E-01 -0.78832694601E-01  0.23988546264E-02  0.82228505439E-01  0.51100000000E-03 0.  1.
</event>
<event>
 8    1  0.1164016E+005  0.1043930E+01  0.7957747E-01            NaN
         13   -1    0    0    0    0  0.00000000000E+00  0.00000000000E+00  0.74505805969E-08  0.10566000000E+00  0.10566000000E+00 0. -1.
     999900   -1    0    0    0    0 -0.00000000000E+00 -0.00000000000E+00 -0.74505805969E-08  0.93827000000E+00  0.93827000000E+00 0. -1.
     999902    2    1    2    0    0 -0.85182896342E-02 -0.12117631680E-01 -0.22018305282E-01  0.10173931572E+01  0.10170470158E+01 0.  0.
     999903    2    3    3    0    0 -0.10756990036E+00  0.65341838995E-01  0.18501532089E-01  0.12753190491E+00  0.90133619488E-02 0.  0.
         14    1    1    2    0    0  0.85182896342E-02  0.12117631680E-01  0.22018305282E-01  0.26536842753E-01  0.00000000000E+00 0. -1.
     999901    1    3    3    0    0  0.99051610729E-01 -0.77459470675E-01 -0.40519837371E-01  0.88986125233E+00  0.88000000000E+00 0. -1.
        -11    1    4    4    0    0 -0.40422646003E-01  0.19579628980E-01  0.60522320057E-02  0.45323755517E-01  0.51100000000E-03 0. -1.
         11    1    4    4    0    0 -0.67147254360E-01  0.45762210014E-01  0.12449300083E-01  0.82208149395E-01  0.51100000000E-03 0.  1.
</event>
<event>
 8    1  0.1163913E+005  0.1043930E+01  0.7957747E-01            NaN
         13   -1    0    0    0    0  0.00000000000E+00  0.00000000000E+00  0.74505805969E-08  0.10566000000E+00  0.10566000000E+00 0. -1.
     999900   -1    0    0    0    0 -0.00000000000E+00 -0.00000000000E+00 -0.74505805969E-08  0.93827000000E+00  0.93827000000E+00 0. -1.
     999902    2    1    2    0    0 -0.13676253321E-01  0.19151588589E-01  0.29373943317E-03  0.10203947173E+01  0.10201232619E+01 0.  0.
     999903    2    3    3    0    0 -0.11400904666E+00  0.39874412803E-01 -0.51805609344E-01  0.13292052215E+00  0.19900063590E-01 0.  0.
         14    1    1    2    0    0  0.13676253321E-01 -0.19151588589E-01 -0.29373943317E-03  0.23535282731E-01  0.00000000000E+00 0. -1.
     999901    1    3    3    0    0  0.10033279334E+00 -0.20722824213E-01  0.52099348777E-01  0.88747419512E+00  0.88000000000E+00 0.  1.
        -11    1    4    4    0    0 -0.23124185652E-01  0.16946952529E-01 -0.12449959412E-01  0.31260034748E-01  0.51100000000E-03 0. -1.
         11    1    4    4    0    0 -0.90884861011E-01  0.22927460274E-01 -0.39355649932E-01  0.10166048740E+00  0.51100000000E-03 0.  1.
</event>
<event>
 8    1  0.1163913E+005  0.1043930E+01  0.7957747E-01            NaN
         13   -1    0    0    0    0  0.00000000000E+00  0.00000000000E+00  0.74505805969E-08  0.10566000000E+00  0.10566000000E+00 0. -1.
     999900   -1    0    0    0    0 -0.00000000000E+00 -0.00000000000E+00 -0.74505805969E-08  0.93827000000E+00  0.93827000000E+00 0.  1.
     999902    2    1    2    0    0 -0.67148601478E-02 -0.10871674117E-01  0.19888828727E-01  0.10202900306E+01  0.10200161265E+01 0.  0.
     999903    2    3    3    0    0 -0.29484551832E-01 -0.12419595742E+00  0.27943523100E-01  0.13269455397E+00  0.23087432375E-01 0.  0.
         14    1    1    2    0    0  0.67148601478E-02  0.10871674117E-01 -0.19888828727E-01  0.23639969396E-01  0.00000000000E+00 0. -1.
     999901    1    3    3    0    0  0.22769691685E-01  0.11332428330E+00 -0.80546943733E-02  0.88759547664E+00  0.88000000000E+00 0. -1.
        -11    1    4    4    0    0 -0.33565659378E-02 -0.63695617579E-01  0.15164688448E-01  0.65563916375E-01  0.51100000000E-03 0.  1.
         11    1    4    4    0    0 -0.26127985895E-01 -0.60500339838E-01  0.12778834652E-01  0.67130637592E-01  0.51100000000E-03 0. -1.
</event>
<event>
 8    1  0.1163913E+005  0.1043930E+01  0.7957747E-01            NaN
         13   -1    0    0    0    0  0.00000000000E+00  0.00000000000E+00  0.74505805969E-08  0.10566000000E+00  0.10566000000E+00 0. -1.
     999900   -1    0    0    0    0 -0.00000000000E+00 -0.00000000000E+00 -0.74505805969E-08  0.93827000000E+00  0.93827000000E+00 0. -1.
     999902    2    1    2    0    0 -0.34321070203E-02  0.23503120950E-01  0.53447584319E-02  0.10195836965E+01  0.10192929763E+01 0.  0.
     999903    2    3    3    0    0 -0.99018514693E-01  0.77014784862E-01  0.36525630347E-01  0.13224356648E+00  0.20452282634E-01 0.  0.
         14    1    1    2    0    0  0.34321070203E-02 -0.23503120950E-01 -0.53447584319E-02  0.24346303532E-01  0.00000000000E+00 0. -1.
     999901    1    3    3    0    0  0.95586407672E-01 -0.53511663912E-01 -0.31180871915E-01  0.88734012998E+00  0.88000000000E+00 0.  1.
        -11    1    4    4    0    0 -0.48028733429E-01  0.40517712172E-01  0.79768463578E-02  0.63342998297E-01  0.51100000000E-03 0.  1.
         11    1    4    4    0    0 -0.50989781263E-01  0.36497072690E-01  0.28548783989E-01  0.68900568187E-01  0.51100000000E-03 0. -1.
</event>
<event>
 8    1  0.1163913E+005  0.1043930E+01  0.7957747E-01            NaN
         13   -1    0    0    0    0  0.00000000000E+00  0.00000000000E+00  0.74505805969E-08  0.10566000000E+00  0.10566000000E+00 0.  1.
     999900   -1    0    0    0    0 -0.00000000000E+00 -0.00000000000E+00 -0.74505805969E-08  0.93827000000E+00  0.93827000000E+00 0. -1.
     999902    2    1    2    0    0  0.13529934415E-01  0.22972522603E-02 -0.17572532023E-01  0.10216335793E+01  0.10213902486E+01 0.  0.
     999903    2    3    3    0    0 -0.10743811151E+00  0.24011655212E-01 -0.69439806182E-01  0.13158021151E+00  0.19286212336E-01 0.  0.
         14    1    1    2    0    0 -0.13529934415E-01 -0.22972522603E-02  0.17572532023E-01  0.22296420675E-01  0.00000000000E+00 0. -1.
     999901    1    3    3    0    0  0.12096804593E+00 -0.21714402952E-01  0.51867274159E-01  0.89005336782E+00  0.88000000000E+00 0.  1.
        -11    1    4    4    0    0 -0.12589906865E-01  0.95633149592E-02 -0.94914948938E-02  0.18447556591E-01  0.51100000000E-03 0.  1.
         11    1    4    4    0    0 -0.94848204650E-01  0.14448340253E-01 -0.59948311288E-01  0.11313265492E+00  0.51100000000E-03 0. -1.
</event>
<event>
 8    1  0.1163913E+005  0.1043930E+01  0.7957747E-01            NaN
         13   -1    0    0    0    0  0.00000000000E+00  0.00000000000E+00  0.74505805969E-08  0.10566000000E+00  0.10566000000E+00 0.  1.
     999900   -1    0    0    0    0 -0.00000000000E+00 -0.00000000000E+00 -0.74505805969E-08  0.93827000000E+00  0.93827000000E+00 0.  1.
     999902    2    1    2    0    0  0.11857246079E-01  0.93628049100E-04  0.20160724662E-01  0.10205407317E+01  0.10202726730E+01 0.  0.
     999903    2    3    3    0    0  0.79949123882E-01  0.38359689212E-02  0.10539475802E+00  0.13379649050E+00  0.19668980236E-01 0.  0.
         14    1    1    2    0    0 -0.11857246079E-01 -0.93628049100E-04 -0.20160724662E-01  0.23389268259E-01  0.00000000000E+00 0. -1.
     999901    1    3    3    0    0 -0.68091877803E-01 -0.37423408721E-02 -0.85234033360E-01  0.88674424124E+00  0.88000000000E+00 0.  1.
        -11    1    4    4    0    0  0.63155238868E-01 -0.40899404811E-02  0.87605499256E-01  0.10807542010E+00  0.51100000000E-03 0.  1.
         11    1    4    4    0    0  0.16793885015E-01  0.79259094023E-02  0.17789258766E-01  0.25721070394E-01  0.51100000000E-03 0. -1.
</event>
<event>
 8    1  0.1163913E+005  0.1043930E+01  0.7957747E-01            NaN
         13   -1    0    0    0    0  0.00000000000E+00  0.00000000000E+00  0.74505805969E-08  0.10566000000E+00  0.10566000000E+00 0.  1.
     999900   -1    0    0    0    0 -0.00000000000E+00 -0.00000000000E+00 -0.74505805969E-08  0.93827000000E+00  0.93827000000E+00 0. -1.
     999902    2    1    2    0    0  0.13246124788E-01 -0.14959221392E-01  0.12639492448E-01  0.10202869271E+01  0.10200129503E+01 0.  0.
     999903    2    3    3    0    0  0.11041234124E+00  0.67156296852E-01  0.10671184603E-01  0.13113671134E+00  0.19547623297E-01 0.  0.
         14    1    1    2    0    0 -0.13246124788E-01  0.14959221392E-01 -0.12639492448E-01  0.23643072895E-01  0.00000000000E+00 0.  1.
     999901    1    3    3    0    0 -0.97166216448E-01 -0.82115518244E-01  0.19683078458E-02  0.88915021576E+00  0.88000000000E+00 0. -1.
        -11    1    4    4    0    0  0.73491667333E-01  0.44645586465E-01 -0.21916484827E-02  0.86019288548E-01  0.51100000000E-03 0. -1.
         11    1    4    4    0    0  0.36920673904E-01  0.22510710387E-01  0.12862833085E-01  0.45117422795E-01  0.51100000000E-03 0.  1.
</event>
<event>
 8    1  0.1163913E+005  0.1043930E+01  0.7957747E-01            NaN
         13   -1    0    0    0    0  0.00000000000E+00  0.00000000000E+00  0.74505805969E-08  0.10566000000E+00  0.10566000000E+00 0. -1.
     999900   -1    0    0    0    0 -0.00000000000E+00 -0.00000000000E+00 -0.74505805969E-08  0.93827000000E+00  0.93827000000E+00 0. -1.
     999902    2    1    2    0    0 -0.22797794285E-01 -0.43243901554E-02 -0.24133201606E-02  0.10206005360E+01  0.10203338622E+01 0.  0.
     999903    2    3    3    0    0 -0.23458481265E-01  0.22455214147E-01 -0.12586318907E+00  0.13158003355E+00  0.20426107814E-01 0.  0.
         14    1    1    2    0    0  0.22797794285E-01  0.43243901554E-02  0.24133201606E-02  0.23329463960E-01  0.00000000000E+00 0.  1.
     999901    1    3    3    0    0  0.66068698075E-03 -0.26779604302E-01  0.12344986891E+00  0.88902050249E+00  0.88000000000E+00 0.  1.
        -11    1    4    4    0    0 -0.43799049619E-02  0.16642442378E-01 -0.42329197417E-01  0.45696570230E-01  0.51100000000E-03 0.  1.
         11    1    4    4    0    0 -0.19078576304E-01  0.58127717691E-02 -0.83533991653E-01  0.85883463320E-01  0.51100000000E-03 0. -1.
</event>
<event>
 8    1  0.1163913E+005  0.1043930E+01  0.7957747E-01            NaN
         13   -1    0    0    0    0  0.00000000000E+00  0.00000000000E+00  0.74505805969E-08  0.10566000000E+00  0.10566000000E+00 0. -1.
     999900   -1    0    0    0    0 -0.00000000000E+00 -0.00000000000E+00 -0.74505805969E-08  0.93827000000E+00  0.93827000000E+00 0.  1.
     999902    2    1    2    0    0 -0.10469226410E-01 -0.18425906267E-01  0.98336993920E-02  0.10205672012E+01  0.10202997559E+01 0.  0.
     999903    2    3    3    0    0 -0.75133879663E-01 -0.74181735321E-01 -0.76852454147E-01  0.13219525261E+00  0.20524506704E-01 0.  0.
         14    1    1    2    0    0  0.10469226410E-01  0.18425906267E-01 -0.98336993920E-02  0.23362798786E-01  0.00000000000E+00 0.  1.
     999901    1    3    3    0    0  0.64664653253E-01  0.55755829054E-01  0.86686153539E-01  0.88837194861E+00  0.88000000000E+00 0. -1.
        -11    1    4    4    0    0 -0.16748365716E-01 -0.28683459730E-01 -0.19180785821E-01  0.38358992191E-01  0.51100000000E-03 0.  1.
         11    1    4    4    0    0 -0.58385513947E-01 -0.45498275591E-01 -0.57671668326E-01  0.93836260417E-01  0.51100000000E-03 0. -1.
</event>
<event>
 8    1  0.1163913E+005  0.1043930E+01  0.7957747E-01            NaN
         13   -1    0    0    0    0  0.00000000000E+00  0.00000000000E+00  0.74505805969E-08  0.10566000000E+00  0.10566000000E+00 0.  1.
     999900   -1    0    0    0    0 -0.00000000000E+00 -0.00000000000E+00 -0.74505805969E-08  0.93827000000E+00  0.93827000000E+00 0.  1.
     999902    2    1    2    0    0 -0.13951533520E-01  0.10576585950E-02 -0.19238655802E-01  0.10201415615E+01  0.10198641653E+01 0.  0.
     999903    2    3    3    0    0 -0.29566289234E-01  0.33888214082E-01 -0.12383280413E+00  0.13320210368E+00  0.19638241599E-01 0.  0.
         14    1    1    2    0    0  0.13951533520E-01 -0.10576585950E-02  0.19238655802E-01  0.23788438502E-01  0.00000000000E+00 0.  1.
     999901    1    3    3    0    0  0.15614755714E-01 -0.32830555487E-01  0.10459414833E+00  0.88693945782E+00  0.88000000000E+00 0. -1.
        -11    1    4    4    0    0 -0.16939280014E-01  0.16706839471E-01 -0.38641947790E-01  0.45381923081E-01  0.51100000000E-03 0. -1.
         11    1    4    4    0    0 -0.12627009220E-01  0.17181374611E-01 -0.85190856341E-01  0.87820180600E-01  0.51100000000E-03 0.  1.
</event>
<event>
 8    1  0.1163913E+005  0.1043930E+01  0.7957747E-01            NaN
         13   -1    0    0    0    0  0.00000000000E+00  0.00000000000E+00  0.74505805969E-08  0.10566000000E+00  0.10566000000E+00 0.  1.
     999900   -1    0    0    0    0 -0.00000000000E+00 -0.00000000000E+00 -0.74505805969E-08  0.93827000000E+00  0.93827000000E+00 0. -1.
     999902    2    1    2    0    0  0.89946535267E-02  0.51837318551E-02  0.21450983160E-01  0.10200989374E+01  0.10198205344E+01 0.  0.
     999903    2    3    3    0    0  0.10253978903E+00  0.35227263222E-01 -0.68848482179E-01  0.13003865873E+00  0.20361013155E-01 0.  0.
         14    1    1    2    0    0 -0.89946535267E-02 -0.51837318551E-02 -0.21450983160E-01  0.23831062640E-01  0.00000000000E+00 0. -1.
     999901    1    3    3    0    0 -0.93545135507E-01 -0.30043531367E-01  0.90299465340E-01  0.89006027863E+00  0.88000000000E+00 0.  1.
        -11    1    4    4    0    0  0.54347854831E-01  0.91436919093E-02 -0.40074798005E-01  0.68143576239E-01  0.51100000000E-03 0. -1.
         11    1    4    4    0    0  0.48191934202E-01  0.26083571313E-01 -0.28773684174E-01  0.61895082491E-01  0.51100000000E-03 0.  1.
</event>
<event>
 8    1  0.1163913E+005  0.1043930E+01  0.7957747E-01            NaN
         13   -1    0    0    0    0  0.00000000000E+00  0.00000000000E+00  0.74505805969E-08  0.10566000000E+00  0.10566000000E+00 0. -1.
     999900   -1    0    0    0    0 -0.00000000000E+00 -0.00000000000E+00 -0.74505805969E-08  0.93827000000E+00  0.93827000000E+00 0. -1.
     999902    2    1    2    0    0 -0.15995176494E-01 -0.15714215744E-01  0.21400569127E-01  0.10129337646E+01  0.10124594041E+01 0.  0.
     999903    2    3    3    0    0  0.27857299823E-01 -0.30256438569E-01 -0.11241934125E+00  0.12161884592E+00  0.21483811736E-01 0.  0.
         14    1    1    2    0    0  0.15995176494E-01  0.15714215744E-01 -0.21400569127E-01  0.30996235360E-01  0.00000000000E+00 0.  1.
     999901    1    3    3    0    0 -0.43852476317E-01  0.14542222824E-01  0.13381991038E+00  0.89131491872E+00  0.88000000000E+00 0.  1.
        -11    1    4    4    0    0  0.16792517096E-01 -0.46545324740E-02 -0.31165655422E-01  0.35710117640E-01  0.51100000000E-03 0. -1.
         11    1    4    4    0    0  0.11064782727E-01 -0.25601906095E-01 -0.81253685829E-01  0.85908728277E-01  0.51100000000E-03 0.  1.
</event>
<event>
 8    1  0.1163913E+005  0.1043930E+01  0.7957747E-01            NaN
         13   -1    0    0    0    0  0.00000000000E+00  0.00000000000E+00  0.74505805969E-08  0.10566000000E+00  0.10566000000E+00 0. -1.
     999900   -1    0    0    0    0 -0.00000000000E+00 -0.00000000000E+00 -0.74505805969E-08  0.93827000000E+00  0.93827000000E+00 0. -1.
     999902    2    1    2    0    0 -0.71248941142E-02  0.22069659913E-01  0.43111620867E-02  0.10203414408E+01  0.10200687407E+01 0.  0.
     999903    2    3    3    0    0 -0.41904140152E-01 -0.11866554134E+00 -0.15021100189E-01  0.12827096762E+00  0.19757024545E-01 0.  0.
         14    1    1    2    0    0  0.71248941142E-02 -0.22069659913E-01 -0.43111620867E-02  0.23588559162E-01  0.00000000000E+00 0. -1.
     999901    1    3    3    0    0  0.34779246038E-01  0.14073520125E+00  0.19332262276E-01  0.89207047322E+00  0.88000000000E+00 0. -1.
        -11    1    4    4    0    0 -0.30836250719E-01 -0.82452833955E-01 -0.14526300014E-02  0.88043826816E-01  0.51100000000E-03 0. -1.
         11    1    4    4    0    0 -0.11067889433E-01 -0.36212707387E-01 -0.13568470188E-01  0.40227140801E-01  0.51100000000E-03 0.  1.
</event>
<event>
 8    1  0.1163913E+005  0.1043930E+01  0.7957747E-01            NaN
         13   -1    0    0    0    0  0.00000000000E+00  0.00000000000E+00  0.74505805969E-08  0.10566000000E+00  0.10566000000E+00 0.  1.
     999900   -1    0    0    0    0 -0.00000000000E+00 -0.00000000000E+00 -0.74505805969E-08  0.93827000000E+00  0.93827000000E+00 0. -1.
     999902    2    1    2    0    0  0.17272395466E-02  0.14728723298E-01 -0.17980400069E-01  0.10206230604E+01  0.10203569072E+01 0.  0.
     999903    2    3    3    0    0  0.82892099277E-02  0.99384065827E-01 -0.86573392047E-01  0.13387925016E+00  0.21972661888E-01 0.  0.
         14    1    1    2    0    0 -0.17272395466E-02 -0.14728723298E-01  0.17980400069E-01  0.23306939590E-01  0.00000000000E+00 0.  1.
     999901    1    3    3    0    0 -0.65619703811E-02 -0.84655342529E-01  0.68592991978E-01  0.88674381025E+00  0.88000000000E+00 0. -1.
        -11    1    4    4    0    0 -0.22201068383E-02  0.57759170690E-02 -0.12816114241E-01  0.14240926852E-01  0.51100000000E-03 0.  1.
         11    1    4    4    0    0  0.10509316766E-01  0.93608148758E-01 -0.73757277805E-01  0.11963832330E+00  0.51100000000E-03 0. -1.
</event>
<event>
 8    1  0.1163913E+005  0.1043930E+01  0.7957747E-01            NaN
         13   -1    0    0    0    0  0.00000000000E+00  0.00000000000E+00  0.74505805969E-08  0.10566000000E+00  0.10566000000E+00 0.  1.
     999900   -1    0    0    0    0 -0.00000000000E+00 -0.00000000000E+00 -0.74505805969E-08  0.93827000000E+00  0.93827000000E+00 0. -1.
     999902    2    1    2    0    0  0.16557534839E-01 -0.55998482396E-02  0.15960071478E-01  0.10202607342E+01  0.10199861429E+01 0.  0.
     999903    2    3    3    0    0  0.12923492899E+00  0.11501735752E-01  0.18976117229E-01  0.13290637669E+00  0.21680755124E-01 0.  0.
         14    1    1    2    0    0 -0.16557534839E-01  0.55998482396E-02 -0.15960071478E-01  0.23669265765E-01  0.00000000000E+00 0. -1.
     999901    1    3    3    0    0 -0.11267739415E+00 -0.17101583992E-01 -0.30160457508E-02  0.88735435755E+00  0.88000000000E+00 0.  1.
        -11    1    4    4    0    0  0.54041133753E-01 -0.48443859224E-02  0.12508569551E-01  0.55683369559E-01  0.51100000000E-03 0.  1.
         11    1    4    4    0    0  0.75193795236E-01  0.16346121675E-01  0.64675476783E-02  0.77223007128E-01  0.51100000000E-03 0. -1.
</event>
<event>
 8    1  0.1163913E+005  0.1043930E+01  0.7957747E-01            NaN
         13   -1    0    0    0    0  0.00000000000E+00  0.00000000000E+00  0.74505805969E-08  0.10566000000E+00  0.10566000000E+00 0.  1.
     999900   -1    0    0    0    0 -0.00000000000E+00 -0.00000000000E+00 -0.74505805969E-08  0.93827000000E+00  0.93827000000E+00 0. -1.
     999902    2    1    2    0    0  0.76802622883E-02 -0.21730947167E-01  0.71734671021E-02  0.10197912526E+01  0.10195055271E+01 0.  0.
     999903    2    3    3    0    0 -0.11471123553E+00 -0.58529580333E-01  0.69760145365E-02  0.13055907985E+00  0.20313277027E-01 0.  0.
         14    1    1    2    0    0 -0.76802622883E-02  0.21730947167E-01 -0.71734671021E-02  0.24138747354E-01  0.00000000000E+00 0. -1.
     999901    1    3    3    0    0  0.12239149781E+00  0.36798633166E-01  0.19745256557E-03  0.88923217279E+00  0.88000000000E+00 0.  1.
        -11    1    4    4    0    0 -0.91666732094E-01 -0.53867267132E-01  0.10244301575E-01  0.10681609933E+00  0.51100000000E-03 0.  1.
         11    1    4    4    0    0 -0.23044503433E-01 -0.46623132005E-02 -0.32682870384E-02  0.23742980521E-01  0.51100000000E-03 0. -1.
</event>
<event>
 8    1  0.1163913E+005  0.1043930E+01  0.7957747E-01            NaN
         13   -1    0    0    0    0  0.00000000000E+00  0.00000000000E+00  0.74505805969E-08  0.10566000000E+00  0.10566000000E+00 0. -1.
     999900   -1    0    0    0    0 -0.00000000000E+00 -0.00000000000E+00 -0.74505805969E-08  0.93827000000E+00  0.93827000000E+00 0. -1.
     999902    2    1    2    0    0  0.94822068883E-02  0.38887932256E-02  0.21965896415E-01  0.10196908671E+01  0.10194027314E+01 0.  0.
     999903    2    3    3    0    0  0.35817090881E-01  0.26640553895E-01  0.12393895093E+00  0.13311900163E+00  0.19163035394E-01 0.  0.
         14    1    1    2    0    0 -0.94822068883E-02 -0.38887932256E-02 -0.21965896415E-01  0.24239132937E-01  0.00000000000E+00 0.  1.
     999901    1    3    3    0    0 -0.26334883992E-01 -0.22751760670E-01 -0.10197305452E+00  0.88657186543E+00  0.88000000000E+00 0. -1.
        -11    1    4    4    0    0  0.23132787478E-01  0.17404344548E-01  0.10272836327E+00  0.10673057110E+00  0.51100000000E-03 0. -1.
         11    1    4    4    0    0  0.12684303403E-01  0.92362093475E-02  0.21210587661E-01  0.26388430530E-01  0.51100000000E-03 0.  1.
</event>
<event>
 8    1  0.1163913E+005  0.1043930E+01  0.7957747E-01            NaN
         13   -1    0    0    0    0  0.00000000000E+00  0.00000000000E+00  0.74505805969E-08  0.10566000000E+00  0.10566000000E+00 0. -1.
     999900   -1    0    0    0    0 -0.00000000000E+00 -0.00000000000E+00 -0.74505805969E-08  0.93827000000E+00  0.93827000000E+00 0. -1.
     999902    2    1    2    0    0 -0.17082197424E-01  0.62789054995E-02  0.16651277516E-01  0.10192623863E+01  0.10189638467E+01 0.  0.
     999903    2    3    3    0    0  0.36266610942E-02  0.10811536533E+00 -0.67943253030E-01  0.12911871476E+00  0.18795530809E-01 0.  0.
         14    1    1    2    0    0  0.17082197424E-01 -0.62789054995E-02 -0.16651277516E-01  0.24667613708E-01  0.00000000000E+00 0. -1.
     999901    1    3    3    0    0 -0.20708858519E-01 -0.10183645983E+00  0.84594530545E-01  0.89014367153E+00  0.88000000000E+00 0.  1.
        -11    1    4    4    0    0 -0.60167832435E-02  0.22060608048E-01 -0.18387048297E-01  0.29346495091E-01  0.51100000000E-03 0. -1.
         11    1    4    4    0    0  0.96434443377E-02  0.86054757280E-01 -0.49556204732E-01  0.99772219669E-01  0.51100000000E-03 0.  1.
</event>
<event>
 8    1  0.1163913E+005  0.1043930E+01  0.7957747E-01            NaN
         13   -1    0    0    0    0  0.00000000000E+00  0.00000000000E+00  0.74505805969E-08  0.10566000000E+00  0.10566000000E+00 0. -1.
     999900   -1    0    0    0    0 -0.00000000000E+00 -0.00000000000E+00 -0.74505805969E-08  0.93827000000E+00  0.93827000000E+00 0. -1.
     999902    2    1    2    0    0 -0.17872972705E-01  0.77871699146E-02  0.13133517183E-01  0.10204231405E+01  0.10201523481E+01 0.  0.
     999903    2    3    3    0    0  0.76300483361E-01 -0.52717187123E-01  0.89054584737E-01  0.13008981781E+00  0.19793333616E-01 0.  0.
         14    1    1    2    0    0  0.17872972705E-01 -0.77871699146E-02 -0.13133517183E-01  0.23506859470E-01  0.00000000000E+00 0.  1.
     999901    1    3    3    0    0 -0.94173456065E-01  0.60504357038E-01 -0.75921067555E-01  0.89033332272E+00  0.88000000000E+00 0. -1.
        -11    1    4    4    0    0  0.49202233028E-01 -0.26210154186E-01  0.42801446914E-01  0.70285538315E-01  0.51100000000E-03 0. -1.
         11    1    4    4    0    0  0.27098250333E-01 -0.26507032937E-01  0.46253137824E-01  0.59804279494E-01  0.51100000000E-03 0.  1.
</event>
<event>
 8    1  0.1163913E+005  0.1043930E+01  0.7957747E-01            NaN
         13   -1    0    0    0    0  0.00000000000E+00  0.00000000000E+00  0.74505805969E-08  0.10566000000E+00  0.10566000000E+00 0. -1.
     999900   -1    0    0    0    0 -0.00000000000E+00 -0.00000000000E+00 -0.74505805969E-08  0.93827000000E+00  0.93827000000E+00 0.  1.
     999902    2    1    2    0    0 -0.16117527493E-01  0.17936346548E-01  0.26315767264E-02  0.10196727863E+01  0.10193842155E+01 0.  0.
     999903    2    3    3    0    0 -0.11421931902E+00 -0.55663904514E-01 -0.23530684846E-01  0.13078279177E+00  0.20147515793E-01 0.  0.
         14    1    1    2    0    0  0.16117527493E-01 -0.17936346548E-01 -0.26315767264E-02  0.24257213691E-01  0.00000000000E+00 0. -1.
     999901    1    3    3    0    0  0.98101791522E-01  0.73600251062E-01  0.26162261572E-01  0.88888999454E+00  0.88000000000E+00 0.  1.
        -11    1    4    4    0    0 -0.39157063086E-01 -0.29780780870E-01 -0.72406966439E-02  0.49727852434E-01  0.51100000000E-03 0. -1.
         11    1    4    4    0    0 -0.75062255929E-01 -0.25883123644E-01 -0.16289988202E-01  0.81054939339E-01  0.51100000000E-03 0.  1.
</event>
<event>
 8    1  0.1163913E+005  0.1043930E+01  0.7957747E-01            NaN
         13   -1    0    0    0    0  0.00000000000E+00  0.00000000000E+00  0.74505805969E-08  0.10566000000E+00  0.10566000000E+00 0.  1.
     999900   -1    0    0    0    0 -0.00000000000E+00 -0.00000000000E+00 -0.74505805969E-08  0.93827000000E+00  0.93827000000E+00 0.  1.
     999902    2    1    2    0    0 -0.13854595455E-01 -0.18959245386E-01 -0.11280820703E-02  0.10204209513E+01  0.10201501078E+01 0.  0.
     999903    2    3    3    0    0  0.14937218699E-01 -0.90514725970E-01  0.92132464669E-01  0.13213795309E+00  0.23579895680E-01 0.  0.
         14    1    1    2    0    0  0.13854595455E-01  0.18959245386E-01  0.11280820703E-02  0.23509048683E-01  0.00000000000E+00 0.  1.
     999901    1    3    3    0    0 -0.28791814155E-01  0.71555480584E-01 -0.93260546740E-01  0.88828299823E+00  0.88000000000E+00 0.  1.
        -11    1    4    4    0    0 -0.62482685790E-02 -0.20891277314E-01  0.24254882858E-01  0.32619730095E-01  0.51100000000E-03 0. -1.
         11    1    4    4    0    0  0.21185487278E-01 -0.69623448656E-01  0.67877581811E-01  0.99518222993E-01  0.51100000000E-03 0.  1.
</event>
<event>
 8    1  0.1163913E+005  0.1043930E+01  0.7957747E-01            NaN
         13   -1    0    0    0    0  0.00000000000E+00  0.00000000000E+00  0.74505805969E-08  0.10566000000E+00  0.10566000000E+00 0. -1.
     999900   -1    0    0    0    0 -0.00000000000E+00 -0.00000000000E+00 -0.74505805969E-08  0.93827000000E+00  0.93827000000E+00 0.  1.
     999902    2    1    2    0    0  0.54207838608E-02 -0.20239324653E-01  0.14948385862E-01  0.10181915191E+01  0.10178661504E+01 0.  0.
     999903    2    3    3    0    0  0.53349656816E-01 -0.17262266441E-01 -0.11292412392E+00  0.12765380596E+00  0.19986612727E-01 0.  0.
         14    1    1    2    0    0 -0.54207838608E-02  0.20239324653E-01 -0.14948385862E-01  0.25738480918E-01  0.00000000000E+00 0.  1.
     999901    1    3    3    0    0 -0.47928872956E-01 -0.29770582119E-02  0.12787250978E+00  0.89053771312E+00  0.88000000000E+00 0. -1.
        -11    1    4    4    0    0  0.29032673078E-01 -0.94964955775E-02 -0.82270949825E-01  0.87760183685E-01  0.51100000000E-03 0.  1.
         11    1    4    4    0    0  0.24316983738E-01 -0.77657708638E-02 -0.30653174091E-01  0.39893622273E-01  0.51100000000E-03 0. -1.
</event>
<event>
 8    1  0.1163913E+005  0.1043930E+01  0.7957747E-01            NaN
         13   -1    0    0    0    0  0.00000000000E+00  0.00000000000E+00  0.74505805969E-08  0.10566000000E+00  0.10566000000E+00 0. -1.
     999900   -1    0    0    0    0 -0.00000000000E+00 -0.00000000000E+00 -0.74505805969E-08  0.93827000000E+00  0.93827000000E+00 0. -1.
     999902    2    1    2    0    0 -0.19919955573E-01  0.90743252628E-02  0.35550022868E-02  0.10217537503E+01  0.10215130641E+01 0.  0.
     999903    2    3    3    0    0  0.30354845716E-01 -0.17909582937E-02 -0.12572370635E+00  0.13082244289E+00  0.19581548381E-01 0.  0.
         14    1    1    2    0    0  0.19919955573E-01 -0.90743252628E-02 -0.35550022868E-02  0.22176249689E-01  0.00000000000E+00 0.  1.
     999901    1    3    3    0    0 -0.50274801288E-01  0.10865283557E-01  0.12927870863E+00  0.89093130742E+00  0.88000000000E+00 0.  1.
        -11    1    4    4    0    0  0.29796496702E-01  0.15928053220E-02 -0.87652870927E-01  0.92594034080E-01  0.51100000000E-03 0.  1.
         11    1    4    4    0    0  0.55834901384E-03 -0.33837636157E-02 -0.38070835420E-01  0.38228408814E-01  0.51100000000E-03 0. -1.
</event>
<event>
 8    1  0.1163913E+005  0.1043930E+01  0.7957747E-01            NaN
         13   -1    0    0    0    0  0.00000000000E+00  0.00000000000E+00  0.74505805969E-08  0.10566000000E+00  0.10566000000E+00 0. -1.
     999900   -1    0    0    0    0 -0.00000000000E+00 -0.00000000000E+00 -0.74505805969E-08  0.93827000000E+00  0.93827000000E+00 0. -1.
     999902    2    1    2    0    0  0.42256243912E-02 -0.41011419240E-02  0.67318423003E-02  0.10349861212E+01  0.10349474761E+01 0.  0.
     999903    2    3    3    0    0  0.37502227940E-01 -0.56437729512E-01 -0.12449452066E+00  0.14309666111E+00  0.19650301162E-01 0.  0.
         14    1    1    2    0    0 -0.42256243912E-02  0.41011419240E-02 -0.67318423003E-02  0.89438787633E-02  0.00000000000E+00 0.  1.
     999901    1    3    3    0    0 -0.33276603549E-01  0.52336587588E-01  0.13122636296E+00  0.89188946012E+00  0.88000000000E+00 0.  1.
        -11    1    4    4    0    0  0.98412625604E-02 -0.21247312586E-01 -0.61572193511E-01  0.65876360522E-01  0.51100000000E-03 0.  1.
         11    1    4    4    0    0  0.27660965380E-01 -0.35190416926E-01 -0.62922327145E-01  0.77220300592E-01  0.51100000000E-03 0. -1.
</event>
<event>
 8    1  0.1163913E+005  0.1043930E+01  0.7957747E-01            NaN
         13   -1    0    0    0    0  0.00000000000E+00  0.00000000000E+00  0.74505805969E-08  0.10566000000E+00  0.10566000000E+00 0. -1.
     999900   -1    0    0    0    0 -0.00000000000E+00 -0.00000000000E+00 -0.74505805969E-08  0.93827000000E+00  0.93827000000E+00 0.  1.
     999902    2    1    2    0    0  0.13381687085E-01  0.36034808042E-02 -0.17795442250E-01  0.10213749033E+01  0.10211258300E+01 0.  0.
     999903    2    3    3    0    0 -0.67267623243E-01 -0.27670992687E-02  0.10803225475E+00  0.12875095957E+00  0.19319719171E-01 0.  0.
         14    1    1    2    0    0 -0.13381687085E-01 -0.36034808042E-02  0.17795442250E-01  0.22555096719E-01  0.00000000000E+00 0. -1.
     999901    1    3    3    0    0  0.80649310327E-01  0.63705800729E-02 -0.12582769700E+00  0.89262394371E+00  0.88000000000E+00 0.  1.
        -11    1    4    4    0    0 -0.33391625625E-01  0.33837633237E-03  0.71002656979E-01  0.78464983143E-01  0.51100000000E-03 0.  1.
         11    1    4    4    0    0 -0.33875997617E-01 -0.31054756010E-02  0.37029597775E-01  0.50285976431E-01  0.51100000000E-03 0. -1.
</event>
<event>
 8    1  0.1163913E+005  0.1043930E+01  0.7957747E-01            NaN
         13   -1    0    0    0    0  0.00000000000E+00  0.00000000000E+00  0.74505805969E-08  0.10566000000E+00  0.10566000000E+00 0.  1.
     999900   -1    0    0    0    0 -0.00000000000E+00 -0.00000000000E+00 -0.74505805969E-08  0.93827000000E+00  0.93827000000E+00 0. -1.
     999902    2    1    2    0    0  0.11132084295E-01  0.18473579922E-01  0.76279099836E-02  0.10210524681E+01  0.10207961408E+01 0.  0.
     999903    2    3    3    0    0  0.94298632676E-01 -0.87213345860E-01 -0.11840082353E-01  0.13062256979E+00  0.20583205958E-01 0.  0.
         14    1    1    2    0    0 -0.11132084295E-01 -0.18473579922E-01 -0.76279099836E-02  0.22877531917E-01  0.00000000000E+00 0. -1.
     999901    1    3    3    0    0 -0.83166548381E-01  0.10568692578E+00  0.19467992336E-01  0.89042989829E+00  0.88000000000E+00 0. -1.
        -11    1    4    4    0    0  0.55069328302E-01 -0.62950853949E-01 -0.32686557665E-02  0.83704158583E-01  0.51100000000E-03 0.  1.
         11    1    4    4    0    0  0.39229304373E-01 -0.24262491911E-01 -0.85714265862E-02  0.46918411206E-01  0.51100000000E-03 0. -1.
</event>
<event>
 8    1  0.1163913E+005  0.1043930E+01  0.7957747E-01            NaN
         13   -1    0    0    0    0  0.00000000000E+00  0.00000000000E+00  0.74505805969E-08  0.10566000000E+00  0.10566000000E+00 0. -1.
     999900   -1    0    0    0    0 -0.00000000000E+00 -0.00000000000E+00 -0.74505805969E-08  0.93827000000E+00  0.93827000000E+00 0.  1.
     999902    2    1    2    0    0  0.10510264262E-01 -0.51797811066E-02 -0.20697026780E-01  0.10201463353E+01  0.10198690518E+01 0.  0.
     999903    2    3    3    0    0  0.37485321026E-01 -0.80759052868E-01 -0.97421578385E-01  0.13317027206E+00  0.17781549812E-01 0.  0.
         14    1    1    2    0    0 -0.10510264262E-01  0.51797811066E-02  0.20697026780E-01  0.23783664661E-01  0.00000000000E+00 0. -1.
     999901    1    3    3    0    0 -0.26975056764E-01  0.75579271761E-01  0.76724551605E-01  0.88697606328E+00  0.88000000000E+00 0. -1.
        -11    1    4    4    0    0  0.22667421479E-01 -0.56080429857E-01 -0.54093344029E-01  0.81149107196E-01  0.51100000000E-03 0. -1.
         11    1    4    4    0    0  0.14817899547E-01 -0.24678623010E-01 -0.43328234356E-01  0.52021164866E-01  0.51100000000E-03 0.  1.
</event>
<event>
 8    1  0.1163913E+005  0.1043930E+01  0.7957747E-01            NaN
         13   -1    0    0    0    0  0.00000000000E+00  0.00000000000E+00  0.74505805969E-08  0.10566000000E+00  0.10566000000E+00 0. -1.
     999900   -1    0    0    0    0 -0.00000000000E+00 -0.00000000000E+00 -0.74505805969E-08  0.93827000000E+00  0.93827000000E+00 0. -1.
     999902    2    1    2    0    0  0.68602937114E-02 -0.35263638725E-02  0.22616942290E-01  0.10200338716E+01  0.10197539283E+01 0.  0.
     999903    2    3    3    0    0  0.74669708902E-01 -0.10564707939E+00  0.12134210534E-01  0.13147512570E+00  0.20039930168E-01 0.  0.
         14    1    1    2    0    0 -0.68602937114E-02  0.35263638725E-02 -0.22616942290E-01  0.23896128358E-01  0.00000000000E+00 0.  1.
     999901    1    3    3    0    0 -0.67809415191E-01  0.10212071552E+00  0.10482731756E-01  0.88855874594E+00  0.88000000000E+00 0.  1.
        -11    1    4    4    0    0  0.25591072568E-01 -0.32728190988E-01  0.13120430600E-01  0.43571140686E-01  0.51100000000E-03 0. -1.
         11    1    4    4    0    0  0.49078636334E-01 -0.72918888402E-01 -0.98622006601E-03  0.87903985013E-01  0.51100000000E-03 0.  1.
</event>
<event>
 8    1  0.1163913E+005  0.1043930E+01  0.7957747E-01            NaN
         13   -1    0    0    0    0  0.00000000000E+00  0.00000000000E+00  0.74505805969E-08  0.10566000000E+00  0.10566000000E+00 0.  1.
     999900   -1    0    0    0    0 -0.00000000000E+00 -0.00000000000E+00 -0.74505805969E-08  0.93827000000E+00  0.93827000000E+00 0. -1.
     999902    2    1    2    0    0  0.11662714176E-01  0.21175418956E-01  0.14596942935E-02  0.10197112474E+01  0.10194236019E+01 0.  0.
     999903    2    3    3    0    0 -0.25504611563E-01  0.12752673098E+00 -0.14254640921E-01  0.13239002484E+00  0.20257629798E-01 0.  0.
         14    1    1    2    0    0 -0.11662714176E-01 -0.21175418956E-01 -0.14596942935E-02  0.24218752597E-01  0.00000000000E+00 0.  1.
     999901    1    3    3    0    0  0.37167325739E-01 -0.10635131202E+00  0.15714335214E-01  0.88732122256E+00  0.88000000000E+00 0.  1.
        -11    1    4    4    0    0 -0.11154895183E-01  0.18520652550E-01 -0.36454490185E-02  0.21931636441E-01  0.51100000000E-03 0.  1.
         11    1    4    4    0    0 -0.14349716380E-01  0.10900607843E+00 -0.10609191902E-01  0.11045838840E+00  0.51100000000E-03 0. -1.
</event>
<event>
 8    1  0.1163913E+005  0.1043930E+01  0.7957747E-01            NaN
         13   -1    0    0    0    0  0.00000000000E+00  0.00000000000E+00  0.74505805969E-08  0.10566000000E+00  0.10566000000E+00 0.  1.
     999900   -1    0    0    0    0 -0.00000000000E+00 -0.00000000000E+00 -0.74505805969E-08  0.93827000000E+00  0.93827000000E+00 0.  1.
     999902    2    1    2    0    0  0.14049848459E-01 -0.12605367788E-01 -0.13060359604E-01  0.10209764266E+01  0.10207183731E+01 0.  0.
     999903    2    3    3    0    0 -0.10168357084E-01 -0.13002233281E+00  0.11296524386E-01  0.13251341502E+00  0.20566749390E-01 0.  0.
         14    1    1    2    0    0 -0.14049848459E-01  0.12605367788E-01  0.13060359604E-01  0.22953573399E-01  0.00000000000E+00 0. -1.
     999901    1    3    3    0    0  0.24218205543E-01  0.11741696502E+00 -0.24356883989E-01  0.88846301158E+00  0.88000000000E+00 0.  1.
        -11    1    4    4    0    0 -0.10171794930E-01 -0.67739894423E-01 -0.31566460710E-02  0.68573932685E-01  0.51100000000E-03 0. -1.
         11    1    4    4    0    0  0.34378456844E-05 -0.62282438390E-01  0.14453170457E-01  0.63939482332E-01  0.51100000000E-03 0.  1.
</event>
<event>
 8    1  0.1163913E+005  0.1043930E+01  0.7957747E-01            NaN
         13   -1    0    0    0    0  0.00000000000E+00  0.00000000000E+00  0.74505805969E-08  0.10566000000E+00  0.10566000000E+00 0.  1.
     999900   -1    0    0    0    0 -0.00000000000E+00 -0.00000000000E+00 -0.74505805969E-08  0.93827000000E+00  0.93827000000E+00 0. -1.
     999902    2    1    2    0    0 -0.48253344878E-02  0.11413101148E-01 -0.19198830466E-01  0.10210796647E+01  0.10208239534E+01 0.  0.
     999903    2    3    3    0    0  0.42235958658E-02 -0.12524328024E+00 -0.30076022776E-01  0.13041970547E+00  0.20025344505E-01 0.  0.
         14    1    1    2    0    0  0.48253344878E-02 -0.11413101148E-01  0.19198830466E-01  0.22850335271E-01  0.00000000000E+00 0.  1.
     999901    1    3    3    0    0 -0.90489303536E-02  0.13665638138E+00  0.10877192310E-01  0.89065995926E+00  0.88000000000E+00 0.  1.
        -11    1    4    4    0    0 -0.41558484793E-02 -0.10191159983E+00 -0.26340598786E-01  0.10534388223E+00  0.51100000000E-03 0.  1.
         11    1    4    4    0    0  0.83794443451E-02 -0.23331680402E-01 -0.37354239901E-02  0.25075823243E-01  0.51100000000E-03 0. -1.
</event>
<event>
 8    1  0.1163913E+005  0.1043930E+01  0.7957747E-01            NaN
         13   -1    0    0    0    0  0.00000000000E+00  0.00000000000E+00  0.74505805969E-08  0.10566000000E+00  0.10566000000E+00 0. -1.
     999900   -1    0    0    0    0 -0.00000000000E+00 -0.00000000000E+00 -0.74505805969E-08  0.93827000000E+00  0.93827000000E+00 0.  1.
     999902    2    1    2    0    0 -0.20629059088E-01  0.10522864730E-02 -0.11333246375E-01  0.10203692730E+01  0.10200972235E+01 0.  0.
     999903    2    3    3    0    0 -0.42430619900E-01 -0.34013522068E-01 -0.11945351519E+00  0.13279115723E+00  0.20176024321E-01 0.  0.
         14    1    1    2    0    0  0.20629059088E-01 -0.10522864730E-02  0.11333246375E-01  0.23560727049E-01  0.00000000000E+00 0. -1.
     999901    1    3    3    0    0  0.21801560812E-01  0.35065808541E-01  0.10812026882E+00  0.88757811572E+00  0.88000000000E+00 0. -1.
        -11    1    4    4    0    0 -0.42728352328E-01 -0.28541644094E-01 -0.11398425551E+00  0.12503203256E+00  0.51100000000E-03 0.  1.
         11    1    4    4    0    0  0.29773242809E-03 -0.54718779738E-02 -0.54692596791E-02  0.77591246669E-02  0.51100000000E-03 0. -1.
</event>
<event>
 8    1  0.1163913E+005  0.1043930E+01  0.7957747E-01            NaN
         13   -1    0    0    0    0  0.00000000000E+00  0.00000000000E+00  0.74505805969E-08  0.10566000000E+00  0.10566000000E+00 0. -1.
     999900   -1    0    0    0    0 -0.00000000000E+00 -0.00000000000E+00 -0.74505805969E-08  0.93827000000E+00  0.93827000000E+00 0. -1.
     999902    2    1    2    0    0 -0.13921407771E-01  0.16336885579E-01 -0.74390770841E-02  0.10212135018E+01  0.10209608106E+01 0.  0.
     999903    2    3    3    0    0 -0.51134716683E-01 -0.11729239757E+00  0.12055958961E-01  0.13013456467E+00  0.20430198190E-01 0.  0.
         14    1    1    2    0    0  0.13921407771E-01 -0.16336885579E-01  0.74390770841E-02  0.22716498247E-01  0.00000000000E+00 0.  1.
     999901    1    3    3    0    0  0.37213308911E-01  0.13362928315E+00 -0.19495036045E-01  0.89107893708E+00  0.88000000000E+00 0. -1.
        -11    1    4    4    0    0 -0.87729666228E-02 -0.23756774121E-01 -0.56091363832E-02  0.25943646466E-01  0.51100000000E-03 0. -1.
         11    1    4    4    0    0 -0.42361750060E-01 -0.93535623451E-01  0.17665095344E-01  0.10419091821E+00  0.51100000000E-03 0.  1.
</event>
<event>
 8    1  0.1163913E+005  0.1043930E+01  0.7957747E-01            NaN
         13   -1    0    0    0    0  0.00000000000E+00  0.00000000000E+00  0.74505805969E-08  0.10566000000E+00  0.10566000000E+00 0.  1.
     999900   -1    0    0    0    0 -0.00000000000E+00 -0.00000000000E+00 -0.74505805969E-08  0.93827000000E+00  0.93827000000E+00 0.  1.
     999902    2    1    2    0    0  0.12188405582E-01 -0.16150387567E-01 -0.11536406036E-01  0.10206387803E+01  0.10203729901E+01 0.  0.
     999903    2    3    3    0    0  0.41075196516E-02  0.11070407373E+00  0.62034252595E-01  0.12846727391E+00  0.19578771972E-01 0.  0.
         14    1    1    2    0    0 -0.12188405582E-01  0.16150387567E-01  0.11536406036E-01  0.23291219663E-01  0.00000000000E+00 0. -1.
     999901    1    3    3    0    0  0.80808859300E-02 -0.12685446130E+00 -0.73570658632E-01  0.89217150643E+00  0.88000000000E+00 0.  1.
        -11    1    4    4    0    0  0.43893523941E-02  0.92094974101E-01  0.42641971445E-01  0.10158419916E+00  0.51100000000E-03 0. -1.
         11    1    4    4    0    0 -0.28183274255E-03  0.18609099632E-01  0.19392281151E-01  0.26883074750E-01  0.51100000000E-03 0.  1.
</event>
<event>
 8    1  0.1163913E+005  0.1043930E+01  0.7957747E-01            NaN
         13   -1    0    0    0    0  0.00000000000E+00  0.00000000000E+00  0.74505805969E-08  0.10566000000E+00  0.10566000000E+00 0. -1.
     999900   -1    0    0    0    0 -0.00000000000E+00 -0.00000000000E+00 -0.74505805969E-08  0.93827000000E+00  0.93827000000E+00 0. -1.
     999902    2    1    2    0    0  0.22582997664E-01  0.37401593340E-02 -0.50103916159E-02  0.10204974457E+01  0.10202283823E+01 0.  0.
     999903    2    3    3    0    0 -0.60710185780E-01 -0.13546079104E-01  0.11117668938E+00  0.12879345548E+00  0.18928153548E-01 0.  0.
         14    1    1    2    0    0 -0.22582997664E-01 -0.37401593340E-02  0.50103916159E-02  0.23432554267E-01  0.00000000000E+00 0.  1.
     999901    1    3    3    0    0  0.83293183443E-01  0.17286238438E-01 -0.11618708099E+00  0.89170399026E+00  0.88000000000E+00 0.  1.
        -11    1    4    4    0    0 -0.44795831828E-01 -0.90794796362E-02  0.62839348159E-01  0.77705522955E-01  0.51100000000E-03 0. -1.
         11    1    4    4    0    0 -0.15914353951E-01 -0.44665994677E-02  0.48337341218E-01  0.51087932523E-01  0.51100000000E-03 0.  1.
</event>
<event>
 8    1  0.1163913E+005  0.1043930E+01  0.7957747E-01            NaN
         13   -1    0    0    0    0  0.00000000000E+00  0.00000000000E+00  0.74505805969E-08  0.10566000000E+00  0.10566000000E+00 0.  1.
     999900   -1    0    0    0    0 -0.00000000000E+00 -0.00000000000E+00 -0.74505805969E-08  0.93827000000E+00  0.93827000000E+00 0. -1.
     999902    2    1    2    0    0 -0.22026692547E-01 -0.63077921340E-02  0.50302004058E-02  0.10204722435E+01  0.10202025942E+01 0.  0.
     999903    2    3    3    0    0  0.58000489229E-01 -0.11492858141E+00 -0.84036075914E-02  0.13008845379E+00  0.16725717155E-01 0.  0.
         14    1    1    2    0    0  0.22026692547E-01  0.63077921340E-02 -0.50302004058E-02  0.23457756549E-01  0.00000000000E+00 0.  1.
     999901    1    3    3    0    0 -0.80027181776E-01  0.10862078928E+00  0.13433807997E-01  0.89038378966E+00  0.88000000000E+00 0. -1.
        -11    1    4    4    0    0  0.32568891598E-01 -0.66529264529E-01  0.33967446221E-02  0.74153049389E-01  0.51100000000E-03 0.  1.
         11    1    4    4    0    0  0.25431597631E-01 -0.48399316881E-01 -0.11800352213E-01  0.55935404405E-01  0.51100000000E-03 0. -1.
</event>
<event>
 8    1  0.1163913E+005  0.1043930E+01  0.7957747E-01            NaN
         13   -1    0    0    0    0  0.00000000000E+00  0.00000000000E+00  0.74505805969E-08  0.10566000000E+00  0.10566000000E+00 0. -1.
     999900   -1    0    0    0    0 -0.00000000000E+00 -0.00000000000E+00 -0.74505805969E-08  0.93827000000E+00  0.93827000000E+00 0. -1.
     999902    2    1    2    0    0 -0.91969482255E-02 -0.86019474362E-02 -0.20065825569E-01  0.10202400293E+01  0.10199649517E+01 0.  0.
     999903    2    3    3    0    0  0.11029534897E+00  0.47722534451E-01  0.40226065095E-01  0.12833982836E+00  0.20260082186E-01 0.  0.
         14    1    1    2    0    0  0.91969482255E-02  0.86019474362E-02  0.20065825569E-01  0.23689970707E-01  0.00000000000E+00 0. -1.
     999901    1    3    3    0    0 -0.11949229720E+00 -0.56324481888E-01 -0.60291890664E-01  0.89190020094E+00  0.88000000000E+00 0.  1.
        -11    1    4    4    0    0  0.65808280834E-01  0.22063904834E-01  0.31586159467E-01  0.76259375251E-01  0.51100000000E-03 0. -1.
         11    1    4    4    0    0  0.44487068139E-01  0.25658629617E-01  0.86399056277E-02  0.52080453106E-01  0.51100000000E-03 0.  1.
</event>
<event>
 8    1  0.1163913E+005  0.1043930E+01  0.7957747E-01            NaN
         13   -1    0    0    0    0  0.00000000000E+00  0.00000000000E+00  0.74505805969E-08  0.10566000000E+00  0.10566000000E+00 0.  1.
     999900   -1    0    0    0    0 -0.00000000000E+00 -0.00000000000E+00 -0.74505805969E-08  0.93827000000E+00  0.93827000000E+00 0.  1.
     999902    2    1    2    0    0  0.28318742971E-02 -0.20188536735E-01 -0.95634692268E-02  0.10214120856E+01  0.10211638419E+01 0.  0.
     999903    2    3    3    0    0  0.97626146731E-01 -0.87763783761E-01 -0.16678072265E-01  0.13371676300E+00  0.19200738205E-01 0.  0.
         14    1    1    2    0    0 -0.28318742971E-02  0.20188536735E-01  0.95634692268E-02  0.22517914450E-01  0.00000000000E+00 0.  1.
     999901    1    3    3    0    0 -0.94794272434E-01  0.67575247026E-01  0.71146030387E-02  0.88769532255E+00  0.88000000000E+00 0. -1.
        -11    1    4    4    0    0  0.51471486171E-02 -0.76409927015E-02 -0.57417807591E-02  0.10867707929E-01  0.51100000000E-03 0. -1.
         11    1    4    4    0    0  0.92478998114E-01 -0.80122791060E-01 -0.10936291506E-01  0.12284905507E+00  0.51100000000E-03 0.  1.
</event>
<event>
 8    1  0.1163913E+005  0.1043930E+01  0.7957747E-01            NaN
         13   -1    0    0    0    0  0.00000000000E+00  0.00000000000E+00  0.74505805969E-08  0.10566000000E+00  0.10566000000E+00 0.  1.
     999900   -1    0    0    0    0 -0.00000000000E+00 -0.00000000000E+00 -0.74505805969E-08  0.93827000000E+00  0.93827000000E+00 0. -1.
     999902    2    1    2    0    0  0.56916230708E-02  0.19778109607E-01  0.10918412754E-01  0.10206323621E+01  0.10203664238E+01 0.  0.
     999903    2    3    3    0    0  0.56309981111E-01  0.11962137999E+00 -0.30788312897E-03  0.13347007342E+00  0.18277778386E-01 0.  0.
         14    1    1    2    0    0 -0.56916230708E-02 -0.19778109607E-01 -0.10918412754E-01  0.23297637860E-01  0.00000000000E+00 0. -1.
     999901    1    3    3    0    0 -0.50618358040E-01 -0.99843270382E-01  0.11226295883E-01  0.88716228872E+00  0.88000000000E+00 0.  1.
        -11    1    4    4    0    0  0.47867471946E-01  0.83066377311E-01  0.18074649894E-02  0.95889759416E-01  0.51100000000E-03 0. -1.
         11    1    4    4    0    0  0.84425091651E-02  0.36555002678E-01 -0.21153481184E-02  0.37580314002E-01  0.51100000000E-03 0.  1.
</event>
<event>
 8    1  0.1163913E+005  0.1043930E+01  0.7957747E-01            NaN
         13   -1    0    0    0    0  0.00000000000E+00  0.00000000000E+00  0.74505805969E-08  0.10566000000E+00  0.10566000000E+00 0. -1.
     999900   -1    0    0    0    0 -0.00000000000E+00 -0.00000000000E+00 -0.74505805969E-08  0.93827000000E+00  0.93827000000E+00 0.  1.
     999902    2    1    2    0    0 -0.19832273911E-02  0.75317882460E-02 -0.22711190160E-01  0.10199204356E+01  0.10196377963E+01 0.  0.
     999903    2    3    3    0    0  0.54098130826E-01 -0.11189639723E+00  0.26632624917E-01  0.12871730368E+00  0.20283887324E-01 0.  0.
         14    1    1    2    0    0  0.19832273911E-02 -0.75317882460E-02  0.22711190160E-01  0.24009564418E-01  0.00000000000E+00 0. -1.
     999901    1    3    3    0    0 -0.56081358218E-01  0.11942818548E+00 -0.49343815077E-01  0.89120313190E+00  0.88000000000E+00 0.  1.
        -11    1    4    4    0    0  0.42498579503E-01 -0.70508742854E-01  0.11403523742E-01  0.83113858973E-01  0.51100000000E-03 0. -1.
         11    1    4    4    0    0  0.11599551324E-01 -0.41387654375E-01  0.15229101175E-01  0.45603444707E-01  0.51100000000E-03 0.  1.
</event>
<event>
 8    1  0.1163913E+005  0.1043930E+01  0.7957747E-01            NaN
         13   -1    0    0    0    0  0.00000000000E+00  0.00000000000E+00  0.74505805969E-08  0.10566000000E+00  0.10566000000E+00 0. -1.
     999900   -1    0    0    0    0 -0.00000000000E+00 -0.00000000000E+00 -0.74505805969E-08  0.93827000000E+00  0.93827000000E+00 0. -1.
     999902    2    1    2    0    0  0.13084810669E-01 -0.17826188022E-01 -0.13129789437E-02  0.10217780438E+01  0.10215378905E+01 0.  0.
     999903    2    3    3    0    0 -0.11652408814E+00 -0.49158793457E-01 -0.29198856040E-01  0.13129625232E+00  0.19790972404E-01 0.  0.
         14    1    1    2    0    0 -0.13084810669E-01  0.17826188022E-01  0.13129789437E-02  0.22151956196E-01  0.00000000000E+00 0. -1.
     999901    1    3    3    0    0  0.12960889881E+00  0.31332605435E-01  0.27885877097E-01  0.89048179148E+00  0.88000000000E+00 0.  1.
        -11    1    4    4    0    0 -0.43184490889E-01 -0.13305553846E-01 -0.19012714970E-01  0.49027364482E-01  0.51100000000E-03 0. -1.
         11    1    4    4    0    0 -0.73339597254E-01 -0.35853239611E-01 -0.10186141070E-01  0.82268887843E-01  0.51100000000E-03 0.  1.
</event>
<event>
 8    1  0.1163913E+005  0.1043930E+01  0.7957747E-01            NaN
         13   -1    0    0    0    0  0.00000000000E+00  0.00000000000E+00  0.74505805969E-08  0.10566000000E+00  0.10566000000E+00 0.  1.
     999900   -1    0    0    0    0 -0.00000000000E+00 -0.00000000000E+00 -0.74505805969E-08  0.93827000000E+00  0.93827000000E+00 0.  1.
     999902    2    1    2    0    0  0.11898913443E-01  0.16796118275E-01 -0.12862983040E-01  0.10196575864E+01  0.10193686494E+01 0.  0.
     999903    2    3    3    0    0 -0.60013828346E-01  0.10626456334E+00 -0.45139797427E-01  0.13161601199E+00  0.19782726998E-01 0.  0.
         14    1    1    2    0    0 -0.11898913443E-01 -0.16796118275E-01  0.12862983040E-01  0.24272413619E-01  0.00000000000E+00 0. -1.
     999901    1    3    3    0    0  0.71912741789E-01 -0.89468445062E-01  0.32276814387E-01  0.88804157439E+00  0.88000000000E+00 0.  1.
        -11    1    4    4    0    0 -0.18682913633E-01  0.33478907650E-01 -0.24173624133E-01  0.45326744246E-01  0.51100000000E-03 0. -1.
         11    1    4    4    0    0 -0.41330914714E-01  0.72785655687E-01 -0.20966173294E-01  0.86289267748E-01  0.51100000000E-03 0.  1.
</event>
<event>
 8    1  0.1163913E+005  0.1043930E+01  0.7957747E-01            NaN
         13   -1    0    0    0    0  0.00000000000E+00  0.00000000000E+00  0.74505805969E-08  0.10566000000E+00  0.10566000000E+00 0. -1.
     999900   -1    0    0    0    0 -0.00000000000E+00 -0.00000000000E+00 -0.74505805969E-08  0.93827000000E+00  0.93827000000E+00 0.  1.
     999902    2    1    2    0    0  0.98318272460E-02  0.20792995037E-01 -0.46772903373E-02  0.10204589430E+01  0.10201889844E+01 0.  0.
     999903    2    3    3    0    0 -0.60684256271E-01  0.11611944736E+00 -0.11886853966E-02  0.13249958536E+00  0.19708427926E-01 0.  0.
         14    1    1    2    0    0 -0.98318272460E-02 -0.20792995037E-01  0.46772903373E-02  0.23471056953E-01  0.00000000000E+00 0. -1.
     999901    1    3    3    0    0  0.70516083517E-01 -0.95326452326E-01 -0.34886049408E-02  0.88795935769E+00  0.88000000000E+00 0.  1.
        -11    1    4    4    0    0 -0.45063944234E-01  0.86428721851E-01 -0.94941206973E-02  0.97934072107E-01  0.51100000000E-03 0. -1.
         11    1    4    4    0    0 -0.15620312038E-01  0.29690725512E-01  0.83054353007E-02  0.34565513248E-01  0.51100000000E-03 0.  1.
</event>
<event>
 8    1  0.1163913E+005  0.1043930E+01  0.7957747E-01            NaN
         13   -1    0    0    0    0  0.00000000000E+00  0.00000000000E+00  0.74505805969E-08  0.10566000000E+00  0.10566000000E+00 0. -1.
     999900   -1    0    0    0    0 -0.00000000000E+00 -0.00000000000E+00 -0.74505805969E-08  0.93827000000E+00  0.93827000000E+00 0. -1.
     999902    2    1    2    0    0  0.10951756356E-01 -0.97912212247E-02 -0.18493620267E-01  0.10203117238E+01  0.10200383281E+01 0.  0.
     999903    2    3    3    0    0 -0.18485754126E-01  0.48595498529E-01  0.11443316112E+00  0.12793001999E+00  0.23830570051E-01 0.  0.
         14    1    1    2    0    0 -0.10951756356E-01  0.97912212247E-02  0.18493620267E-01  0.23618276206E-01  0.00000000000E+00 0. -1.
     999901    1    3    3    0    0  0.29437510481E-01 -0.58386719754E-01 -0.13292678139E+00  0.89238170380E+00  0.88000000000E+00 0. -1.
        -11    1    4    4    0    0 -0.14879283723E-01  0.20907893687E-01  0.77418761478E-01  0.81562606950E-01  0.51100000000E-03 0. -1.
         11    1    4    4    0    0 -0.36064704022E-02  0.27687604842E-01  0.37014399641E-01  0.46367413044E-01  0.51100000000E-03 0.  1.
</event>
<event>
 8    1  0.1163913E+005  0.1043930E+01  0.7957747E-01            NaN
         13   -1    0    0    0    0  0.00000000000E+00  0.00000000000E+00  0.74505805969E-08  0.10566000000E+00  0.10566000000E+00 0.  1.
     999900   -1    0    0    0    0 -0.00000000000E+00 -0.00000000000E+00 -0.74505805969E-08  0.93827000000E+00  0.93827000000E+00 0.  1.
     999902    2    1    2    0    0 -0.24593430904E-01  0.33026784055E-02  0.47734047514E-02  0.10186608504E+01  0.10183473858E+01 0.  0.
     999903    2    3    3    0    0  0.55222462125E-01 -0.18487198342E-01  0.11260220883E+00  0.12822700868E+00  0.19277227380E-01 0.  0.
         14    1    1    2    0    0  0.24593430904E-01 -0.33026784055E-02 -0.47734047514E-02  0.25269149594E-01  0.00000000000E+00 0.  1.
     999901    1    3    3    0    0 -0.79815893029E-01  0.21789876748E-01 -0.10782880408E+00  0.89043384173E+00  0.88000000000E+00 0.  1.
        -11    1    4    4    0    0  0.19306341598E-01 -0.15886393299E-01  0.39805235136E-01  0.47008830906E-01  0.51100000000E-03 0. -1.
         11    1    4    4    0    0  0.35916120527E-01 -0.26008050434E-02  0.72796973692E-01  0.81218177770E-01  0.51100000000E-03 0.  1.
</event>
<event>
 8    1  0.1163913E+005  0.1043930E+01  0.7957747E-01            NaN
         13   -1    0    0    0    0  0.00000000000E+00  0.00000000000E+00  0.74505805969E-08  0.10566000000E+00  0.10566000000E+00 0. -1.
     999900   -1    0    0    0    0 -0.00000000000E+00 -0.00000000000E+00 -0.74505805969E-08  0.93827000000E+00  0.93827000000E+00 0. -1.
     999902    2    1    2    0    0 -0.28010859670E-02  0.58926919828E-02  0.23369067672E-01  0.10196672049E+01  0.10193784997E+01 0.  0.
     999903    2    3    3    0    0  0.37072341590E-01 -0.10959638712E+00 -0.51181047217E-01  0.12810378191E+00  0.20133374366E-01 0.  0.
         14    1    1    2    0    0  0.28010859670E-02 -0.58926919828E-02 -0.23369067672E-01  0.24262795083E-01  0.00000000000E+00 0.  1.
     999901    1    3    3    0    0 -0.39873427557E-01  0.11548907911E+00  0.74550114889E-01  0.89156342301E+00  0.88000000000E+00 0.  1.
        -11    1    4    4    0    0  0.17658772206E-01 -0.37643249584E-01 -0.27701762131E-01  0.49964939921E-01  0.51100000000E-03 0.  1.
         11    1    4    4    0    0  0.19413569384E-01 -0.71953137539E-01 -0.23479285085E-01  0.78138841987E-01  0.51100000000E-03 0. -1.
</event>
<event>
 8    1  0.1163913E+005  0.1043930E+01  0.7957747E-01            NaN
         13   -1    0    0    0    0  0.00000000000E+00  0.00000000000E+00  0.74505805969E-08  0.10566000000E+00  0.10566000000E+00 0.  1.
     999900   -1    0    0    0    0 -0.00000000000E+00 -0.00000000000E+00 -0.74505805969E-08  0.93827000000E+00  0.93827000000E+00 0. -1.
     999902    2    1    2    0    0  0.11904350882E-01  0.11624021650E-01  0.17075439278E-01  0.10200888156E+01  0.10198101733E+01 0.  0.
     999903    2    3    3    0    0  0.18740586853E-01  0.49578283213E-01 -0.11658090986E+00  0.12916161328E+00  0.16804702835E-01 0.  0.
         14    1    1    2    0    0 -0.11904350882E-01 -0.11624021650E-01 -0.17075439278E-01  0.23841184446E-01  0.00000000000E+00 0. -1.
     999901    1    3    3    0    0 -0.68362359711E-02 -0.37954261562E-01  0.13365634914E+00  0.89092720228E+00  0.88000000000E+00 0.  1.
        -11    1    4    4    0    0  0.88963777169E-02  0.41956067155E-01 -0.95166335251E-01  0.10438558135E+00  0.51100000000E-03 0.  1.
         11    1    4    4    0    0  0.98442091363E-02  0.76222160575E-02 -0.21414574613E-01  0.24776031926E-01  0.51100000000E-03 0. -1.
</event>
<event>
 7    1  0.1163913E+005  0.1043930E+01  0.7957747E-01            NaN
         13   -1    0    0    0    0  0.00000000000E+00  0.00000000000E+00  0.74505805969E-08  0.10566000000E+00  0.10566000000E+00 0. -1.
     999900   -1    0    0    0    0 -0.00000000000E+00 -0.00000000000E+00 -0.74505805969E-08  0.93827000000E+00  0.93827000000E+00 0.  1.
     999903    2    1    2    0    0 -0.84994643418E-01  0.32889109457E-01 -0.61848293047E-01  0.11187098313E+00  0.19599045445E-01 0.  0.
         14    1    1    2    0    0 -0.39693716024E-01  0.20064941903E-02  0.10477808439E-01  0.41102330596E-01  0.00000000000E+00 0. -1.
     999901    1    1    2    0    0  0.12468835944E+00 -0.34895603647E-01  0.51370484608E-01  0.89095668628E+00  0.88000000000E+00 0. -1.
        -11    1    3    3    0    0 -0.71863277736E-01  0.29115625129E-01 -0.43242683967E-01  0.88781986638E-01  0.51100000000E-03 0.  1.
         11    1    3    3    0    0 -0.13131365682E-01  0.37734843274E-02 -0.18605609080E-01  0.23088996489E-01  0.51100000000E-03 0. -1.
</event>
<event>
 8    1  0.1163913E+005  0.1043930E+01  0.7957747E-01            NaN
         13   -1    0    0    0    0  0.00000000000E+00  0.00000000000E+00  0.74505805969E-08  0.10566000000E+00  0.10566000000E+00 0.  1.
     999900   -1    0    0    0    0 -0.00000000000E+00 -0.00000000000E+00 -0.74505805969E-08  0.93827000000E+00  0.93827000000E+00 0. -1.
     999902    2    1    2    0    0 -0.15362552863E-01 -0.17127381283E-01 -0.33805271120E-02  0.10206752546E+01  0.10204103058E+01 0.  0.
     999903    2    3    3    0    0 -0.13028414323E+00  0.14459284630E-01 -0.31813420765E-02  0.13264106096E+00  0.20012526707E-01 0.  0.
         14    1    1    2    0    0  0.15362552863E-01  0.17127381283E-01  0.33805271120E-02  0.23254745400E-01  0.00000000000E+00 0. -1.
     999901    1    3    3    0    0  0.11492159037E+00 -0.31586665913E-01 -0.19918503550E-03  0.88803419364E+00  0.88000000000E+00 0.  1.
        -11    1    4    4    0    0 -0.24455191189E-01  0.84773218371E-02 -0.61191278816E-02  0.26601244494E-01  0.51100000000E-03 0.  1.
         11    1    4    4    0    0 -0.10582895205E+00  0.59819627928E-02  0.29377858051E-02  0.10603981647E+00  0.51100000000E-03 0. -1.
</event>
<event>
 8    1  0.1163913E+005  0.1043930E+01  0.7957747E-01            NaN
         13   -1    0    0    0    0  0.00000000000E+00  0.00000000000E+00  0.74505805969E-08  0.10566000000E+00  0.10566000000E+00 0. -1.
     999900   -1    0    0    0    0 -0.00000000000E+00 -0.00000000000E+00 -0.74505805969E-08  0.93827000000E+00  0.93827000000E+00 0. -1.
     999902    2    1    2    0    0  0.59647535817E-02 -0.65232423063E-03 -0.22064979777E-01  0.10210637116E+01  0.10208076391E+01 0.  0.
     999903    2    3    3    0    0  0.79282883341E-01 -0.19492736302E-01  0.98506886825E-01  0.12962213512E+00  0.20797807620E-01 0.  0.
         14    1    1    2    0    0 -0.59647535817E-02  0.65232423063E-03  0.22064979777E-01  0.22866288390E-01  0.00000000000E+00 0. -1.
     999901    1    3    3    0    0 -0.73318129759E-01  0.18840412071E-01 -0.12057186660E+00  0.89144157649E+00  0.88000000000E+00 0. -1.
        -11    1    4    4    0    0  0.24212739206E-01 -0.15260242377E-01  0.27848983473E-01  0.39936934518E-01  0.51100000000E-03 0. -1.
         11    1    4    4    0    0  0.55070144135E-01 -0.42324939249E-02  0.70657903353E-01  0.89685200602E-01  0.51100000000E-03 0.  1.
</event>
<event>
 8    1  0.1163913E+005  0.1043930E+01  0.7957747E-01            NaN
         13   -1    0    0    0    0  0.00000000000E+00  0.00000000000E+00  0.74505805969E-08  0.10566000000E+00  0.10566000000E+00 0.  1.
     999900   -1    0    0    0    0 -0.00000000000E+00 -0.00000000000E+00 -0.74505805969E-08  0.93827000000E+00  0.93827000000E+00 0.  1.
     999902    2    1    2    0    0 -0.16199838121E-01  0.18779823583E-01  0.46883558409E-02  0.10186892154E+01  0.10183764629E+01 0.  0.
     999903    2    3    3    0    0 -0.65214800344E-01  0.82659094747E-01 -0.75610181858E-01  0.13137253966E+00  0.21362313749E-01 0.  0.
         14    1    1    2    0    0  0.16199838121E-01 -0.18779823583E-01 -0.46883558409E-02  0.25240784644E-01  0.00000000000E+00 0. -1.
     999901    1    3    3    0    0  0.49014962224E-01 -0.63879271164E-01  0.80298537699E-01  0.88731667569E+00  0.88000000000E+00 0. -1.
        -11    1    4    4    0    0 -0.15082283943E-01  0.14770690467E-01 -0.59396226039E-02  0.21936016582E-01  0.51100000000E-03 0. -1.
         11    1    4    4    0    0 -0.50132516402E-01  0.67888404280E-01 -0.69670559254E-01  0.10943652308E+00  0.51100000000E-03 0.  1.
</event>
<event>
 8    1  0.1163913E+005  0.1043930E+01  0.7957747E-01            NaN
         13   -1    0    0    0    0  0.00000000000E+00  0.00000000000E+00  0.74505805969E-08  0.10566000000E+00  0.10566000000E+00 0.  1.
     999900   -1    0    0    0    0 -0.00000000000E+00 -0.00000000000E+00 -0.74505805969E-08  0.93827000000E+00  0.93827000000E+00 0.  1.
     999902    2    1    2    0    0  0.17439300549E-01  0.63920230781E-02 -0.14782990131E-01  0.10201913404E+01  0.10199151176E+01 0.  0.
     999903    2    3    3    0    0 -0.12075821357E+00 -0.21229026368E-01 -0.34879171525E-01  0.12875130776E+00  0.18086595548E-01 0.  0.
         14    1    1    2    0    0 -0.17439300549E-01 -0.63920230781E-02  0.14782990131E-01  0.23738659606E-01  0.00000000000E+00 0.  1.
     999901    1    3    3    0    0  0.13819751412E+00  0.27621049447E-01  0.20096181394E-01  0.89144003264E+00  0.88000000000E+00 0. -1.
        -11    1    4    4    0    0 -0.81116457929E-01 -0.22052258298E-01 -0.27265829030E-01  0.88373459798E-01  0.51100000000E-03 0. -1.
         11    1    4    4    0    0 -0.39641755638E-01  0.82323192985E-03 -0.76133424947E-02  0.40377847959E-01  0.51100000000E-03 0.  1.
</event>
<event>
 8    1  0.1163913E+005  0.1043930E+01  0.7957747E-01            NaN
         13   -1    0    0    0    0  0.00000000000E+00  0.00000000000E+00  0.74505805969E-08  0.10566000000E+00  0.10566000000E+00 0. -1.
     999900   -1    0    0    0    0 -0.00000000000E+00 -0.00000000000E+00 -0.74505805969E-08  0.93827000000E+00  0.93827000000E+00 0. -1.
     999902    2    1    2    0    0 -0.18706650526E-01 -0.35111403728E-02 -0.13928832624E-01  0.10203444269E+01  0.10200717966E+01 0.  0.
     999903    2    3    3    0    0  0.80380073471E-01 -0.92805187884E-01 -0.36352086000E-01  0.13001055239E+00  0.22527992950E-01 0.  0.
         14    1    1    2    0    0  0.18706650526E-01  0.35111403728E-02  0.13928832624E-01  0.23585573109E-01  0.00000000000E+00 0. -1.
     999901    1    3    3    0    0 -0.99086723998E-01  0.89294047512E-01  0.22423253376E-01  0.89033387450E+00  0.88000000000E+00 0. -1.
        -11    1    4    4    0    0  0.72528854075E-01 -0.91524017563E-01 -0.32910053349E-01  0.12132770993E+00  0.51100000000E-03 0. -1.
         11    1    4    4    0    0  0.78512193960E-02 -0.12811703213E-02 -0.34420326515E-02  0.86828424591E-02  0.51100000000E-03 0.  1.
</event>
<event>
 8    1  0.1163913E+005  0.1043930E+01  0.7957747E-01            NaN
         13   -1    0    0    0    0  0.00000000000E+00  0.00000000000E+00  0.74505805969E-08  0.10566000000E+00  0.10566000000E+00 0.  1.
     999900   -1    0    0    0    0 -0.00000000000E+00 -0.00000000000E+00 -0.74505805969E-08  0.93827000000E+00  0.93827000000E+00 0.  1.
     999902    2    1    2    0    0 -0.47060567283E-02 -0.17508629154E-01 -0.10275175235E-01  0.10230906552E+01  0.10228783948E+01 0.  0.
     999903    2    3    3    0    0  0.10851382248E+00  0.50979053663E-01 -0.51796745868E-01  0.13222964217E+00  0.20679985568E-01 0.  0.
         14    1    1    2    0    0  0.47060567283E-02  0.17508629154E-01  0.10275175235E-01  0.20839344781E-01  0.00000000000E+00 0.  1.
     999901    1    3    3    0    0 -0.11321987921E+00 -0.68487682817E-01  0.41521570632E-01  0.89086101305E+00  0.88000000000E+00 0. -1.
        -11    1    4    4    0    0  0.41932232127E-01  0.30985736845E-01 -0.21935902177E-01  0.56567419106E-01  0.51100000000E-03 0. -1.
         11    1    4    4    0    0  0.66581590357E-01  0.19993316818E-01 -0.29860843691E-01  0.75662223063E-01  0.51100000000E-03 0.  1.
</event>
<event>
 8    1  0.1163913E+005  0.1043930E+01  0.7957747E-01            NaN
         13   -1    0    0    0    0  0.00000000000E+00  0.00000000000E+00  0.74505805969E-08  0.10566000000E+00  0.10566000000E+00 0. -1.
     999900   -1    0    0    0    0 -0.00000000000E+00 -0.00000000000E+00 -0.74505805969E-08  0.93827000000E+00  0.93827000000E+00 0.  1.
     999902    2    1    2    0    0 -0.13990562857E-01  0.19082805315E-01 -0.36680200154E-02  0.10199854040E+01  0.10197043104E+01 0.  0.
     999903    2    3    3    0    0  0.20204884053E-01 -0.50418830830E-01  0.11491056170E+00  0.12866016252E+00  0.19967583458E-01 0.  0.
         14    1    1    2    0    0  0.13990562857E-01 -0.19082805315E-01  0.36680200154E-02  0.23944596020E-01  0.00000000000E+00 0. -1.
     999901    1    3    3    0    0 -0.34195446911E-01  0.69501636144E-01 -0.11857858171E+00  0.89132524146E+00  0.88000000000E+00 0. -1.
        -11    1    4    4    0    0  0.11996673681E-01 -0.14551772082E-01  0.23602938422E-01  0.30216453685E-01  0.51100000000E-03 0. -1.
         11    1    4    4    0    0  0.82082103723E-02 -0.35867058748E-01  0.91307623276E-01  0.98443708839E-01  0.51100000000E-03 0.  1.
</event>
<event>
 7    1  0.1163913E+005  0.1043930E+01  0.7957747E-01            NaN
         13   -1    0    0    0    0  0.00000000000E+00  0.00000000000E+00  0.74505805969E-08  0.10566000000E+00  0.10566000000E+00 0. -1.
     999900   -1    0    0    0    0 -0.00000000000E+00 -0.00000000000E+00 -0.74505805969E-08  0.93827000000E+00  0.93827000000E+00 0. -1.
     999903    2    1    2    0    0 -0.91378417439E-01 -0.71720487290E-01  0.13412805537E-01  0.11870384775E+00  0.20417067551E-01 0.  0.
         14    1    1    2    0    0  0.10216376661E-01  0.38417560755E-01  0.82452801979E-02  0.40598866634E-01  0.00000000000E+00 0. -1.
     999901    1    1    2    0    0  0.81162040778E-01  0.33302926535E-01 -0.21658085735E-01  0.88462728562E+00  0.88000000000E+00 0.  1.
        -11    1    3    3    0    0 -0.95107894702E-02 -0.73439192194E-02  0.79401738698E-02  0.14411653199E-01  0.51100000000E-03 0.  1.
         11    1    3    3    0    0 -0.81867627968E-01 -0.64376568071E-01  0.54726316674E-02  0.10429219455E+00  0.51100000000E-03 0. -1.
</event>
<event>
 8    1  0.1163913E+005  0.1043930E+01  0.7957747E-01            NaN
         13   -1    0    0    0    0  0.00000000000E+00  0.00000000000E+00  0.74505805969E-08  0.10566000000E+00  0.10566000000E+00 0.  1.
     999900   -1    0    0    0    0 -0.00000000000E+00 -0.00000000000E+00 -0.74505805969E-08  0.93827000000E+00  0.93827000000E+00 0. -1.
     999902    2    1    2    0    0 -0.12926626277E-01  0.79848747550E-04 -0.19702609953E-01  0.10203652619E+01  0.10200931187E+01 0.  0.
     999903    2    3    3    0    0 -0.91672993970E-01 -0.85908848470E-01 -0.37067929826E-01  0.13250457418E+00  0.19979056206E-01 0.  0.
         14    1    1    2    0    0  0.12926626277E-01 -0.79848747550E-04  0.19702609953E-01  0.23564738099E-01  0.00000000000E+00 0.  1.
     999901    1    3    3    0    0  0.78746367693E-01  0.85988697218E-01  0.17365319874E-01  0.88786068773E+00  0.88000000000E+00 0.  1.
        -11    1    4    4    0    0 -0.59932404641E-01 -0.55765266125E-01 -0.33923269286E-01  0.88615502888E-01  0.51100000000E-03 0. -1.
         11    1    4    4    0    0 -0.31740589329E-01 -0.30143582345E-01 -0.31446605406E-02  0.43889071288E-01  0.51100000000E-03 0.  1.
</event>
<event>
 8    1  0.1163913E+005  0.1043930E+01  0.7957747E-01            NaN
         13   -1    0    0    0    0  0.00000000000E+00  0.00000000000E+00  0.74505805969E-08  0.10566000000E+00  0.10566000000E+00 0. -1.
     999900   -1    0    0    0    0 -0.00000000000E+00 -0.00000000000E+00 -0.74505805969E-08  0.93827000000E+00  0.93827000000E+00 0.  1.
     999902    2    1    2    0    0  0.17821837818E-01  0.56534013752E-02 -0.14236333867E-01  0.10204299563E+01  0.10201593227E+01 0.  0.
     999903    2    3    3    0    0 -0.89759163586E-01 -0.73445329831E-01  0.49936110040E-01  0.12804641564E+00  0.21244894707E-01 0.  0.
         14    1    1    2    0    0 -0.17821837818E-01 -0.56534013752E-02  0.14236333867E-01  0.23500043666E-01  0.00000000000E+00 0. -1.
     999901    1    3    3    0    0  0.10758100140E+00  0.79098731206E-01 -0.64172443907E-01  0.89238354069E+00  0.88000000000E+00 0. -1.
        -11    1    4    4    0    0 -0.49952941732E-01 -0.47587346596E-01  0.39291302369E-01  0.79397226064E-01  0.51100000000E-03 0.  1.
         11    1    4    4    0    0 -0.39806221853E-01 -0.25857983235E-01  0.10644807671E-01  0.48649189578E-01  0.51100000000E-03 0. -1.
</event>
<event>
 8    1  0.1163913E+005  0.1043930E+01  0.7957747E-01            NaN
         13   -1    0    0    0    0  0.00000000000E+00  0.00000000000E+00  0.74505805969E-08  0.10566000000E+00  0.10566000000E+00 0. -1.
     999900   -1    0    0    0    0 -0.00000000000E+00 -0.00000000000E+00 -0.74505805969E-08  0.93827000000E+00  0.93827000000E+00 0. -1.
     999902    2    1    2    0    0  0.18657416341E-01 -0.10585498683E-01  0.76656331815E-02  0.10211503183E+01  0.10208962037E+01 0.  0.
     999903    2    3    3    0    0  0.69546057840E-02  0.35329693561E-01 -0.12346248887E+00  0.13017346952E+00  0.20139320242E-01 0.  0.
         14    1    1    2    0    0 -0.18657416341E-01  0.10585498683E-01 -0.76656331815E-02  0.22779681713E-01  0.00000000000E+00 0.  1.
     999901    1    3    3    0    0  0.11702810557E-01 -0.45915192243E-01  0.13112812205E+00  0.89097684877E+00  0.88000000000E+00 0.  1.
        -11    1    4    4    0    0  0.79283984053E-02  0.23988095399E-02 -0.23781824617E-01  0.25188292749E-01  0.51100000000E-03 0.  1.
         11    1    4    4    0    0 -0.97379262129E-03  0.32930884021E-01 -0.99680664250E-01  0.10498517677E+00  0.51100000000E-03 0. -1.
</event>
<event>
 8    1  0.1163913E+005  0.1043930E+01  0.7957747E-01            NaN
         13   -1    0    0    0    0  0.00000000000E+00  0.00000000000E+00  0.74505805969E-08  0.10566000000E+00  0.10566000000E+00 0. -1.
     999900   -1    0    0    0    0 -0.00000000000E+00 -0.00000000000E+00 -0.74505805969E-08  0.93827000000E+00  0.93827000000E+00 0. -1.
     999902    2    1    2    0    0 -0.44242656162E-02 -0.10103360218E-01 -0.22207480577E-01  0.10191343510E+01  0.10188326660E+01 0.  0.
     999903    2    3    3    0    0 -0.77053070153E-01  0.90984097128E-01  0.42397111933E-01  0.12802977207E+00  0.19463450006E-01 0.  0.
         14    1    1    2    0    0  0.44242656162E-02  0.10103360218E-01  0.22207480577E-01  0.24795648963E-01  0.00000000000E+00 0. -1.
     999901    1    3    3    0    0  0.72628804536E-01 -0.10108745735E+00 -0.64604592510E-01  0.89110457897E+00  0.88000000000E+00 0. -1.
        -11    1    4    4    0    0 -0.68071374368E-02  0.10043680632E-01  0.10915100293E-01  0.16328293730E-01  0.51100000000E-03 0.  1.
         11    1    4    4    0    0 -0.70245932716E-01  0.80940416496E-01  0.31482011640E-01  0.11170147834E+00  0.51100000000E-03 0. -1.
</event>
<event>
 8    1  0.1163913E+005  0.1043930E+01  0.7957747E-01            NaN
         13   -1    0    0    0    0  0.00000000000E+00  0.00000000000E+00  0.74505805969E-08  0.10566000000E+00  0.10566000000E+00 0. -1.
     999900   -1    0    0    0    0 -0.00000000000E+00 -0.00000000000E+00 -0.74505805969E-08  0.93827000000E+00  0.93827000000E+00 0. -1.
     999902    2    1    2    0    0  0.33722779843E-02  0.16844113266E-01 -0.16127153662E-01  0.10203677103E+01  0.10200956243E+01 0.  0.
     999903    2    3    3    0    0 -0.89125197767E-01 -0.89125892963E-01 -0.19515394477E-01  0.12919045217E+00  0.20557155361E-01 0.  0.
         14    1    1    2    0    0 -0.33722779843E-02 -0.16844113266E-01  0.16127153662E-01  0.23562289697E-01  0.00000000000E+00 0. -1.
     999901    1    3    3    0    0  0.92497475751E-01  0.10597000623E+00  0.33882408153E-02  0.89117725813E+00  0.88000000000E+00 0. -1.
        -11    1    4    4    0    0 -0.39507031743E-01 -0.53858450949E-01 -0.87166856165E-02  0.67363046434E-01  0.51100000000E-03 0.  1.
         11    1    4    4    0    0 -0.49618166024E-01 -0.35267442014E-01 -0.10798708861E-01  0.61827405735E-01  0.51100000000E-03 0. -1.
</event>
<event>
 8    1  0.1163913E+005  0.1043930E+01  0.7957747E-01            NaN
         13   -1    0    0    0    0  0.00000000000E+00  0.00000000000E+00  0.74505805969E-08  0.10566000000E+00  0.10566000000E+00 0. -1.
     999900   -1    0    0    0    0 -0.00000000000E+00 -0.00000000000E+00 -0.74505805969E-08  0.93827000000E+00  0.93827000000E+00 0. -1.
     999902    2    1    2    0    0  0.19821376382E-01  0.27648956729E-04 -0.18039630060E-01  0.10171285825E+01  0.10167754115E+01 0.  0.
     999903    2    3    3    0    0 -0.89655382346E-01 -0.99744790308E-02  0.83522329739E-01  0.12449201877E+00  0.19613907244E-01 0.  0.
         14    1    1    2    0    0 -0.19821376382E-01 -0.27648956729E-04  0.18039630060E-01  0.26801417478E-01  0.00000000000E+00 0. -1.
     999901    1    3    3    0    0  0.10947675873E+00  0.10002127988E-01 -0.10156195980E+00  0.89263656375E+00  0.88000000000E+00 0. -1.
        -11    1    4    4    0    0 -0.71548985389E-01 -0.14046366689E-01  0.72873909365E-01  0.10308940544E+00  0.51100000000E-03 0.  1.
         11    1    4    4    0    0 -0.18106396957E-01  0.40718876583E-02  0.10648420374E-01  0.21402613330E-01  0.51100000000E-03 0. -1.
</event>
<event>
 8    1  0.1200458E+005  0.1043930E+01  0.7957747E-01            NaN
         13   -1    0    0    0    0  0.00000000000E+00  0.00000000000E+00  0.74505805969E-08  0.10566000000E+00  0.10566000000E+00 0.  1.
     999900   -1    0    0    0    0 -0.00000000000E+00 -0.00000000000E+00 -0.74505805969E-08  0.93827000000E+00  0.93827000000E+00 0.  1.
     999902    2    1    2    0    0 -0.66490088552E-02  0.15762820213E-01 -0.16241867670E-01  0.10203402971E+01  0.10200675702E+01 0.  0.
     999903    2    3    3    0    0 -0.10355270270E+00  0.14992957145E-02  0.76041098974E-01  0.13011003473E+00  0.20517365367E-01 0.  0.
         14    1    1    2    0    0  0.66490088552E-02 -0.15762820213E-01  0.16241867670E-01  0.23589702949E-01  0.00000000000E+00 0.  1.
     999901    1    3    3    0    0  0.96903693843E-01  0.14263524499E-01 -0.92282966644E-01  0.89023026232E+00  0.88000000000E+00 0.  1.
        -11    1    4    4    0    0 -0.53889963267E-01 -0.92314122497E-02  0.36762514580E-01  0.65886954037E-01  0.51100000000E-03 0. -1.
         11    1    4    4    0    0 -0.49662739430E-01  0.10730707964E-01  0.39278584395E-01  0.64223080697E-01  0.51100000000E-03 0.  1.
</event>
<event>
 8    1  0.1163913E+005  0.1043930E+01  0.7957747E-01            NaN
         13   -1    0    0    0    0  0.00000000000E+00  0.00000000000E+00  0.74505805969E-08  0.10566000000E+00  0.10566000000E+00 0.  1.
     999900   -1    0    0    0    0 -0.00000000000E+00 -0.00000000000E+00 -0.74505805969E-08  0.93827000000E+00  0.93827000000E+00 0. -1.
     999902    2    1    2    0    0 -0.74067800338E-02 -0.14002888924E-01  0.17070994872E-01  0.10206413728E+01  0.10203756425E+01 0.  0.
     999903    2    3    3    0    0  0.67881789071E-01 -0.96995798924E-01 -0.52108401345E-01  0.13084253007E+00  0.19706848760E-01 0.  0.
         14    1    1    2    0    0  0.74067800338E-02  0.14002888924E-01 -0.17070994872E-01  0.23288627152E-01  0.00000000000E+00 0. -1.
     999901    1    3    3    0    0 -0.75288569105E-01  0.82992910000E-01  0.69179396217E-01  0.88979884278E+00  0.88000000000E+00 0. -1.
        -11    1    4    4    0    0  0.42861379886E-01 -0.51048362217E-01 -0.37671875832E-01  0.76566732465E-01  0.51100000000E-03 0.  1.
         11    1    4    4    0    0  0.25020409185E-01 -0.45947436707E-01 -0.14436525514E-01  0.54275797605E-01  0.51100000000E-03 0. -1.
</event>
<event>
 8    1  0.1163913E+005  0.1043930E+01  0.7957747E-01            NaN
         13   -1    0    0    0    0  0.00000000000E+00  0.00000000000E+00  0.74505805969E-08  0.10566000000E+00  0.10566000000E+00 0. -1.
     999900   -1    0    0    0    0 -0.00000000000E+00 -0.00000000000E+00 -0.74505805969E-08  0.93827000000E+00  0.93827000000E+00 0.  1.
     999902    2    1    2    0    0  0.38808381837E-02  0.22964646417E-01 -0.49359542862E-03  0.10206345170E+01  0.10203686284E+01 0.  0.
     999903    2    3    3    0    0  0.11476633056E+00  0.63373122048E-01 -0.49164168081E-02  0.13274488500E+00  0.20237838607E-01 0.  0.
         14    1    1    2    0    0 -0.38808381837E-02 -0.22964646417E-01  0.49359542862E-03  0.23295482964E-01  0.00000000000E+00 0. -1.
     999901    1    3    3    0    0 -0.11088549238E+00 -0.40408475631E-01  0.44228213795E-02  0.88788963203E+00  0.88000000000E+00 0. -1.
        -11    1    4    4    0    0  0.64043655079E-01  0.45015166387E-01 -0.81316610239E-02  0.78704129451E-01  0.51100000000E-03 0.  1.
         11    1    4    4    0    0  0.50722675483E-01  0.18357955661E-01  0.32152442158E-02  0.54040755552E-01  0.51100000000E-03 0. -1.
</event>
<event>
 8    1  0.1163913E+005  0.1043930E+01  0.7957747E-01            NaN
         13   -1    0    0    0    0  0.00000000000E+00  0.00000000000E+00  0.74505805969E-08  0.10566000000E+00  0.10566000000E+00 0. -1.
     999900   -1    0    0    0    0 -0.00000000000E+00 -0.00000000000E+00 -0.74505805969E-08  0.93827000000E+00  0.93827000000E+00 0. -1.
     999902    2    1    2    0    0  0.41735370486E-02  0.80024175187E-03  0.21340010942E-01  0.10221709820E+01  0.10219393629E+01 0.  0.
     999903    2    3    3    0    0  0.11608770081E+00 -0.65587774426E-02  0.63477867411E-01  0.13405244588E+00  0.20524296686E-01 0.  0.
         14    1    1    2    0    0 -0.41735370486E-02 -0.80024175187E-03 -0.21340010942E-01  0.21759018024E-01  0.00000000000E+00 0.  1.
     999901    1    3    3    0    0 -0.11191416376E+00  0.73590191945E-02 -0.42137856469E-01  0.88811853610E+00  0.88000000000E+00 0. -1.
        -11    1    4    4    0    0  0.67687373741E-01  0.33157148162E-02  0.44798736414E-01  0.81238921915E-01  0.51100000000E-03 0.  1.
         11    1    4    4    0    0  0.48400327067E-01 -0.98744922589E-02  0.18679130997E-01  0.52813523963E-01  0.51100000000E-03 0. -1.
</event>
<event>
 8    1  0.1163913E+005  0.1043930E+01  0.7957747E-01            NaN
         13   -1    0    0    0    0  0.00000000000E+00  0.00000000000E+00  0.74505805969E-08  0.10566000000E+00  0.10566000000E+00 0. -1.
     999900   -1    0    0    0    0 -0.00000000000E+00 -0.00000000000E+00 -0.74505805969E-08  0.93827000000E+00  0.93827000000E+00 0.  1.
     999902    2    1    2    0    0  0.22070579598E-01  0.69422093488E-02  0.32527354954E-02  0.10205658171E+01  0.10202983397E+01 0.  0.
     999903    2    3    3    0    0  0.12287535340E+00 -0.33526037164E-01  0.33969393269E-01  0.13335513498E+00  0.20182286929E-01 0.  0.
         14    1    1    2    0    0 -0.22070579598E-01 -0.69422093488E-02 -0.32527354954E-02  0.23364182901E-01  0.00000000000E+00 0.  1.
     999901    1    3    3    0    0 -0.10080477380E+00  0.40468246513E-01 -0.30716657774E-01  0.88721068212E+00  0.88000000000E+00 0. -1.
        -11    1    4    4    0    0  0.78524250808E-01 -0.11798224994E-01  0.24149774094E-01  0.82998366175E-01  0.51100000000E-03 0. -1.
         11    1    4    4    0    0  0.44351102593E-01 -0.21727812170E-01  0.98196191748E-02  0.50356768806E-01  0.51100000000E-03 0.  1.
</event>
<event>
 8    1  0.1163913E+005  0.1043930E+01  0.7957747E-01            NaN
         13   -1    0    0    0    0  0.00000000000E+00  0.00000000000E+00  0.74505805969E-08  0.10566000000E+00  0.10566000000E+00 0. -1.
     999900   -1    0    0    0    0 -0.00000000000E+00 -0.00000000000E+00 -0.74505805969E-08  0.93827000000E+00  0.93827000000E+00 0.  1.
     999902    2    1    2    0    0 -0.11063690480E-01 -0.20562182839E-01  0.57603089099E-02  0.10198802647E+01  0.10195966676E+01 0.  0.
     999903    2    3    3    0    0 -0.10268974265E+00  0.71393650968E-01 -0.27572519477E-01  0.12973292505E+00  0.20691818863E-01 0.  0.
         14    1    1    2    0    0  0.11063690480E-01  0.20562182839E-01 -0.57603089099E-02  0.24049735318E-01  0.00000000000E+00 0. -1.
     999901    1    3    3    0    0  0.91626052168E-01 -0.91955833807E-01  0.33332828387E-01  0.89014733963E+00  0.88000000000E+00 0. -1.
        -11    1    4    4    0    0 -0.24171898624E-01  0.10673097739E-01 -0.12855309825E-01  0.29389042348E-01  0.51100000000E-03 0. -1.
         11    1    4    4    0    0 -0.78517844024E-01  0.60720553229E-01 -0.14717209652E-01  0.10034388270E+00  0.51100000000E-03 0.  1.
</event>
<event>
 8    1  0.1163913E+005  0.1043930E+01  0.7957747E-01            NaN
         13   -1    0    0    0    0  0.00000000000E+00  0.00000000000E+00  0.74505805969E-08  0.10566000000E+00  0.10566000000E+00 0. -1.
     999900   -1    0    0    0    0 -0.00000000000E+00 -0.00000000000E+00 -0.74505805969E-08  0.93827000000E+00  0.93827000000E+00 0.  1.
     999902    2    1    2    0    0  0.17096246899E-01  0.50727916019E-03 -0.14872511764E-01  0.10212643741E+01  0.10210128262E+01 0.  0.
     999903    2    3    3    0    0 -0.11588037342E+00 -0.26847566700E-01  0.46386810629E-01  0.12874895480E+00  0.16598324663E-01 0.  0.
         14    1    1    2    0    0 -0.17096246899E-01 -0.50727916019E-03  0.14872511764E-01  0.22665625876E-01  0.00000000000E+00 0. -1.
     999901    1    3    3    0    0  0.13297662032E+00  0.27354845860E-01 -0.61259322393E-01  0.89251541932E+00  0.88000000000E+00 0.  1.
        -11    1    4    4    0    0 -0.16959732188E-01  0.19362756458E-02  0.66659795450E-02  0.18332432560E-01  0.51100000000E-03 0. -1.
         11    1    4    4    0    0 -0.98920641230E-01 -0.28783842346E-01  0.39720831084E-01  0.11041652224E+00  0.51100000000E-03 0.  1.
</event>
<event>
 8    1  0.1163913E+005  0.1043930E+01  0.7957747E-01            NaN
         13   -1    0    0    0    0  0.00000000000E+00  0.00000000000E+00  0.74505805969E-08  0.10566000000E+00  0.10566000000E+00 0. -1.
     999900   -1    0    0    0    0 -0.00000000000E+00 -0.00000000000E+00 -0.74505805969E-08  0.93827000000E+00  0.93827000000E+00 0. -1.
     999902    2    1    2    0    0  0.22067894494E-01  0.17115541298E-01  0.74944356405E-02  0.10150146012E+01  0.10146026515E+01 0.  0.
     999903    2    3    3    0    0  0.10778309279E+00 -0.50894305574E-01 -0.39070959819E-01  0.12701641960E+00  0.19980128055E-01 0.  0.
         14    1    1    2    0    0 -0.22067894494E-01 -0.17115541298E-01 -0.74944356405E-02  0.28915398785E-01  0.00000000000E+00 0.  1.
     999901    1    3    3    0    0 -0.85715198294E-01  0.68009846871E-01  0.46565395459E-01  0.88799818161E+00  0.88000000000E+00 0.  1.
        -11    1    4    4    0    0  0.32980076075E-01 -0.24604185269E-01 -0.83846913383E-02  0.41995422613E-01  0.51100000000E-03 0.  1.
         11    1    4    4    0    0  0.74803016714E-01 -0.26290120305E-01 -0.30686268480E-01  0.85020996991E-01  0.51100000000E-03 0. -1.
</event>
<event>
 8    1  0.1163913E+005  0.1043930E+01  0.7957747E-01            NaN
         13   -1    0    0    0    0  0.00000000000E+00  0.00000000000E+00  0.74505805969E-08  0.10566000000E+00  0.10566000000E+00 0. -1.
     999900   -1    0    0    0    0 -0.00000000000E+00 -0.00000000000E+00 -0.74505805969E-08  0.93827000000E+00  0.93827000000E+00 0.  1.
     999902    2    1    2    0    0  0.22762451983E-01 -0.31508611951E-02  0.76758933872E-02  0.10197024024E+01  0.10194145442E+01 0.  0.
     999903    2    3    3    0    0  0.21115822971E-01  0.48411354676E-02  0.12807613655E+00  0.13146662178E+00  0.20264780203E-01 0.  0.
         14    1    1    2    0    0 -0.22762451983E-01  0.31508611951E-02 -0.76758933872E-02  0.24227597608E-01  0.00000000000E+00 0. -1.
     999901    1    3    3    0    0  0.16466290122E-02 -0.79919966627E-02 -0.12040024317E+00  0.88823578061E+00  0.88000000000E+00 0.  1.
        -11    1    4    4    0    0  0.81153108657E-02  0.11245518604E-01  0.81886908143E-01  0.83054480947E-01  0.51100000000E-03 0. -1.
         11    1    4    4    0    0  0.13000512105E-01 -0.64043831365E-02  0.46189228410E-01  0.48412140838E-01  0.51100000000E-03 0.  1.
</event>
<event>
 8    1  0.1163913E+005  0.1043930E+01  0.7957747E-01            NaN
         13   -1    0    0    0    0  0.00000000000E+00  0.00000000000E+00  0.74505805969E-08  0.10566000000E+00  0.10566000000E+00 0.  1.
     999900   -1    0    0    0    0 -0.00000000000E+00 -0.00000000000E+00 -0.74505805969E-08  0.93827000000E+00  0.93827000000E+00 0.  1.
     999902    2    1    2    0    0  0.25714880589E-03 -0.20564035326E-01 -0.12327530669E-01  0.10199526422E+01  0.10196707697E+01 0.  0.
     999903    2    3    3    0    0  0.32372175371E-01 -0.19006469564E-01  0.12119851643E+00  0.12929950759E+00  0.24901378561E-01 0.  0.
         14    1    1    2    0    0 -0.25714880589E-03  0.20564035326E-01  0.12327530669E-01  0.23977357794E-01  0.00000000000E+00 0.  1.
     999901    1    3    3    0    0 -0.32115026565E-01 -0.15575657619E-02 -0.13352604710E+00  0.89065313461E+00  0.88000000000E+00 0.  1.
        -11    1    4    4    0    0  0.30181993018E-01 -0.54011325687E-02  0.73317877992E-01  0.79472619750E-01  0.51100000000E-03 0.  1.
         11    1    4    4    0    0  0.21901823528E-02 -0.13605336995E-01  0.47880638441E-01  0.49826887842E-01  0.51100000000E-03 0. -1.
</event>
<event>
 8    1  0.1163913E+005  0.1043930E+01  0.7957747E-01            NaN
         13   -1    0    0    0    0  0.00000000000E+00  0.00000000000E+00  0.74505805969E-08  0.10566000000E+00  0.10566000000E+00 0.  1.
     999900   -1    0    0    0    0 -0.00000000000E+00 -0.00000000000E+00 -0.74505805969E-08  0.93827000000E+00  0.93827000000E+00 0. -1.
     999902    2    1    2    0    0  0.14562062881E-01  0.14184662984E-01  0.12222071967E-01  0.10202100214E+01  0.10199342383E+01 0.  0.
     999903    2    3    3    0    0 -0.45563067531E-01 -0.10901586453E+00 -0.44308399209E-01  0.12780367036E+00  0.20250730245E-01 0.  0.
         14    1    1    2    0    0 -0.14562062881E-01 -0.14184662984E-01 -0.12222071967E-01  0.23719978551E-01  0.00000000000E+00 0. -1.
     999901    1    3    3    0    0  0.60125130412E-01  0.12320052751E+00  0.56530471176E-01  0.89240635109E+00  0.88000000000E+00 0. -1.
        -11    1    4    4    0    0 -0.78147431456E-02 -0.16444138026E-01 -0.15076467425E-01  0.23644045273E-01  0.51100000000E-03 0.  1.
         11    1    4    4    0    0 -0.37748324386E-01 -0.92571726505E-01 -0.29231931784E-01  0.10415962509E+00  0.51100000000E-03 0. -1.
</event>
<event>
 8    1  0.1163913E+005  0.1043930E+01  0.7957747E-01            NaN
         13   -1    0    0    0    0  0.00000000000E+00  0.00000000000E+00  0.74505805969E-08  0.10566000000E+00  0.10566000000E+00 0. -1.
     999900   -1    0    0    0    0 -0.00000000000E+00 -0.00000000000E+00 -0.74505805969E-08  0.93827000000E+00  0.93827000000E+00 0. -1.
     999902    2    1    2    0    0 -0.33215003873E-02  0.15675102018E-01 -0.19026546349E-01  0.10190553009E+01  0.10187516654E+01 0.  0.
     999903    2    3    3    0    0 -0.35445649451E-01 -0.23477436900E-01 -0.12282057580E+00  0.13150919913E+00  0.20054712890E-01 0.  0.
         14    1    1    2    0    0  0.33215003873E-02 -0.15675102018E-01  0.19026546349E-01  0.24874699075E-01  0.00000000000E+00 0.  1.
     999901    1    3    3    0    0  0.32124149064E-01  0.39152538918E-01  0.10379402945E+00  0.88754610179E+00  0.88000000000E+00 0.  1.
        -11    1    4    4    0    0 -0.27530396034E-01 -0.65429632428E-02 -0.72886511297E-01  0.78188475646E-01  0.51100000000E-03 0.  1.
         11    1    4    4    0    0 -0.79152534170E-02 -0.16934473657E-01 -0.49934064500E-01  0.53320723487E-01  0.51100000000E-03 0. -1.
</event>
<event>
 8    1  0.1163913E+005  0.1043930E+01  0.7957747E-01            NaN
         13   -1    0    0    0    0  0.00000000000E+00  0.00000000000E+00  0.74505805969E-08  0.10566000000E+00  0.10566000000E+00 0.  1.
     999900   -1    0    0    0    0 -0.00000000000E+00 -0.00000000000E+00 -0.74505805969E-08  0.93827000000E+00  0.93827000000E+00 0.  1.
     999902    2    1    2    0    0 -0.11675637559E-01  0.50138245849E-02  0.19236497390E-01  0.10208756776E+01  0.10206153278E+01 0.  0.
     999903    2    3    3    0    0  0.10139063554E+00 -0.57759636672E-01 -0.50529789281E-01  0.12869193851E+00  0.19801990529E-01 0.  0.
         14    1    1    2    0    0  0.11675637559E-01 -0.50138245849E-02 -0.19236497390E-01  0.23054322398E-01  0.00000000000E+00 0. -1.
     999901    1    3    3    0    0 -0.11306627310E+00  0.62773461257E-01  0.69766286672E-01  0.89218373910E+00  0.88000000000E+00 0. -1.
        -11    1    4    4    0    0  0.66192120702E-01 -0.44893399654E-01 -0.41641754805E-01  0.90172673464E-01  0.51100000000E-03 0.  1.
         11    1    4    4    0    0  0.35198514835E-01 -0.12866237018E-01 -0.88880344764E-02  0.38519265043E-01  0.51100000000E-03 0. -1.
</event>
<event>
 8    1  0.1163913E+005  0.1043930E+01  0.7957747E-01            NaN
         13   -1    0    0    0    0  0.00000000000E+00  0.00000000000E+00  0.74505805969E-08  0.10566000000E+00  0.10566000000E+00 0.  1.
     999900   -1    0    0    0    0 -0.00000000000E+00 -0.00000000000E+00 -0.74505805969E-08  0.93827000000E+00  0.93827000000E+00 0. -1.
     999902    2    1    2    0    0  0.84254402131E-02 -0.21620067329E-02  0.21996800803E-01  0.10202757919E+01  0.10200015539E+01 0.  0.
     999903    2    3    3    0    0  0.35908717315E-01  0.76872992221E-02 -0.12128882729E+00  0.12820902837E+00  0.19443373717E-01 0.  0.
         14    1    1    2    0    0 -0.84254402131E-02  0.21620067329E-02 -0.21996800803E-01  0.23654208113E-01  0.00000000000E+00 0. -1.
     999901    1    3    3    0    0 -0.27483277102E-01 -0.98493059550E-02  0.14328562810E+00  0.89206676351E+00  0.88000000000E+00 0.  1.
        -11    1    4    4    0    0  0.14472202113E-01  0.12068795608E-01 -0.68905547175E-01  0.71437637236E-01  0.51100000000E-03 0. -1.
         11    1    4    4    0    0  0.21436515202E-01 -0.43814963859E-02 -0.52383280118E-01  0.56771391136E-01  0.51100000000E-03 0.  1.
</event>
<event>
 8    1  0.1233138E+005  0.1043930E+01  0.7957747E-01            NaN
         13   -1    0    0    0    0  0.00000000000E+00  0.00000000000E+00  0.74505805969E-08  0.10566000000E+00  0.10566000000E+00 0.  1.
     999900   -1    0    0    0    0 -0.00000000000E+00 -0.00000000000E+00 -0.74505805969E-08  0.93827000000E+00  0.93827000000E+00 0.  1.
     999902    2    1    2    0    0 -0.69205703866E-02 -0.12018924701E-01  0.18950994251E-01  0.10204461965E+01  0.10201759411E+01 0.  0.
     999903    2    3    3    0    0 -0.18163339519E-01 -0.12896630618E+00  0.15328421966E-01  0.13263078044E+00  0.19843093766E-01 0.  0.
         14    1    1    2    0    0  0.69205703866E-02  0.12018924701E-01 -0.18950994251E-01  0.23483803536E-01  0.00000000000E+00 0. -1.
     999901    1    3    3    0    0  0.11242769132E-01  0.11694738147E+00  0.36225722845E-02  0.88781541602E+00  0.88000000000E+00 0.  1.
        -11    1    4    4    0    0 -0.19691053690E-01 -0.71559229885E-01  0.61880998385E-02  0.74478283262E-01  0.51100000000E-03 0.  1.
         11    1    4    4    0    0  0.15277141712E-02 -0.57407076291E-01  0.91403221279E-02  0.58152497182E-01  0.51100000000E-03 0. -1.
</event>
<event>
 8    1  0.1163913E+005  0.1043930E+01  0.7957747E-01            NaN
         13   -1    0    0    0    0  0.00000000000E+00  0.00000000000E+00  0.74505805969E-08  0.10566000000E+00  0.10566000000E+00 0.  1.
     999900   -1    0    0    0    0 -0.00000000000E+00 -0.00000000000E+00 -0.74505805969E-08  0.93827000000E+00  0.93827000000E+00 0. -1.
     999902    2    1    2    0    0  0.13269782427E-02  0.14012137657E-01  0.17444234655E-01  0.10215156699E+01  0.10212697301E+01 0.  0.
     999903    2    3    3    0    0  0.84140673394E-01  0.70238594076E-01 -0.69850064316E-01  0.13154948110E+00  0.20325389913E-01 0.  0.
         14    1    1    2    0    0 -0.13269782427E-02 -0.14012137657E-01 -0.17444234655E-01  0.22414330141E-01  0.00000000000E+00 0. -1.
     999901    1    3    3    0    0 -0.82813695152E-01 -0.56226456419E-01  0.87294298970E-01  0.88996618876E+00  0.88000000000E+00 0. -1.
        -11    1    4    4    0    0  0.39015367185E-01  0.23474489793E-01 -0.37316460060E-01  0.58872997716E-01  0.51100000000E-03 0. -1.
         11    1    4    4    0    0  0.45125306209E-01  0.46764104283E-01 -0.32533604256E-01  0.72676483382E-01  0.51100000000E-03 0.  1.
</event>
<event>
 8    1  0.1163913E+005  0.1043930E+01  0.7957747E-01            NaN
         13   -1    0    0    0    0  0.00000000000E+00  0.00000000000E+00  0.74505805969E-08  0.10566000000E+00  0.10566000000E+00 0.  1.
     999900   -1    0    0    0    0 -0.00000000000E+00 -0.00000000000E+00 -0.74505805969E-08  0.93827000000E+00  0.93827000000E+00 0. -1.
     999902    2    1    2    0    0  0.19830980877E-01 -0.82289846735E-02 -0.10211610655E-01  0.10201547822E+01  0.10198776979E+01 0.  0.
     999903    2    3    3    0    0  0.33994506760E-01  0.65350983438E-01  0.10455190792E+00  0.12954528166E+00  0.20603422659E-01 0.  0.
         14    1    1    2    0    0 -0.19830980877E-01  0.82289846735E-02  0.10211610655E-01  0.23775217843E-01  0.00000000000E+00 0.  1.
     999901    1    3    3    0    0 -0.14163525883E-01 -0.73579968111E-01 -0.11476351858E+00  0.89060950049E+00  0.88000000000E+00 0. -1.
        -11    1    4    4    0    0  0.18872650664E-01  0.17525092457E-01  0.43196763179E-01  0.50294406040E-01  0.51100000000E-03 0.  1.
         11    1    4    4    0    0  0.15121856096E-01  0.47825890981E-01  0.61355144742E-01  0.79250875625E-01  0.51100000000E-03 0. -1.
</event>
<event>
 8    1  0.1163913E+005  0.1043930E+01  0.7957747E-01            NaN
         13   -1    0    0    0    0  0.00000000000E+00  0.00000000000E+00  0.74505805969E-08  0.10566000000E+00  0.10566000000E+00 0.  1.
     999900   -1    0    0    0    0 -0.00000000000E+00 -0.00000000000E+00 -0.74505805969E-08  0.93827000000E+00  0.93827000000E+00 0.  1.
     999902    2    1    2    0    0  0.13794755771E-01  0.84068787745E-02  0.17940495103E-01  0.10197880808E+01  0.10195022793E+01 0.  0.
     999903    2    3    3    0    0 -0.47315267000E-01 -0.33714305996E-01  0.11587729050E+00  0.13124981772E+00  0.20581041733E-01 0.  0.
         14    1    1    2    0    0 -0.13794755771E-01 -0.84068787745E-02 -0.17940495103E-01  0.24141919187E-01  0.00000000000E+00 0. -1.
     999901    1    3    3    0    0  0.61110022770E-01  0.42121184770E-01 -0.97936795393E-01  0.88853826309E+00  0.88000000000E+00 0.  1.
        -11    1    4    4    0    0 -0.17367090510E-01 -0.17334322668E-01  0.69178701924E-01  0.73403327555E-01  0.51100000000E-03 0.  1.
         11    1    4    4    0    0 -0.29948176489E-01 -0.16379983328E-01  0.46698588571E-01  0.57846490165E-01  0.51100000000E-03 0. -1.
</event>
<event>
 8    1  0.1163913E+005  0.1043930E+01  0.7957747E-01            NaN
         13   -1    0    0    0    0  0.00000000000E+00  0.00000000000E+00  0.74505805969E-08  0.10566000000E+00  0.10566000000E+00 0.  1.
     999900   -1    0    0    0    0 -0.00000000000E+00 -0.00000000000E+00 -0.74505805969E-08  0.93827000000E+00  0.93827000000E+00 0.  1.
     999902    2    1    2    0    0 -0.19710488697E-02  0.14636991736E-01  0.12744306010E-01  0.10244224657E+01  0.10242367130E+01 0.  0.
     999903    2    3    3    0    0 -0.86764675615E-01 -0.87078836635E-03  0.10241074321E+00  0.13567586490E+00  0.19776571621E-01 0.  0.
         14    1    1    2    0    0  0.19710488697E-02 -0.14636991736E-01 -0.12744306010E-01  0.19507534349E-01  0.00000000000E+00 0. -1.
     999901    1    3    3    0    0  0.84793626746E-01  0.15507780102E-01 -0.89666437202E-01  0.88874660075E+00  0.88000000000E+00 0.  1.
        -11    1    4    4    0    0 -0.15317127582E-01 -0.63033367211E-02  0.12802440332E-01  0.20940631572E-01  0.51100000000E-03 0. -1.
         11    1    4    4    0    0 -0.71447548033E-01  0.54325483547E-02  0.89608302880E-01  0.11473523333E+00  0.51100000000E-03 0.  1.
</event>
<event>
 8    1  0.1163913E+005  0.1043930E+01  0.7957747E-01            NaN
         13   -1    0    0    0    0  0.00000000000E+00  0.00000000000E+00  0.74505805969E-08  0.10566000000E+00  0.10566000000E+00 0. -1.
     999900   -1    0    0    0    0 -0.00000000000E+00 -0.00000000000E+00 -0.74505805969E-08  0.93827000000E+00  0.93827000000E+00 0. -1.
     999902    2    1    2    0    0 -0.46511275260E-02 -0.78765686530E-02  0.22228136520E-01  0.10198932911E+01  0.10196100048E+01 0.  0.
     999903    2    3    3    0    0  0.12708782264E+00  0.13127087015E-01 -0.47483096425E-02  0.12943047146E+00  0.20151065012E-01 0.  0.
         14    1    1    2    0    0  0.46511275260E-02  0.78765686530E-02 -0.22228136520E-01  0.24036708888E-01  0.00000000000E+00 0.  1.
     999901    1    3    3    0    0 -0.13173895016E+00 -0.21003655668E-01  0.26976446163E-01  0.89046281966E+00  0.88000000000E+00 0.  1.
        -11    1    4    4    0    0  0.75055590778E-01  0.15385256708E-01 -0.91436700545E-02  0.77161620343E-01  0.51100000000E-03 0. -1.
         11    1    4    4    0    0  0.52032231858E-01 -0.22581696933E-02  0.43953604120E-02  0.52268851113E-01  0.51100000000E-03 0.  1.
</event>
<event>
 8    1  0.1163913E+005  0.1043930E+01  0.7957747E-01            NaN
         13   -1    0    0    0    0  0.00000000000E+00  0.00000000000E+00  0.74505805969E-08  0.10566000000E+00  0.10566000000E+00 0. -1.
     999900   -1    0    0    0    0 -0.00000000000E+00 -0.00000000000E+00 -0.74505805969E-08  0.93827000000E+00  0.93827000000E+00 0.  1.
     999902    2    1    2    0    0 -0.20922232722E-01  0.21657026377E-01 -0.27013175104E-02  0.10136965131E+01  0.10132455561E+01 0.  0.
     999903    2    3    3    0    0  0.73486128161E-01  0.82970956488E-01  0.54378789106E-01  0.12469118399E+00  0.17505656416E-01 0.  0.
         14    1    1    2    0    0  0.20922232722E-01 -0.21657026377E-01  0.27013175104E-02  0.30233486895E-01  0.00000000000E+00 0.  1.
     999901    1    3    3    0    0 -0.94408360882E-01 -0.61313930111E-01 -0.57080106617E-01  0.88900532912E+00  0.88000000000E+00 0. -1.
        -11    1    4    4    0    0  0.24316378886E-01  0.36075111956E-01  0.28335538982E-01  0.51921709094E-01  0.51100000000E-03 0.  1.
         11    1    4    4    0    0  0.49169749275E-01  0.46895844532E-01  0.26043250124E-01  0.72769474892E-01  0.51100000000E-03 0. -1.
</event>
<event>
 8    1  0.1163913E+005  0.1043930E+01  0.7957747E-01            NaN
         13   -1    0    0    0    0  0.00000000000E+00  0.00000000000E+00  0.74505805969E-08  0.10566000000E+00  0.10566000000E+00 0. -1.
     999900   -1    0    0    0    0 -0.00000000000E+00 -0.00000000000E+00 -0.74505805969E-08  0.93827000000E+00  0.93827000000E+00 0.  1.
     999902    2    1    2    0    0  0.80332557006E-02 -0.19750577379E-01 -0.12124426234E-01  0.10194020524E+01  0.10191069248E+01 0.  0.
     999903    2    3    3    0    0 -0.11613978413E+00 -0.54223711729E-01 -0.75075922060E-02  0.13000413468E+00  0.20397321422E-01 0.  0.
         14    1    1    2    0    0 -0.80332557006E-02  0.19750577379E-01  0.12124426234E-01  0.24527947641E-01  0.00000000000E+00 0.  1.
     999901    1    3    3    0    0  0.12417303983E+00  0.34473134349E-01 -0.46168340276E-02  0.88939791768E+00  0.88000000000E+00 0.  1.
        -11    1    4    4    0    0 -0.56170613439E-01 -0.31015136132E-01  0.54804374106E-02  0.64400099368E-01  0.51100000000E-03 0. -1.
         11    1    4    4    0    0 -0.59969170695E-01 -0.23208575597E-01 -0.12988029617E-01  0.65604035314E-01  0.51100000000E-03 0.  1.
</event>
<event>
 8    1  0.1163913E+005  0.1043930E+01  0.7957747E-01            NaN
         13   -1    0    0    0    0  0.00000000000E+00  0.00000000000E+00  0.74505805969E-08  0.10566000000E+00  0.10566000000E+00 0.  1.
     999900   -1    0    0    0    0 -0.00000000000E+00 -0.00000000000E+00 -0.74505805969E-08  0.93827000000E+00  0.93827000000E+00 0.  1.
     999902    2    1    2    0    0  0.13225518230E-01 -0.18782347677E-01 -0.75828345006E-02  0.10197392932E+01  0.10194523215E+01 0.  0.
     999903    2    3    3    0    0 -0.10388168227E+00  0.55712380847E-01  0.43652583788E-01  0.12738923348E+00  0.20668706871E-01 0.  0.
         14    1    1    2    0    0 -0.13225518230E-01  0.18782347677E-01  0.75828345006E-02  0.24190706806E-01  0.00000000000E+00 0. -1.
     999901    1    3    3    0    0  0.11710720050E+00 -0.74494728525E-01 -0.51235418289E-01  0.89235005972E+00  0.88000000000E+00 0.  1.
        -11    1    4    4    0    0 -0.29766396991E-01  0.26094955990E-01  0.18552116167E-01  0.43719872521E-01  0.51100000000E-03 0. -1.
         11    1    4    4    0    0 -0.74115285279E-01  0.29617424858E-01  0.25100467621E-01  0.83669360957E-01  0.51100000000E-03 0.  1.
</event>
<event>
 8    1  0.1163913E+005  0.1043930E+01  0.7957747E-01            NaN
         13   -1    0    0    0    0  0.00000000000E+00  0.00000000000E+00  0.74505805969E-08  0.10566000000E+00  0.10566000000E+00 0. -1.
     999900   -1    0    0    0    0 -0.00000000000E+00 -0.00000000000E+00 -0.74505805969E-08  0.93827000000E+00  0.93827000000E+00 0.  1.
     999902    2    1    2    0    0  0.12977104763E-01 -0.19021501645E-01  0.49111910565E-02  0.10203855193E+01  0.10201138493E+01 0.  0.
     999903    2    3    3    0    0  0.56471522461E-01  0.87260862003E-01  0.75950837904E-01  0.13008538082E+00  0.18713247658E-01 0.  0.
         14    1    1    2    0    0 -0.12977104763E-01  0.19021501645E-01 -0.49111910565E-02  0.23544480679E-01  0.00000000000E+00 0.  1.
     999901    1    3    3    0    0 -0.43494417698E-01 -0.10628236365E+00 -0.71039646847E-01  0.89030013850E+00  0.88000000000E+00 0.  1.
        -11    1    4    4    0    0  0.44838966021E-01  0.68806909860E-01  0.49885763959E-01  0.96092529809E-01  0.51100000000E-03 0. -1.
         11    1    4    4    0    0  0.11632556440E-01  0.18453952142E-01  0.26065073944E-01  0.33992851009E-01  0.51100000000E-03 0.  1.
</event>
<event>
 8    1  0.1163913E+005  0.1043930E+01  0.7957747E-01            NaN
         13   -1    0    0    0    0  0.00000000000E+00  0.00000000000E+00  0.74505805969E-08  0.10566000000E+00  0.10566000000E+00 0.  1.
     999900   -1    0    0    0    0 -0.00000000000E+00 -0.00000000000E+00 -0.74505805969E-08  0.93827000000E+00  0.93827000000E+00 0. -1.
     999902    2    1    2    0    0 -0.20235947706E-01  0.67779751614E-02  0.98722002853E-02  0.10204162835E+01  0.10201453312E+01 0.  0.
     999903    2    3    3    0    0  0.88118598651E-01  0.72593379649E-01 -0.56715666299E-01  0.12884109361E+00  0.18672825230E-01 0.  0.
         14    1    1    2    0    0  0.20235947706E-01 -0.67779751614E-02 -0.98722002853E-02  0.23513716536E-01  0.00000000000E+00 0. -1.
     999901    1    3    3    0    0 -0.10835454636E+00 -0.65815404488E-01  0.66587866584E-01  0.89157518985E+00  0.88000000000E+00 0.  1.
        -11    1    4    4    0    0  0.10169608619E-01  0.10601834265E-01 -0.14564550689E-01  0.20693165224E-01  0.51100000000E-03 0.  1.
         11    1    4    4    0    0  0.77948990032E-01  0.61991545384E-01 -0.42151115611E-01  0.10814792839E+00  0.51100000000E-03 0. -1.
</event>
<event>
 8    1  0.1163913E+005  0.1043930E+01  0.7957747E-01            NaN
         13   -1    0    0    0    0  0.00000000000E+00  0.00000000000E+00  0.74505805969E-08  0.10566000000E+00  0.10566000000E+00 0.  1.
     999900   -1    0    0    0    0 -0.00000000000E+00 -0.00000000000E+00 -0.74505805969E-08  0.93827000000E+00  0.93827000000E+00 0.  1.
     999902    2    1    2    0    0  0.19822835594E-01 -0.91552451859E-02  0.13660022852E-01  0.10181742327E+01  0.10178484212E+01 0.  0.
     999903    2    3    3    0    0 -0.10798041498E+00 -0.26185810850E-01 -0.55916320493E-01  0.12606180784E+00  0.20481156913E-01 0.  0.
         14    1    1    2    0    0 -0.19822835594E-01  0.91552451859E-02 -0.13660022852E-01  0.25755767310E-01  0.00000000000E+00 0.  1.
     999901    1    3    3    0    0  0.12780325057E+00  0.17030565664E-01  0.69576343345E-01  0.89211242485E+00  0.88000000000E+00 0. -1.
        -11    1    4    4    0    0 -0.42182550108E-01 -0.17253715045E-01 -0.14621631675E-01  0.47865555991E-01  0.51100000000E-03 0. -1.
         11    1    4    4    0    0 -0.65797864872E-01 -0.89320958053E-02 -0.41294688819E-01  0.78196251846E-01  0.51100000000E-03 0.  1.
</event>
<event>
 8    1  0.1163913E+005  0.1043930E+01  0.7957747E-01            NaN
         13   -1    0    0    0    0  0.00000000000E+00  0.00000000000E+00  0.74505805969E-08  0.10566000000E+00  0.10566000000E+00 0.  1.
     999900   -1    0    0    0    0 -0.00000000000E+00 -0.00000000000E+00 -0.74505805969E-08  0.93827000000E+00  0.93827000000E+00 0.  1.
     999902    2    1    2    0    0 -0.20929595107E-01 -0.20283892257E-02  0.45775773300E-03  0.10228973621E+01  0.10226811045E+01 0.  0.
     999903    2    3    3    0    0  0.12312475340E+00  0.29643171232E-01  0.23525857165E-01  0.13032418289E+00  0.19811718471E-01 0.  0.
         14    1    1    2    0    0  0.20929595107E-01  0.20283892257E-02 -0.45775773300E-03  0.21032637883E-01  0.00000000000E+00 0. -1.
     999901    1    3    3    0    0 -0.14405434851E+00 -0.31671560458E-01 -0.23068099432E-01  0.89257317923E+00  0.88000000000E+00 0. -1.
        -11    1    4    4    0    0  0.22128349409E-01  0.11723994616E-01  0.95278818037E-02  0.26798461710E-01  0.51100000000E-03 0. -1.
         11    1    4    4    0    0  0.10099640399E+00  0.17919176616E-01  0.13997975361E-01  0.10352572118E+00  0.51100000000E-03 0.  1.
</event>
<event>
 8    1  0.1163913E+005  0.1043930E+01  0.7957747E-01            NaN
         13   -1    0    0    0    0  0.00000000000E+00  0.00000000000E+00  0.74505805969E-08  0.10566000000E+00  0.10566000000E+00 0.  1.
     999900   -1    0    0    0    0 -0.00000000000E+00 -0.00000000000E+00 -0.74505805969E-08  0.93827000000E+00  0.93827000000E+00 0.  1.
     999902    2    1    2    0    0 -0.11169179537E-01  0.10661283668E-01 -0.17608823352E-01  0.10205102604E+01  0.10202414947E+01 0.  0.
     999903    2    3    3    0    0  0.12604355360E+00  0.19575898616E-01  0.83691528803E-02  0.12945377529E+00  0.20446124440E-01 0.  0.
         14    1    1    2    0    0  0.11169179537E-01 -0.10661283668E-01  0.17608823352E-01  0.23419739555E-01  0.00000000000E+00 0.  1.
     999901    1    3    3    0    0 -0.13721273314E+00 -0.89146149481E-02 -0.25977976232E-01  0.89105648516E+00  0.88000000000E+00 0.  1.
        -11    1    4    4    0    0  0.75497450658E-01  0.10634400622E-01  0.14962263853E-01  0.77698687203E-01  0.51100000000E-03 0.  1.
         11    1    4    4    0    0  0.50546102944E-01  0.89414979935E-02 -0.65931109723E-02  0.51755088083E-01  0.51100000000E-03 0. -1.
</event>
<event>
 8    1  0.1163913E+005  0.1043930E+01  0.7957747E-01            NaN
         13   -1    0    0    0    0  0.00000000000E+00  0.00000000000E+00  0.74505805969E-08  0.10566000000E+00  0.10566000000E+00 0. -1.
     999900   -1    0    0    0    0 -0.00000000000E+00 -0.00000000000E+00 -0.74505805969E-08  0.93827000000E+00  0.93827000000E+00 0.  1.
     999902    2    1    2    0    0 -0.11954839946E-01 -0.17935673396E-01  0.85405087712E-02  0.10207449430E+01  0.10204815980E+01 0.  0.
     999903    2    3    3    0    0  0.11412415000E+00  0.57422047847E-01 -0.25973596658E-02  0.12850128234E+00  0.13572770324E-01 0.  0.
         14    1    1    2    0    0  0.11954839946E-01  0.17935673396E-01 -0.85405087712E-02  0.23185057005E-01  0.00000000000E+00 0. -1.
     999901    1    3    3    0    0 -0.12607898995E+00 -0.75357721243E-01  0.11137868437E-01  0.89224366065E+00  0.88000000000E+00 0. -1.
        -11    1    4    4    0    0  0.21932550267E-01  0.97225792947E-02  0.46658509959E-02  0.24445788919E-01  0.51100000000E-03 0.  1.
         11    1    4    4    0    0  0.92191599734E-01  0.47699468553E-01 -0.72632106617E-02  0.10405549342E+00  0.51100000000E-03 0. -1.
</event>
<event>
 8    1  0.1163913E+005  0.1043930E+01  0.7957747E-01            NaN
         13   -1    0    0    0    0  0.00000000000E+00  0.00000000000E+00  0.74505805969E-08  0.10566000000E+00  0.10566000000E+00 0. -1.
     999900   -1    0    0    0    0 -0.00000000000E+00 -0.00000000000E+00 -0.74505805969E-08  0.93827000000E+00  0.93827000000E+00 0. -1.
     999902    2    1    2    0    0 -0.19415907895E-01  0.13708279881E-01  0.26082281690E-03  0.10201610613E+01  0.10198841251E+01 0.  0.
     999903    2    3    3    0    0  0.42932918384E-01 -0.89764379878E-01  0.79293729973E-01  0.12839866705E+00  0.17258120128E-01 0.  0.
         14    1    1    2    0    0  0.19415907895E-01 -0.13708279881E-01 -0.26082281690E-03  0.23768938664E-01  0.00000000000E+00 0. -1.
     999901    1    3    3    0    0 -0.62348826279E-01  0.10347265976E+00 -0.79032907156E-01  0.89176239429E+00  0.88000000000E+00 0.  1.
        -11    1    4    4    0    0  0.12788081920E-01 -0.18204901262E-01  0.25975347636E-01  0.34204287377E-01  0.51100000000E-03 0.  1.
         11    1    4    4    0    0  0.30144836463E-01 -0.71559478616E-01  0.53318382337E-01  0.94194379669E-01  0.51100000000E-03 0. -1.
</event>
<event>
 8    1  0.1163913E+005  0.1043930E+01  0.7957747E-01            NaN
         13   -1    0    0    0    0  0.00000000000E+00  0.00000000000E+00  0.74505805969E-08  0.10566000000E+00  0.10566000000E+00 0. -1.
     999900   -1    0    0    0    0 -0.00000000000E+00 -0.00000000000E+00 -0.74505805969E-08  0.93827000000E+00  0.93827000000E+00 0.  1.
     999902    2    1    2    0    0  0.22495891067E-01  0.33613251497E-02 -0.44079688438E-02  0.10207611888E+01  0.10204982170E+01 0.  0.
     999903    2    3    3    0    0 -0.62451860048E-01  0.11132964820E+00  0.99836360644E-02  0.12998602220E+00  0.22409096019E-01 0.  0.
         14    1    1    2    0    0 -0.22495891067E-01 -0.33613251497E-02  0.44079688438E-02  0.23168811169E-01  0.00000000000E+00 0. -1.
     999901    1    3    3    0    0  0.84947751116E-01 -0.10796832305E+00 -0.14391604908E-01  0.89077516664E+00  0.88000000000E+00 0.  1.
        -11    1    4    4    0    0 -0.31002120957E-01  0.40575607447E-01  0.12277660544E-01  0.52521552652E-01  0.51100000000E-03 0.  1.
         11    1    4    4    0    0 -0.31449739091E-01  0.70754040756E-01 -0.22940244793E-02  0.77464469543E-01  0.51100000000E-03 0. -1.
</event>
<event>
 8    1  0.1163913E+005  0.1043930E+01  0.7957747E-01            NaN
         13   -1    0    0    0    0  0.00000000000E+00  0.00000000000E+00  0.74505805969E-08  0.10566000000E+00  0.10566000000E+00 0.  1.
     999900   -1    0    0    0    0 -0.00000000000E+00 -0.00000000000E+00 -0.74505805969E-08  0.93827000000E+00  0.93827000000E+00 0.  1.
     999902    2    1    2    0    0  0.87919920128E-03 -0.22785036714E-01 -0.71011388917E-02  0.10200478505E+01  0.10197682385E+01 0.  0.
     999903    2    3    3    0    0  0.53524514626E-01 -0.11295423390E+00 -0.41472325633E-01  0.13320886186E+00  0.20027842198E-01 0.  0.
         14    1    1    2    0    0 -0.87919920128E-03  0.22785036714E-01  0.71011388917E-02  0.23882149460E-01  0.00000000000E+00 0. -1.
     999901    1    3    3    0    0 -0.52645315425E-01  0.90169197188E-01  0.34371186742E-01  0.88683898868E+00  0.88000000000E+00 0. -1.
        -11    1    4    4    0    0  0.45609074265E-01 -0.88056561957E-01 -0.24834127978E-01  0.10223082115E+00  0.51100000000E-03 0.  1.
         11    1    4    4    0    0  0.79154403609E-02 -0.24897671945E-01 -0.16638197655E-01  0.30978040716E-01  0.51100000000E-03 0. -1.
</event>
<event>
 8    1  0.1163913E+005  0.1043930E+01  0.7957747E-01            NaN
         13   -1    0    0    0    0  0.00000000000E+00  0.00000000000E+00  0.74505805969E-08  0.10566000000E+00  0.10566000000E+00 0. -1.
     999900   -1    0    0    0    0 -0.00000000000E+00 -0.00000000000E+00 -0.74505805969E-08  0.93827000000E+00  0.93827000000E+00 0. -1.
     999902    2    1    2    0    0 -0.43119505634E-02  0.12426030386E-02  0.30330815271E-01  0.10132690259E+01  0.10128050274E+01 0.  0.
     999903    2    3    3    0    0  0.13915265689E-01 -0.49580182616E-04  0.12550140434E+00  0.12794911635E+00  0.20657608927E-01 0.  0.
         14    1    1    2    0    0  0.43119505634E-02 -0.12426030386E-02 -0.30330815271E-01  0.30660974136E-01  0.00000000000E+00 0.  1.
     999901    1    3    3    0    0 -0.18227216253E-01  0.12921832212E-02 -0.95170589071E-01  0.88531990951E+00  0.88000000000E+00 0. -1.
        -11    1    4    4    0    0  0.15503258251E-01  0.73865869444E-02  0.92169328326E-01  0.93756913816E-01  0.51100000000E-03 0. -1.
         11    1    4    4    0    0 -0.15879925621E-02 -0.74361671271E-02  0.33332076016E-01  0.34192202539E-01  0.51100000000E-03 0.  1.
</event>
<event>
 8    1  0.1163913E+005  0.1043930E+01  0.7957747E-01            NaN
         13   -1    0    0    0    0  0.00000000000E+00  0.00000000000E+00  0.74505805969E-08  0.10566000000E+00  0.10566000000E+00 0. -1.
     999900   -1    0    0    0    0 -0.00000000000E+00 -0.00000000000E+00 -0.74505805969E-08  0.93827000000E+00  0.93827000000E+00 0. -1.
     999902    2    1    2    0    0 -0.95567647945E-02  0.15134686896E-01 -0.18458517993E-01  0.10182179914E+01  0.10178933002E+01 0.  0.
     999903    2    3    3    0    0 -0.12715768741E-01  0.12164355438E+00 -0.43769664348E-01  0.13142896783E+00  0.19973606861E-01 0.  0.
         14    1    1    2    0    0  0.95567647945E-02 -0.15134686896E-01  0.18458517993E-01  0.25712008620E-01  0.00000000000E+00 0. -1.
     999901    1    3    3    0    0  0.31590039468E-02 -0.10650886748E+00  0.25311146354E-01  0.88678902355E+00  0.88000000000E+00 0.  1.
        -11    1    4    4    0    0 -0.81040837255E-02  0.72442791801E-01 -0.36347233296E-01  0.81455612122E-01  0.51100000000E-03 0. -1.
         11    1    4    4    0    0 -0.46116850159E-02  0.49200762579E-01 -0.74224310517E-02  0.49973355708E-01  0.51100000000E-03 0.  1.
</event>
<event>
 8    1  0.1163913E+005  0.1043930E+01  0.7957747E-01            NaN
         13   -1    0    0    0    0  0.00000000000E+00  0.00000000000E+00  0.74505805969E-08  0.10566000000E+00  0.10566000000E+00 0. -1.
     999900   -1    0    0    0    0 -0.00000000000E+00 -0.00000000000E+00 -0.74505805969E-08  0.93827000000E+00  0.93827000000E+00 0.  1.
     999902    2    1    2    0    0 -0.24259245957E-01 -0.17340545256E-02 -0.12931343827E-04  0.10196088543E+01  0.10193187420E+01 0.  0.
     999903    2    3    3    0    0 -0.66027111494E-01 -0.67054878062E-01 -0.89847856718E-01  0.13164394602E+00  0.20038838328E-01 0.  0.
         14    1    1    2    0    0  0.24259245957E-01  0.17340545256E-02  0.12931343827E-04  0.24321145671E-01  0.00000000000E+00 0. -1.
     999901    1    3    3    0    0  0.41767865536E-01  0.65320823537E-01  0.89834925375E-01  0.88796490831E+00  0.88000000000E+00 0.  1.
        -11    1    4    4    0    0 -0.51580417535E-01 -0.56850447732E-01 -0.62116881932E-01  0.98748574787E-01  0.51100000000E-03 0. -1.
         11    1    4    4    0    0 -0.14446693959E-01 -0.10204430330E-01 -0.27730974787E-01  0.32895371229E-01  0.51100000000E-03 0.  1.
</event>
<event>
 8    1  0.1163913E+005  0.1043930E+01  0.7957747E-01            NaN
         13   -1    0    0    0    0  0.00000000000E+00  0.00000000000E+00  0.74505805969E-08  0.10566000000E+00  0.10566000000E+00 0.  1.
     999900   -1    0    0    0    0 -0.00000000000E+00 -0.00000000000E+00 -0.74505805969E-08  0.93827000000E+00  0.93827000000E+00 0.  1.
     999902    2    1    2    0    0 -0.21801904398E-01  0.32558322054E-02  0.78762119212E-02  0.10205214932E+01  0.10202529881E+01 0.  0.
     999903    2    3    3    0    0  0.81647922095E-01 -0.83391505556E-02 -0.96518956731E-01  0.12825770846E+00  0.19955103536E-01 0.  0.
         14    1    1    2    0    0  0.21801904398E-01 -0.32558322054E-02 -0.78762119212E-02  0.23408506850E-01  0.00000000000E+00 0. -1.
     999901    1    3    3    0    0 -0.10344982649E+00  0.11594982761E-01  0.10439516865E+00  0.89226378469E+00  0.88000000000E+00 0. -1.
        -11    1    4    4    0    0  0.38080246435E-01  0.73434233871E-03 -0.31303094599E-01  0.49303035197E-01  0.51100000000E-03 0.  1.
         11    1    4    4    0    0  0.43567675661E-01 -0.90734928943E-02 -0.65215862132E-01  0.78954673265E-01  0.51100000000E-03 0. -1.
</event>
<event>
 8    1  0.1163913E+005  0.1043930E+01  0.7957747E-01            NaN
         13   -1    0    0    0    0  0.00000000000E+00  0.00000000000E+00  0.74505805969E-08  0.10566000000E+00  0.10566000000E+00 0.  1.
     999900   -1    0    0    0    0 -0.00000000000E+00 -0.00000000000E+00 -0.74505805969E-08  0.93827000000E+00  0.93827000000E+00 0. -1.
     999902    2    1    2    0    0 -0.37522284479E-03  0.14026655281E-01  0.19481637504E-01  0.10199212089E+01  0.10196385881E+01 0.  0.
     999903    2    3    3    0    0  0.19091381308E-01  0.10248402493E-01 -0.12289225402E+00  0.12825784817E+00  0.29632059054E-01 0.  0.
         14    1    1    2    0    0  0.37522284479E-03 -0.14026655281E-01 -0.19481637504E-01  0.24008791107E-01  0.00000000000E+00 0. -1.
     999901    1    3    3    0    0 -0.19466604153E-01  0.37782527881E-02  0.14237389153E+00  0.89166336073E+00  0.88000000000E+00 0.  1.
        -11    1    4    4    0    0  0.77525794386E-02 -0.94996653439E-02 -0.26390254083E-01  0.29104170855E-01  0.51100000000E-03 0.  1.
         11    1    4    4    0    0  0.11338801869E-01  0.19748067837E-01 -0.96501999941E-01  0.99153677313E-01  0.51100000000E-03 0. -1.
</event>
<event>
 8    1  0.1163913E+005  0.1043930E+01  0.7957747E-01            NaN
         13   -1    0    0    0    0  0.00000000000E+00  0.00000000000E+00  0.74505805969E-08  0.10566000000E+00  0.10566000000E+00 0.  1.
     999900   -1    0    0    0    0 -0.00000000000E+00 -0.00000000000E+00 -0.74505805969E-08  0.93827000000E+00  0.93827000000E+00 0. -1.
     999902    2    1    2    0    0  0.13065009894E-01  0.16201862176E-01 -0.10537461349E-01  0.10206011999E+01  0.10203345414E+01 0.  0.
     999903    2    3    3    0    0 -0.11867687536E-01 -0.11843143571E+00 -0.45991425256E-01  0.12930733825E+00  0.20936321416E-01 0.  0.
         14    1    1    2    0    0 -0.13065009894E-01 -0.16201862176E-01  0.10537461349E-01  0.23328800081E-01  0.00000000000E+00 0. -1.
     999901    1    3    3    0    0  0.24932697430E-01  0.13463329789E+00  0.35453963907E-01  0.89129386167E+00  0.88000000000E+00 0. -1.
        -11    1    4    4    0    0 -0.72158577087E-02 -0.16826438312E-01 -0.12688675809E-01  0.22281410268E-01  0.51100000000E-03 0. -1.
         11    1    4    4    0    0 -0.46518298269E-02 -0.10160499740E+00 -0.33302749447E-01  0.10702592798E+00  0.51100000000E-03 0.  1.
</event>
<event>
 8    1  0.1163913E+005  0.1043930E+01  0.7957747E-01            NaN
         13   -1    0    0    0    0  0.00000000000E+00  0.00000000000E+00  0.74505805969E-08  0.10566000000E+00  0.10566000000E+00 0.  1.
     999900   -1    0    0    0    0 -0.00000000000E+00 -0.00000000000E+00 -0.74505805969E-08  0.93827000000E+00  0.93827000000E+00 0.  1.
     999902    2    1    2    0    0 -0.13170999637E-01 -0.14642066724E-01 -0.13101771491E-01  0.10202757876E+01  0.10200015495E+01 0.  0.
     999903    2    3    3    0    0 -0.75887038542E-01  0.10354102394E+00 -0.99300909713E-02  0.13015747857E+00  0.19046686451E-01 0.  0.
         14    1    1    2    0    0  0.13170999637E-01  0.14642066724E-01  0.13101771491E-01  0.23654212428E-01  0.00000000000E+00 0.  1.
     999901    1    3    3    0    0  0.62716038905E-01 -0.11818309066E+00 -0.31716805196E-02  0.89011830900E+00  0.88000000000E+00 0. -1.
        -11    1    4    4    0    0 -0.71937754309E-01  0.99796183961E-01 -0.13294090325E-01  0.12373888955E+00  0.51100000000E-03 0.  1.
         11    1    4    4    0    0 -0.39492842334E-02  0.37448399789E-02  0.33639993536E-02  0.64185890252E-02  0.51100000000E-03 0. -1.
</event>
<event>
 8    1  0.1163913E+005  0.1043930E+01  0.7957747E-01            NaN
         13   -1    0    0    0    0  0.00000000000E+00  0.00000000000E+00  0.74505805969E-08  0.10566000000E+00  0.10566000000E+00 0. -1.
     999900   -1    0    0    0    0 -0.00000000000E+00 -0.00000000000E+00 -0.74505805969E-08  0.93827000000E+00  0.93827000000E+00 0.  1.
     999902    2    1    2    0    0 -0.20685331153E-01 -0.79354468692E-02  0.30620977428E-02  0.10215641626E+01  0.10213192975E+01 0.  0.
     999903    2    3    3    0    0 -0.12519752568E+00 -0.45360060089E-01  0.21160403695E-03  0.13458528694E+00  0.19524323188E-01 0.  0.
         14    1    1    2    0    0  0.20685331153E-01  0.79354468692E-02 -0.30620977428E-02  0.22365837442E-01  0.00000000000E+00 0.  1.
     999901    1    3    3    0    0  0.10451219453E+00  0.37424613220E-01  0.28504937058E-02  0.88697887562E+00  0.88000000000E+00 0. -1.
        -11    1    4    4    0    0 -0.32749078299E-01 -0.19751286977E-01  0.47818453543E-02  0.38545332177E-01  0.51100000000E-03 0. -1.
         11    1    4    4    0    0 -0.92448447383E-01 -0.25608773112E-01 -0.45702413174E-02  0.96039954762E-01  0.51100000000E-03 0.  1.
</event>
<event>
 8    1  0.1163913E+005  0.1043930E+01  0.7957747E-01            NaN
         13   -1    0    0    0    0  0.00000000000E+00  0.00000000000E+00  0.74505805969E-08  0.10566000000E+00  0.10566000000E+00 0. -1.
     999900   -1    0    0    0    0 -0.00000000000E+00 -0.00000000000E+00 -0.74505805969E-08  0.93827000000E+00  0.93827000000E+00 0. -1.
     999902    2    1    2    0    0 -0.20951752024E-01  0.43853947310E-02 -0.11207362596E-01  0.10197677862E+01  0.10194814982E+01 0.  0.
     999903    2    3    3    0    0 -0.76908581615E-01  0.73041668988E-01 -0.77197370304E-01  0.13286332015E+00  0.21052613230E-01 0.  0.
         14    1    1    2    0    0  0.20951752024E-01 -0.43853947310E-02  0.11207362596E-01  0.24162213810E-01  0.00000000000E+00 0.  1.
     999901    1    3    3    0    0  0.55956829591E-01 -0.68656274257E-01  0.65990007708E-01  0.88690446604E+00  0.88000000000E+00 0.  1.
        -11    1    4    4    0    0 -0.50320212620E-01  0.52177923884E-01 -0.40767709775E-01  0.83168063704E-01  0.51100000000E-03 0. -1.
         11    1    4    4    0    0 -0.26588368994E-01  0.20863745104E-01 -0.36429660529E-01  0.49695256442E-01  0.51100000000E-03 0.  1.
</event>
<event>
 8    1  0.1163913E+005  0.1043930E+01  0.7957747E-01            NaN
         13   -1    0    0    0    0  0.00000000000E+00  0.00000000000E+00  0.74505805969E-08  0.10566000000E+00  0.10566000000E+00 0.  1.
     999900   -1    0    0    0    0 -0.00000000000E+00 -0.00000000000E+00 -0.74505805969E-08  0.93827000000E+00  0.93827000000E+00 0. -1.
     999902    2    1    2    0    0  0.13849747240E-01 -0.14638036450E-01 -0.12125414503E-01  0.10204116394E+01  0.10201405788E+01 0.  0.
     999903    2    3    3    0    0 -0.35915031256E-01  0.92044685244E-01 -0.81832739083E-01  0.12984056002E+00  0.19996506891E-01 0.  0.
         14    1    1    2    0    0 -0.13849747240E-01  0.14638036450E-01  0.12125414503E-01  0.23518360627E-01  0.00000000000E+00 0.  1.
     999901    1    3    3    0    0  0.49764778495E-01 -0.10668272169E+00  0.69707324579E-01  0.89057107936E+00  0.88000000000E+00 0.  1.
        -11    1    4    4    0    0 -0.79728974111E-02  0.39545334269E-01 -0.42129574542E-01  0.58331490017E-01  0.51100000000E-03 0. -1.
         11    1    4    4    0    0 -0.27942133844E-01  0.52499350975E-01 -0.39703164541E-01  0.71509069999E-01  0.51100000000E-03 0.  1.
</event>
<event>
 8    1  0.1163913E+005  0.1043930E+01  0.7957747E-01            NaN
         13   -1    0    0    0    0  0.00000000000E+00  0.00000000000E+00  0.74505805969E-08  0.10566000000E+00  0.10566000000E+00 0.  1.
     999900   -1    0    0    0    0 -0.00000000000E+00 -0.00000000000E+00 -0.74505805969E-08  0.93827000000E+00  0.93827000000E+00 0. -1.
     999902    2    1    2    0    0  0.21456797446E-01 -0.86561774895E-02  0.42930515922E-02  0.10203980248E+01  0.10201266466E+01 0.  0.
     999903    2    3    3    0    0  0.12366653622E+00 -0.23299223699E-01 -0.36479401316E-01  0.13342359313E+00  0.25196080612E-01 0.  0.
         14    1    1    2    0    0 -0.21456797446E-01  0.86561774895E-02 -0.42930515922E-02  0.23531975211E-01  0.00000000000E+00 0. -1.
     999901    1    3    3    0    0 -0.10220973877E+00  0.14643046210E-01  0.40772452908E-01  0.88697443166E+00  0.88000000000E+00 0.  1.
        -11    1    4    4    0    0  0.49856992375E-01  0.30823416102E-02 -0.13979778891E-01  0.51874038375E-01  0.51100000000E-03 0.  1.
         11    1    4    4    0    0  0.73809543841E-01 -0.26381565310E-01 -0.22499622425E-01  0.81549554754E-01  0.51100000000E-03 0. -1.
</event>
<event>
 8    1  0.1163913E+005  0.1043930E+01  0.7957747E-01            NaN
         13   -1    0    0    0    0  0.00000000000E+00  0.00000000000E+00  0.74505805969E-08  0.10566000000E+00  0.10566000000E+00 0.  1.
     999900   -1    0    0    0    0 -0.00000000000E+00 -0.00000000000E+00 -0.74505805969E-08  0.93827000000E+00  0.93827000000E+00 0. -1.
     999902    2    1    2    0    0  0.86641032942E-02 -0.11284653736E-01 -0.16996314628E-01  0.10217650546E+01  0.10215246164E+01 0.  0.
     999903    2    3    3    0    0  0.58078519228E-01  0.83347639363E-01 -0.83285329345E-01  0.13283801094E+00  0.19736962327E-01 0.  0.
         14    1    1    2    0    0 -0.86641032942E-02  0.11284653736E-01  0.16996314628E-01  0.22164945449E-01  0.00000000000E+00 0.  1.
     999901    1    3    3    0    0 -0.49414415934E-01 -0.94632293099E-01  0.66289014718E-01  0.88892704362E+00  0.88000000000E+00 0. -1.
        -11    1    4    4    0    0  0.17471559052E-01  0.40046507698E-01 -0.41321577769E-01  0.60139105953E-01  0.51100000000E-03 0.  1.
         11    1    4    4    0    0  0.40606960176E-01  0.43301131665E-01 -0.41963751577E-01  0.72698904982E-01  0.51100000000E-03 0. -1.
</event>
<event>
 8    1  0.1163913E+005  0.1043930E+01  0.7957747E-01            NaN
         13   -1    0    0    0    0  0.00000000000E+00  0.00000000000E+00  0.74505805969E-08  0.10566000000E+00  0.10566000000E+00 0. -1.
     999900   -1    0    0    0    0 -0.00000000000E+00 -0.00000000000E+00 -0.74505805969E-08  0.93827000000E+00  0.93827000000E+00 0. -1.
     999902    2    1    2    0    0 -0.67439759828E-03  0.14202445613E-01 -0.10013889896E-01  0.10265391327E+01  0.10263918105E+01 0.  0.
     999903    2    3    3    0    0 -0.12305853728E+00  0.91853720774E-02  0.53075757198E-01  0.13581844012E+00  0.20045897734E-01 0.  0.
         14    1    1    2    0    0  0.67439759828E-03 -0.14202445613E-01  0.10013889896E-01  0.17390867269E-01  0.00000000000E+00 0. -1.
     999901    1    3    3    0    0  0.12238413969E+00  0.50170735357E-02 -0.63089647094E-01  0.89072069261E+00  0.88000000000E+00 0.  1.
        -11    1    4    4    0    0 -0.30333690503E-01 -0.52395950298E-02  0.17821698063E-01  0.35573307106E-01  0.51100000000E-03 0.  1.
         11    1    4    4    0    0 -0.92724846781E-01  0.14424967107E-01  0.35254059135E-01  0.10024513301E+00  0.51100000000E-03 0. -1.
</event>
<event>
 8    1  0.1163913E+005  0.1043930E+01  0.7957747E-01            NaN
         13   -1    0    0    0    0  0.00000000000E+00  0.00000000000E+00  0.74505805969E-08  0.10566000000E+00  0.10566000000E+00 0. -1.
     999900   -1    0    0    0    0 -0.00000000000E+00 -0.00000000000E+00 -0.74505805969E-08  0.93827000000E+00  0.93827000000E+00 0.  1.
     999902    2    1    2    0    0 -0.72804700111E-02  0.17715609510E-01  0.13433081171E-01  0.10205356474E+01  0.10202674708E+01 0.  0.
     999903    2    3    3    0    0  0.60525122395E-01  0.11592244346E+00  0.12022428491E-01  0.13247924686E+00  0.17461635784E-01 0.  0.
         14    1    1    2    0    0  0.72804700111E-02 -0.17715609510E-01 -0.13433081171E-01  0.23394352601E-01  0.00000000000E+00 0.  1.
     999901    1    3    3    0    0 -0.67805592406E-01 -0.98206833946E-01  0.14106526796E-02  0.88805640054E+00  0.88000000000E+00 0. -1.
        -11    1    4    4    0    0  0.19582594325E-01  0.36497710930E-01 -0.42919377401E-02  0.41644240348E-01  0.51100000000E-03 0. -1.
         11    1    4    4    0    0  0.40942528070E-01  0.79424732527E-01  0.16314366231E-01  0.90835006513E-01  0.51100000000E-03 0.  1.
</event>
<event>
 8    1  0.1163913E+005  0.1043930E+01  0.7957747E-01            NaN
         13   -1    0    0    0    0  0.00000000000E+00  0.00000000000E+00  0.74505805969E-08  0.10566000000E+00  0.10566000000E+00 0.  1.
     999900   -1    0    0    0    0 -0.00000000000E+00 -0.00000000000E+00 -0.74505805969E-08  0.93827000000E+00  0.93827000000E+00 0. -1.
     999902    2    1    2    0    0  0.71342948468E-02 -0.20428644686E-01 -0.11652517416E-01  0.10193534085E+01  0.10190570949E+01 0.  0.
     999903    2    3    3    0    0 -0.29786775331E-02 -0.11337643769E+00  0.62989729019E-01  0.13125823941E+00  0.19948190648E-01 0.  0.
         14    1    1    2    0    0 -0.71342948468E-02  0.20428644686E-01  0.11652517416E-01  0.24576591481E-01  0.00000000000E+00 0. -1.
     999901    1    3    3    0    0  0.10112972380E-01  0.92947793000E-01 -0.74642246435E-01  0.88809516910E+00  0.88000000000E+00 0. -1.
        -11    1    4    4    0    0 -0.64820213191E-02 -0.10983024512E+00  0.58940072042E-01  0.12481543397E+00  0.51100000000E-03 0.  1.
         11    1    4    4    0    0  0.35033437860E-02 -0.35461925700E-02  0.40496569773E-02  0.64428054495E-02  0.51100000000E-03 0. -1.
</event>
<event>
 8    1  0.1163913E+005  0.1043930E+01  0.7957747E-01            NaN
         13   -1    0    0    0    0  0.00000000000E+00  0.00000000000E+00  0.74505805969E-08  0.10566000000E+00  0.10566000000E+00 0.  1.
     999900   -1    0    0    0    0 -0.00000000000E+00 -0.00000000000E+00 -0.74505805969E-08  0.93827000000E+00  0.93827000000E+00 0.  1.
     999902    2    1    2    0    0  0.34555729539E-01  0.72852683044E-02  0.45548922056E-02  0.10083221270E+01  0.10076932029E+01 0.  0.
     999903    2    3    3    0    0 -0.56633623441E-01  0.10046826359E+00  0.19200226912E-01  0.11859573390E+00  0.19876118688E-01 0.  0.
         14    1    1    2    0    0 -0.34555729539E-01 -0.72852683044E-02 -0.45548922056E-02  0.35607873024E-01  0.00000000000E+00 0.  1.
     999901    1    3    3    0    0  0.91189352980E-01 -0.93182995281E-01 -0.14645334706E-01  0.88972639308E+00  0.88000000000E+00 0.  1.
        -11    1    4    4    0    0 -0.87232807119E-02  0.71023668709E-02 -0.22516428529E-02  0.11483477613E-01  0.51100000000E-03 0.  1.
         11    1    4    4    0    0 -0.47910342729E-01  0.93365896715E-01  0.21451869765E-01  0.10711225629E+00  0.51100000000E-03 0. -1.
</event>
<event>
 8    1  0.1163913E+005  0.1043930E+01  0.7957747E-01            NaN
         13   -1    0    0    0    0  0.00000000000E+00  0.00000000000E+00  0.74505805969E-08  0.10566000000E+00  0.10566000000E+00 0. -1.
     999900   -1    0    0    0    0 -0.00000000000E+00 -0.00000000000E+00 -0.74505805969E-08  0.93827000000E+00  0.93827000000E+00 0. -1.
     999902    2    1    2    0    0  0.46739821706E-03 -0.29125267877E-01  0.30292508634E-02  0.10146438932E+01  0.10142211563E+01 0.  0.
     999903    2    3    3    0    0  0.57226414054E-01  0.10344765724E+00 -0.26204406264E-01  0.12242655811E+00  0.18036379038E-01 0.  0.
         14    1    1    2    0    0 -0.46739821706E-03  0.29125267877E-01 -0.30292508634E-02  0.29286106788E-01  0.00000000000E+00 0. -1.
     999901    1    3    3    0    0 -0.56759015837E-01 -0.13257292512E+00  0.29233657127E-01  0.89221733510E+00  0.88000000000E+00 0. -1.
        -11    1    4    4    0    0  0.21705421075E-01  0.25408274104E-01 -0.27614625203E-02  0.33534944361E-01  0.51100000000E-03 0. -1.
         11    1    4    4    0    0  0.35520992978E-01  0.78039383134E-01 -0.23442943744E-01  0.88891613747E-01  0.51100000000E-03 0.  1.
</event>
<event>
 8    1  0.1163913E+005  0.1043930E+01  0.7957747E-01            NaN
         13   -1    0    0    0    0  0.00000000000E+00  0.00000000000E+00  0.74505805969E-08  0.10566000000E+00  0.10566000000E+00 0. -1.
     999900   -1    0    0    0    0 -0.00000000000E+00 -0.00000000000E+00 -0.74505805969E-08  0.93827000000E+00  0.93827000000E+00 0.  1.
     999902    2    1    2    0    0  0.12788548232E-01 -0.19588088610E-01  0.64898188755E-02  0.10196533048E+01  0.10193642646E+01 0.  0.
     999903    2    3    3    0    0  0.11670876549E+00 -0.55528662283E-01 -0.19919176090E-01  0.13241682481E+00  0.20810421455E-01 0.  0.
         14    1    1    2    0    0 -0.12788548232E-01  0.19588088610E-01 -0.64898188755E-02  0.24276695210E-01  0.00000000000E+00 0. -1.
     999901    1    3    3    0    0 -0.10392021725E+00  0.35940573674E-01  0.26408994965E-01  0.88723647998E+00  0.88000000000E+00 0. -1.
        -11    1    4    4    0    0  0.53679621972E-01 -0.20533108085E-01 -0.18250398250E-01  0.60302972563E-01  0.51100000000E-03 0. -1.
         11    1    4    4    0    0  0.63029143513E-01 -0.34995554198E-01 -0.16687778396E-02  0.72113852249E-01  0.51100000000E-03 0.  1.
</event>
<event>
 8    1  0.1163913E+005  0.1043930E+01  0.7957747E-01            NaN
         13   -1    0    0    0    0  0.00000000000E+00  0.00000000000E+00  0.74505805969E-08  0.10566000000E+00  0.10566000000E+00 0. -1.
     999900   -1    0    0    0    0 -0.00000000000E+00 -0.00000000000E+00 -0.74505805969E-08  0.93827000000E+00  0.93827000000E+00 0.  1.
     999902    2    1    2    0    0 -0.18054336426E-02  0.25097765641E-01 -0.64099711892E-02  0.10179637688E+01  0.10176325415E+01 0.  0.
     999903    2    3    3    0    0  0.45534908928E-01  0.33881343530E-02 -0.11866939051E+00  0.12930489538E+00  0.23503709087E-01 0.  0.
         14    1    1    2    0    0  0.18054336426E-02 -0.25097765641E-01  0.64099711892E-02  0.25966231176E-01  0.00000000000E+00 0. -1.
     999901    1    3    3    0    0 -0.47340342571E-01  0.21709631288E-01  0.11225941932E+00  0.88865887344E+00  0.88000000000E+00 0. -1.
        -11    1    4    4    0    0  0.58067696813E-03  0.56414088074E-02 -0.21060093711E-01  0.21816309202E-01  0.51100000000E-03 0.  1.
         11    1    4    4    0    0  0.44954231960E-01 -0.22532744544E-02 -0.97609296794E-01  0.10748858618E+00  0.51100000000E-03 0. -1.
</event>
<event>
 8    1  0.1163913E+005  0.1043930E+01  0.7957747E-01            NaN
         13   -1    0    0    0    0  0.00000000000E+00  0.00000000000E+00  0.74505805969E-08  0.10566000000E+00  0.10566000000E+00 0.  1.
     999900   -1    0    0    0    0 -0.00000000000E+00 -0.00000000000E+00 -0.74505805969E-08  0.93827000000E+00  0.93827000000E+00 0.  1.
     999902    2    1    2    0    0 -0.29024512158E-02 -0.11481713320E-01  0.20398231032E-01  0.10203431012E+01  0.10200704399E+01 0.  0.
     999903    2    3    3    0    0  0.29869509178E-01 -0.86245070160E-01  0.95117135195E-01  0.13341217070E+00  0.20521651426E-01 0.  0.
         14    1    1    2    0    0  0.29024512158E-02  0.11481713320E-01 -0.20398231032E-01  0.23586898759E-01  0.00000000000E+00 0.  1.
     999901    1    3    3    0    0 -0.32771960394E-01  0.74763356840E-01 -0.74718904163E-01  0.88693093054E+00  0.88000000000E+00 0.  1.
        -11    1    4    4    0    0  0.21562708259E-01 -0.58583422726E-01  0.77734172955E-01  0.99698698947E-01  0.51100000000E-03 0. -1.
         11    1    4    4    0    0  0.83068009195E-02 -0.27661647434E-01  0.17382962240E-01  0.33713471752E-01  0.51100000000E-03 0.  1.
</event>
<event>
 8    1  0.1163913E+005  0.1043930E+01  0.7957747E-01            NaN
         13   -1    0    0    0    0  0.00000000000E+00  0.00000000000E+00  0.74505805969E-08  0.10566000000E+00  0.10566000000E+00 0. -1.
     999900   -1    0    0    0    0 -0.00000000000E+00 -0.00000000000E+00 -0.74505805969E-08  0.93827000000E+00  0.93827000000E+00 0. -1.
     999902    2    1    2    0    0  0.73223188393E-02 -0.78631298091E-02 -0.21468912218E-01  0.10199225146E+01  0.10196399249E+01 0.  0.
     999903    2    3    3    0    0  0.18211018611E-01  0.69321396362E-01 -0.10909888491E+00  0.13214155795E+00  0.20536003952E-01 0.  0.
         14    1    1    2    0    0 -0.73223188393E-02  0.78631298091E-02  0.21468912218E-01  0.24007485403E-01  0.00000000000E+00 0. -1.
     999901    1    3    3    0    0 -0.10888699772E-01 -0.77184526171E-01  0.87629972689E-01  0.88778095664E+00  0.88000000000E+00 0.  1.
        -11    1    4    4    0    0  0.71130039487E-02  0.34358541624E-01 -0.71299531248E-01  0.79466901820E-01  0.51100000000E-03 0.  1.
         11    1    4    4    0    0  0.11098014662E-01  0.34962854737E-01 -0.37799353659E-01  0.52674656135E-01  0.51100000000E-03 0. -1.
</event>
<event>
 8    1  0.1163913E+005  0.1043930E+01  0.7957747E-01            NaN
         13   -1    0    0    0    0  0.00000000000E+00  0.00000000000E+00  0.74505805969E-08  0.10566000000E+00  0.10566000000E+00 0.  1.
     999900   -1    0    0    0    0 -0.00000000000E+00 -0.00000000000E+00 -0.74505805969E-08  0.93827000000E+00  0.93827000000E+00 0. -1.
     999902    2    1    2    0    0 -0.18030777904E-01 -0.12659849487E-01 -0.89769812170E-02  0.10201399405E+01  0.10198625060E+01 0.  0.
     999903    2    3    3    0    0  0.36146523161E-01  0.11285852186E+00 -0.46347253099E-01  0.12880017432E+00  0.19944922723E-01 0.  0.
         14    1    1    2    0    0  0.18030777904E-01  0.12659849487E-01  0.89769812170E-02  0.23790059534E-01  0.00000000000E+00 0.  1.
     999901    1    3    3    0    0 -0.54177301065E-01 -0.12551837134E+00  0.37370271882E-01  0.89133976615E+00  0.88000000000E+00 0.  1.
        -11    1    4    4    0    0  0.23995708824E-01  0.85348067718E-01 -0.25670818358E-01  0.92300264037E-01  0.51100000000E-03 0. -1.
         11    1    4    4    0    0  0.12150814338E-01  0.27510454139E-01 -0.20676434741E-01  0.36499910282E-01  0.51100000000E-03 0.  1.
</event>
<event>
 8    1  0.1163913E+005  0.1043930E+01  0.7957747E-01            NaN
         13   -1    0    0    0    0  0.00000000000E+00  0.00000000000E+00  0.74505805969E-08  0.10566000000E+00  0.10566000000E+00 0.  1.
     999900   -1    0    0    0    0 -0.00000000000E+00 -0.00000000000E+00 -0.74505805969E-08  0.93827000000E+00  0.93827000000E+00 0.  1.
     999902    2    1    2    0    0 -0.16227796874E-01 -0.47650159230E-03  0.16868333827E-01  0.10205182694E+01  0.10202496895E+01 0.  0.
     999903    2    3    3    0    0  0.89072650992E-01 -0.57104405651E-01 -0.69463347574E-01  0.12824697483E+00  0.20670742549E-01 0.  0.
         14    1    1    2    0    0  0.16227796874E-01  0.47650159230E-03 -0.16868333827E-01  0.23411730633E-01  0.00000000000E+00 0. -1.
     999901    1    3    3    0    0 -0.10530044787E+00  0.56627904059E-01  0.86331681401E-01  0.89227129454E+00  0.88000000000E+00 0. -1.
        -11    1    4    4    0    0  0.34953661933E-01 -0.26166235310E-01 -0.17322965289E-01  0.46976340856E-01  0.51100000000E-03 0. -1.
         11    1    4    4    0    0  0.54118989059E-01 -0.30938170341E-01 -0.52140382285E-01  0.81270633975E-01  0.51100000000E-03 0.  1.
</event>
<event>
 8    1  0.1163913E+005  0.1043930E+01  0.7957747E-01            NaN
         13   -1    0    0    0    0  0.00000000000E+00  0.00000000000E+00  0.74505805969E-08  0.10566000000E+00  0.10566000000E+00 0.  1.
     999900   -1    0    0    0    0 -0.00000000000E+00 -0.00000000000E+00 -0.74505805969E-08  0.93827000000E+00  0.93827000000E+00 0.  1.
     999902    2    1    2    0    0  0.97884937574E-02 -0.98396189485E-02 -0.19332047951E-01  0.10201316642E+01  0.10198540344E+01 0.  0.
     999903    2    3    3    0    0 -0.11180349156E+00 -0.51830962878E-01  0.33454199615E-01  0.12921400702E+00  0.19763772404E-01 0.  0.
         14    1    1    2    0    0 -0.97884937574E-02  0.98396189485E-02  0.19332047951E-01  0.23798335847E-01  0.00000000000E+00 0.  1.
     999901    1    3    3    0    0  0.12159198532E+00  0.41991343930E-01 -0.52786247567E-01  0.89091765713E+00  0.88000000000E+00 0.  1.
        -11    1    4    4    0    0 -0.72789435734E-01 -0.43626118863E-01  0.24828087412E-01  0.88420785153E-01  0.51100000000E-03 0. -1.
         11    1    4    4    0    0 -0.39014055829E-01 -0.82048440156E-02  0.86261122034E-02  0.40793221867E-01  0.51100000000E-03 0.  1.
</event>
<event>
 8    1  0.1163913E+005  0.1043930E+01  0.7957747E-01            NaN
         13   -1    0    0    0    0  0.00000000000E+00  0.00000000000E+00  0.74505805969E-08  0.10566000000E+00  0.10566000000E+00 0.  1.
     999900   -1    0    0    0    0 -0.00000000000E+00 -0.00000000000E+00 -0.74505805969E-08  0.93827000000E+00  0.93827000000E+00 0. -1.
     999902    2    1    2    0    0  0.89606139089E-02 -0.18112661440E-01  0.11008245685E-01  0.10209182078E+01  0.10206588286E+01 0.  0.
     999903    2    3    3    0    0 -0.75126087443E-01  0.82323527070E-02 -0.10272850540E+00  0.12923402513E+00  0.20894659249E-01 0.  0.
         14    1    1    2    0    0 -0.89606139089E-02  0.18112661440E-01 -0.11008245685E-01  0.23011792175E-01  0.00000000000E+00 0. -1.
     999901    1    3    3    0    0  0.84086701352E-01 -0.26345014147E-01  0.11373675108E+00  0.89168418269E+00  0.88000000000E+00 0.  1.
        -11    1    4    4    0    0 -0.30579639796E-01  0.38129036918E-03 -0.25907740267E-01  0.40084060163E-01  0.51100000000E-03 0.  1.
         11    1    4    4    0    0 -0.44546447646E-01  0.78510623378E-02 -0.76820765132E-01  0.89149964970E-01  0.51100000000E-03 0. -1.
</event>
<event>
 8    1  0.1163913E+005  0.1043930E+01  0.7957747E-01            NaN
         13   -1    0    0    0    0  0.00000000000E+00  0.00000000000E+00  0.74505805969E-08  0.10566000000E+00  0.10566000000E+00 0.  1.
     999900   -1    0    0    0    0 -0.00000000000E+00 -0.00000000000E+00 -0.74505805969E-08  0.93827000000E+00  0.93827000000E+00 0.  1.
     999902    2    1    2    0    0  0.11877101380E-02 -0.10345487620E-01 -0.21605336251E-01  0.10199460403E+01  0.10196640107E+01 0.  0.
     999903    2    3    3    0    0  0.29553572688E-01 -0.93498346374E-01  0.81905839583E-01  0.12953401003E+00  0.21333981449E-01 0.  0.
         14    1    1    2    0    0 -0.11877101380E-02  0.10345487620E-01  0.21605336251E-01  0.23983959723E-01  0.00000000000E+00 0.  1.
     999901    1    3    3    0    0 -0.28365862550E-01  0.83152858755E-01 -0.10351117583E+00  0.89041203024E+00  0.88000000000E+00 0.  1.
        -11    1    4    4    0    0  0.23151531249E-01 -0.46422456472E-01  0.33778801856E-01  0.61905625268E-01  0.51100000000E-03 0. -1.
         11    1    4    4    0    0  0.64020414396E-02 -0.47075889902E-01  0.48127037728E-01  0.67628384767E-01  0.51100000000E-03 0.  1.
</event>
<event>
 8    1  0.1163913E+005  0.1043930E+01  0.7957747E-01            NaN
         13   -1    0    0    0    0  0.00000000000E+00  0.00000000000E+00  0.74505805969E-08  0.10566000000E+00  0.10566000000E+00 0. -1.
     999900   -1    0    0    0    0 -0.00000000000E+00 -0.00000000000E+00 -0.74505805969E-08  0.93827000000E+00  0.93827000000E+00 0.  1.
     999902    2    1    2    0    0  0.13789840113E-01  0.12544881518E-02  0.19721647625E-01  0.10198327633E+01  0.10195480314E+01 0.  0.
     999903    2    3    3    0    0  0.17260014117E-01 -0.12469229279E+00  0.28814992863E-01  0.13081233460E+00  0.20868327717E-01 0.  0.
         14    1    1    2    0    0 -0.13789840113E-01 -0.12544881518E-02 -0.19721647625E-01  0.24097236686E-01  0.00000000000E+00 0.  1.
     999901    1    3    3    0    0 -0.34701740040E-02  0.12594678094E+00 -0.90933452376E-02  0.88902042871E+00  0.88000000000E+00 0.  1.
        -11    1    4    4    0    0  0.18547648793E-02 -0.75974945454E-01  0.22894725026E-01  0.79372930174E-01  0.51100000000E-03 0. -1.
         11    1    4    4    0    0  0.15405249238E-01 -0.48717347338E-01  0.59202678366E-02  0.51439404429E-01  0.51100000000E-03 0.  1.
</event>
<event>
 8    1  0.1163913E+005  0.1043930E+01  0.7957747E-01            NaN
         13   -1    0    0    0    0  0.00000000000E+00  0.00000000000E+00  0.74505805969E-08  0.10566000000E+00  0.10566000000E+00 0. -1.
     999900   -1    0    0    0    0 -0.00000000000E+00 -0.00000000000E+00 -0.74505805969E-08  0.93827000000E+00  0.93827000000E+00 0. -1.
     999902    2    1    2    0    0  0.15680151079E-01  0.35018688656E-02  0.10201692444E-01  0.10248983224E+01  0.10247216044E+01 0.  0.
     999903    2    3    3    0    0  0.51335379675E-01 -0.11812533854E+00 -0.33687724404E-01  0.13473499255E+00  0.20730138172E-01 0.  0.
         14    1    1    2    0    0 -0.15680151079E-01 -0.35018688656E-02 -0.10201692444E-01  0.19031677596E-01  0.00000000000E+00 0. -1.
     999901    1    3    3    0    0 -0.35655228596E-01  0.12162720741E+00  0.43889416849E-01  0.89016332986E+00  0.88000000000E+00 0. -1.
        -11    1    4    4    0    0  0.29757466017E-01 -0.43048953068E-01 -0.13076088820E-01  0.53944085532E-01  0.51100000000E-03 0. -1.
         11    1    4    4    0    0  0.21577913658E-01 -0.75076385477E-01 -0.20611635584E-01  0.80790907016E-01  0.51100000000E-03 0.  1.
</event>
<event>
 8    1  0.1163913E+005  0.1043930E+01  0.7957747E-01            NaN
         13   -1    0    0    0    0  0.00000000000E+00  0.00000000000E+00  0.74505805969E-08  0.10566000000E+00  0.10566000000E+00 0. -1.
     999900   -1    0    0    0    0 -0.00000000000E+00 -0.00000000000E+00 -0.74505805969E-08  0.93827000000E+00  0.93827000000E+00 0.  1.
     999902    2    1    2    0    0  0.26153851421E-02  0.23021397992E-01 -0.63465038657E-02  0.10199070294E+01  0.10196240707E+01 0.  0.
     999903    2    3    3    0    0  0.12660062275E+00  0.21210005913E-01 -0.22899291077E-01  0.13105967746E+00  0.13216637052E-01 0.  0.
         14    1    1    2    0    0 -0.26153851421E-02 -0.23021397992E-01  0.63465038657E-02  0.24022970596E-01  0.00000000000E+00 0.  1.
     999901    1    3    3    0    0 -0.12398523760E+00  0.18113920788E-02  0.16552787212E-01  0.88884735194E+00  0.88000000000E+00 0. -1.
        -11    1    4    4    0    0  0.46684638159E-01  0.33616427015E-02 -0.37115357019E-02  0.46955220157E-01  0.51100000000E-03 0. -1.
         11    1    4    4    0    0  0.79915984586E-01  0.17848363212E-01 -0.19187755375E-01  0.84104457308E-01  0.51100000000E-03 0.  1.
</event>
<event>
 8    1  0.1163913E+005  0.1043930E+01  0.7957747E-01            NaN
         13   -1    0    0    0    0  0.00000000000E+00  0.00000000000E+00  0.74505805969E-08  0.10566000000E+00  0.10566000000E+00 0.  1.
     999900   -1    0    0    0    0 -0.00000000000E+00 -0.00000000000E+00 -0.74505805969E-08  0.93827000000E+00  0.93827000000E+00 0. -1.
     999902    2    1    2    0    0  0.69165501894E-02  0.10539875954E-01  0.18326191059E-01  0.10216864182E+01  0.10214442521E+01 0.  0.
     999903    2    3    3    0    0  0.95854924006E-01  0.88227272793E-01  0.18461314718E-01  0.13379825847E+00  0.24267997616E-01 0.  0.
         14    1    1    2    0    0 -0.69165501894E-02 -0.10539875954E-01 -0.18326191059E-01  0.22243581779E-01  0.00000000000E+00 0. -1.
     999901    1    3    3    0    0 -0.88938373816E-01 -0.77687396839E-01 -0.13512365894E-03  0.88788815975E+00  0.88000000000E+00 0. -1.
        -11    1    4    4    0    0  0.74488398921E-01  0.64142887631E-01  0.36861348457E-02  0.98370119033E-01  0.51100000000E-03 0.  1.
         11    1    4    4    0    0  0.21366525084E-01  0.24084385162E-01  0.14775179872E-01  0.35428139438E-01  0.51100000000E-03 0. -1.
</event>
<event>
 8    1  0.1163913E+005  0.1043930E+01  0.7957747E-01            NaN
         13   -1    0    0    0    0  0.00000000000E+00  0.00000000000E+00  0.74505805969E-08  0.10566000000E+00  0.10566000000E+00 0.  1.
     999900   -1    0    0    0    0 -0.00000000000E+00 -0.00000000000E+00 -0.74505805969E-08  0.93827000000E+00  0.93827000000E+00 0. -1.
     999902    2    1    2    0    0  0.17691052456E-01 -0.17253965539E-01 -0.29460538674E-02  0.10190432184E+01  0.10187392842E+01 0.  0.
     999903    2    3    3    0    0  0.74135847824E-01  0.68936076181E-01 -0.78884892183E-01  0.12978428798E+00  0.19308771556E-01 0.  0.
         14    1    1    2    0    0 -0.17691052456E-01  0.17253965539E-01  0.29460538674E-02  0.24886781576E-01  0.00000000000E+00 0.  1.
     999901    1    3    3    0    0 -0.56444795367E-01 -0.86190041720E-01  0.75938838316E-01  0.88925893045E+00  0.88000000000E+00 0.  1.
        -11    1    4    4    0    0  0.43220506277E-01  0.35417349022E-01 -0.32066377185E-01  0.64427590684E-01  0.51100000000E-03 0. -1.
         11    1    4    4    0    0  0.30915341547E-01  0.33518727159E-01 -0.46818514998E-01  0.65356697292E-01  0.51100000000E-03 0.  1.
</event>
<event>
 8    1  0.1163913E+005  0.1043930E+01  0.7957747E-01            NaN
         13   -1    0    0    0    0  0.00000000000E+00  0.00000000000E+00  0.74505805969E-08  0.10566000000E+00  0.10566000000E+00 0. -1.
     999900   -1    0    0    0    0 -0.00000000000E+00 -0.00000000000E+00 -0.74505805969E-08  0.93827000000E+00  0.93827000000E+00 0. -1.
     999902    2    1    2    0    0  0.14396711484E-01  0.11117701523E-01 -0.12341073552E-01  0.10219488561E+01  0.10217124321E+01 0.  0.
     999903    2    3    3    0    0  0.28743841461E-01  0.12217674173E+00 -0.44246347164E-01  0.13427893042E+00  0.17880919365E-01 0.  0.
         14    1    1    2    0    0 -0.14396711484E-01 -0.11117701523E-01  0.12341073552E-01  0.21981143854E-01  0.00000000000E+00 0. -1.
     999901    1    3    3    0    0 -0.14347129976E-01 -0.11105904020E+00  0.31905273612E-01  0.88766992572E+00  0.88000000000E+00 0.  1.
        -11    1    4    4    0    0  0.18506003540E-01  0.81016065209E-01 -0.38086333055E-01  0.91416108403E-01  0.51100000000E-03 0.  1.
         11    1    4    4    0    0  0.10237837921E-01  0.41160676517E-01 -0.61600141083E-02  0.42862822019E-01  0.51100000000E-03 0. -1.
</event>
<event>
 8    1  0.1163913E+005  0.1043930E+01  0.7957747E-01            NaN
         13   -1    0    0    0    0  0.00000000000E+00  0.00000000000E+00  0.74505805969E-08  0.10566000000E+00  0.10566000000E+00 0. -1.
     999900   -1    0    0    0    0 -0.00000000000E+00 -0.00000000000E+00 -0.74505805969E-08  0.93827000000E+00  0.93827000000E+00 0.  1.
     999902    2    1    2    0    0 -0.17525521967E-01  0.73857031572E-03 -0.11051056468E-01  0.10231980137E+01  0.10229879569E+01 0.  0.
     999903    2    3    3    0    0  0.49821307427E-01  0.78061625240E-01  0.91035841789E-01  0.13138178542E+00  0.19946654880E-01 0.  0.
         14    1    1    2    0    0  0.17525521967E-01 -0.73857031572E-03  0.11051056468E-01  0.20731986287E-01  0.00000000000E+00 0.  1.
     999901    1    3    3    0    0 -0.67346829394E-01 -0.77323054924E-01 -0.10208689826E+00  0.89181622829E+00  0.88000000000E+00 0.  1.
        -11    1    4    4    0    0  0.29318962355E-01  0.62286546828E-01  0.65248191349E-01  0.94851478980E-01  0.51100000000E-03 0. -1.
         11    1    4    4    0    0  0.20502345072E-01  0.15775078412E-01  0.25787650440E-01  0.36530306439E-01  0.51100000000E-03 0.  1.
</event>
<event>
 8    1  0.1163913E+005  0.1043930E+01  0.7957747E-01            NaN
         13   -1    0    0    0    0  0.00000000000E+00  0.00000000000E+00  0.74505805969E-08  0.10566000000E+00  0.10566000000E+00 0.  1.
     999900   -1    0    0    0    0 -0.00000000000E+00 -0.00000000000E+00 -0.74505805969E-08  0.93827000000E+00  0.93827000000E+00 0.  1.
     999902    2    1    2    0    0  0.14995217255E-01  0.11302524238E-02  0.12395028194E-01  0.10244422927E+01  0.10242569211E+01 0.  0.
     999903    2    3    3    0    0 -0.10309806086E+00  0.43495075673E-02 -0.79669847437E-01  0.13178764099E+00  0.19302055753E-01 0.  0.
         14    1    1    2    0    0 -0.14995217255E-01 -0.11302524238E-02 -0.12395028194E-01  0.19487707279E-01  0.00000000000E+00 0. -1.
     999901    1    3    3    0    0  0.11809327812E+00 -0.32192551434E-02  0.92064875630E-01  0.89265465174E+00  0.88000000000E+00 0. -1.
        -11    1    4    4    0    0 -0.86250380592E-01  0.16033371943E-02 -0.56967723205E-01  0.10337930862E+00  0.51100000000E-03 0. -1.
         11    1    4    4    0    0 -0.16847680271E-01  0.27461703729E-02 -0.22702124232E-01  0.28408332367E-01  0.51100000000E-03 0.  1.
</event>
<event>
 8    1  0.1163913E+005  0.1043930E+01  0.7957747E-01            NaN
         13   -1    0    0    0    0  0.00000000000E+00  0.00000000000E+00  0.74505805969E-08  0.10566000000E+00  0.10566000000E+00 0.  1.
     999900   -1    0    0    0    0 -0.00000000000E+00 -0.00000000000E+00 -0.74505805969E-08  0.93827000000E+00  0.93827000000E+00 0.  1.
     999902    2    1    2    0    0 -0.66071155687E-02 -0.21779614253E-01 -0.39851411678E-02  0.10208240068E+01  0.10205624752E+01 0.  0.
     999903    2    3    3    0    0 -0.46336299408E-01  0.10578767312E+00  0.53708077785E-01  0.12887090914E+00  0.19623179525E-01 0.  0.
         14    1    1    2    0    0  0.66071155687E-02  0.21779614253E-01  0.39851411678E-02  0.23105993233E-01  0.00000000000E+00 0.  1.
     999901    1    3    3    0    0  0.39729183839E-01 -0.12756728738E+00 -0.57693218953E-01  0.89195309763E+00  0.88000000000E+00 0.  1.
        -11    1    4    4    0    0 -0.87026650537E-02  0.97402667640E-02  0.11504431788E-01  0.17413277906E-01  0.51100000000E-03 0.  1.
         11    1    4    4    0    0 -0.37633634354E-01  0.96047406361E-01  0.42203645997E-01  0.11145763123E+00  0.51100000000E-03 0. -1.
</event>
<event>
 8    1  0.1163913E+005  0.1043930E+01  0.7957747E-01            NaN
         13   -1    0    0    0    0  0.00000000000E+00  0.00000000000E+00  0.74505805969E-08  0.10566000000E+00  0.10566000000E+00 0.  1.
     999900   -1    0    0    0    0 -0.00000000000E+00 -0.00000000000E+00 -0.74505805969E-08  0.93827000000E+00  0.93827000000E+00 0.  1.
     999902    2    1    2    0    0 -0.64999943606E-02 -0.10474508315E-01  0.20029532978E-01  0.10204109132E+01  0.10201398357E+01 0.  0.
     999903    2    3    3    0    0  0.20157134672E-01  0.76269244505E-01  0.10368065048E+00  0.13179817945E+00  0.19944299597E-01 0.  0.
         14    1    1    2    0    0  0.64999943606E-02  0.10474508315E-01 -0.20029532978E-01  0.23519086769E-01  0.00000000000E+00 0. -1.
     999901    1    3    3    0    0 -0.26657129033E-01 -0.86743752820E-01 -0.83651117501E-01  0.88861273378E+00  0.88000000000E+00 0.  1.
        -11    1    4    4    0    0  0.73746283737E-02  0.22234681856E-01  0.46627381374E-01  0.52183714276E-01  0.51100000000E-03 0. -1.
         11    1    4    4    0    0  0.12782506299E-01  0.54034562649E-01  0.57053269106E-01  0.79614465172E-01  0.51100000000E-03 0.  1.
</event>
<event>
 8    1  0.1163913E+005  0.1043930E+01  0.7957747E-01            NaN
         13   -1    0    0    0    0  0.00000000000E+00  0.00000000000E+00  0.74505805969E-08  0.10566000000E+00  0.10566000000E+00 0.  1.
     999900   -1    0    0    0    0 -0.00000000000E+00 -0.00000000000E+00 -0.74505805969E-08  0.93827000000E+00  0.93827000000E+00 0.  1.
     999902    2    1    2    0    0  0.12973838930E-01 -0.18564927193E-01  0.30395839530E-02  0.10210779522E+01  0.10208222021E+01 0.  0.
     999903    2    3    3    0    0 -0.64108606893E-01  0.33957898152E-01  0.10615399556E+00  0.13016104669E+00  0.20252777016E-01 0.  0.
         14    1    1    2    0    0 -0.12973838930E-01  0.18564927193E-01 -0.30395839530E-02  0.22852047805E-01  0.00000000000E+00 0. -1.
     999901    1    3    3    0    0  0.77082445824E-01 -0.52522825345E-01 -0.10311441161E+00  0.89091690551E+00  0.88000000000E+00 0.  1.
        -11    1    4    4    0    0 -0.17998027002E-01  0.20013147699E-01  0.42960811909E-01  0.50698595027E-01  0.51100000000E-03 0. -1.
         11    1    4    4    0    0 -0.46110579891E-01  0.13944750453E-01  0.63193183651E-01  0.79462451662E-01  0.51100000000E-03 0.  1.
</event>
<event>
 8    1  0.1163913E+005  0.1043930E+01  0.7957747E-01            NaN
         13   -1    0    0    0    0  0.00000000000E+00  0.00000000000E+00  0.74505805969E-08  0.10566000000E+00  0.10566000000E+00 0.  1.
     999900   -1    0    0    0    0 -0.00000000000E+00 -0.00000000000E+00 -0.74505805969E-08  0.93827000000E+00  0.93827000000E+00 0.  1.
     999902    2    1    2    0    0 -0.10085918150E-01 -0.12338415606E-02 -0.21336548807E-01  0.10202974710E+01  0.10200237414E+01 0.  0.
     999903    2    3    3    0    0 -0.63727703193E-01 -0.69026938006E-01  0.86822011860E-01  0.12947110229E+00  0.19969132645E-01 0.  0.
         14    1    1    2    0    0  0.10085918150E-01  0.12338415606E-02  0.21336548807E-01  0.23632528957E-01  0.00000000000E+00 0.  1.
     999901    1    3    3    0    0  0.53641785044E-01  0.67793096446E-01 -0.10815856067E+00  0.89082636876E+00  0.88000000000E+00 0.  1.
        -11    1    4    4    0    0 -0.17875111861E-01 -0.24884774124E-01  0.17205591796E-01  0.35143493243E-01  0.51100000000E-03 0. -1.
         11    1    4    4    0    0 -0.45852591332E-01 -0.44142163883E-01  0.69616420064E-01  0.94327609042E-01  0.51100000000E-03 0.  1.
</event>
<event>
 8    1  0.1163913E+005  0.1043930E+01  0.7957747E-01            NaN
         13   -1    0    0    0    0  0.00000000000E+00  0.00000000000E+00  0.74505805969E-08  0.10566000000E+00  0.10566000000E+00 0.  1.
     999900   -1    0    0    0    0 -0.00000000000E+00 -0.00000000000E+00 -0.74505805969E-08  0.93827000000E+00  0.93827000000E+00 0.  1.
     999902    2    1    2    0    0 -0.90360718540E-02 -0.26996883871E-02 -0.22462785153E-01  0.10195678238E+01  0.10192767199E+01 0.  0.
     999903    2    3    3    0    0  0.10249308007E+00  0.74990191665E-01  0.64561902029E-02  0.12866335288E+00  0.19601420161E-01 0.  0.
         14    1    1    2    0    0  0.90360718540E-02  0.26996883871E-02  0.22462785153E-01  0.24362176191E-01  0.00000000000E+00 0.  1.
     999901    1    3    3    0    0 -0.11152915193E+00 -0.77689880052E-01 -0.28918975356E-01  0.89090447093E+00  0.88000000000E+00 0. -1.
        -11    1    4    4    0    0  0.59005093365E-01  0.43175034092E-01 -0.59835164431E-02  0.73360399413E-01  0.51100000000E-03 0. -1.
         11    1    4    4    0    0  0.43487986709E-01  0.31815157572E-01  0.12439706646E-01  0.55302953464E-01  0.51100000000E-03 0.  1.
</event>
<event>
 8    1  0.1163913E+005  0.1043930E+01  0.7957747E-01            NaN
         13   -1    0    0    0    0  0.00000000000E+00  0.00000000000E+00  0.74505805969E-08  0.10566000000E+00  0.10566000000E+00 0. -1.
     999900   -1    0    0    0    0 -0.00000000000E+00 -0.00000000000E+00 -0.74505805969E-08  0.93827000000E+00  0.93827000000E+00 0.  1.
     999902    2    1    2    0    0 -0.95814841841E-02 -0.15784749536E-03 -0.21858521511E-01  0.10200631879E+01  0.10197839392E+01 0.  0.
     999903    2    3    3    0    0  0.53597439117E-01 -0.12687176452E-01 -0.11839935714E+00  0.13244350961E+00  0.22118443440E-01 0.  0.
         14    1    1    2    0    0  0.95814841841E-02  0.15784749536E-03  0.21858521511E-01  0.23866812055E-01  0.00000000000E+00 0. -1.
     999901    1    3    3    0    0 -0.63178923301E-01  0.12529328956E-01  0.96540835624E-01  0.88761967834E+00  0.88000000000E+00 0. -1.
        -11    1    4    4    0    0  0.17579402173E-01  0.56471746025E-02 -0.45153184528E-01  0.48785214520E-01  0.51100000000E-03 0.  1.
         11    1    4    4    0    0  0.36018036944E-01 -0.18334351054E-01 -0.73246172608E-01  0.83658295085E-01  0.51100000000E-03 0. -1.
</event>
<event>
 8    1  0.1163913E+005  0.1043930E+01  0.7957747E-01            NaN
         13   -1    0    0    0    0  0.00000000000E+00  0.00000000000E+00  0.74505805969E-08  0.10566000000E+00  0.10566000000E+00 0.  1.
     999900   -1    0    0    0    0 -0.00000000000E+00 -0.00000000000E+00 -0.74505805969E-08  0.93827000000E+00  0.93827000000E+00 0.  1.
     999902    2    1    2    0    0 -0.96801396057E-02  0.15473713866E-01 -0.14865668205E-01  0.10203900549E+01  0.10201184907E+01 0.  0.
     999903    2    3    3    0    0 -0.11940709347E+00  0.15944859091E-01 -0.52069218471E-01  0.13279536670E+00  0.20275931645E-01 0.  0.
         14    1    1    2    0    0  0.96801396057E-02 -0.15473713866E-01  0.14865668205E-01  0.23539945088E-01  0.00000000000E+00 0.  1.
     999901    1    3    3    0    0  0.10972695386E+00 -0.47114522504E-03  0.37203550266E-01  0.88759468821E+00  0.88000000000E+00 0.  1.
        -11    1    4    4    0    0 -0.38653895333E-01 -0.16308942933E-02 -0.95454015378E-02  0.39851715799E-01  0.51100000000E-03 0.  1.
         11    1    4    4    0    0 -0.80753198134E-01  0.17575753384E-01 -0.42523816933E-01  0.92943650905E-01  0.51100000000E-03 0. -1.
</event>
<event>
 8    1  0.1163913E+005  0.1043930E+01  0.7957747E-01            NaN
         13   -1    0    0    0    0  0.00000000000E+00  0.00000000000E+00  0.74505805969E-08  0.10566000000E+00  0.10566000000E+00 0.  1.
     999900   -1    0    0    0    0 -0.00000000000E+00 -0.00000000000E+00 -0.74505805969E-08  0.93827000000E+00  0.93827000000E+00 0. -1.
     999902    2    1    2    0    0 -0.11173683625E-01 -0.13089978474E-01 -0.16659261500E-01  0.10199773439E+01  0.10196960588E+01 0.  0.
     999903    2    3    3    0    0 -0.11652522313E+00  0.51119370379E-01 -0.25824750366E-01  0.13132342161E+00  0.19687703701E-01 0.  0.
         14    1    1    2    0    0  0.11173683625E-01  0.13089978474E-01  0.16659261500E-01  0.23952656135E-01  0.00000000000E+00 0. -1.
     999901    1    3    3    0    0  0.10535153951E+00 -0.64209348853E-01  0.91654888656E-02  0.88865392226E+00  0.88000000000E+00 0. -1.
        -11    1    4    4    0    0 -0.35428802558E-01  0.72292662464E-02 -0.27477368035E-02  0.36266699873E-01  0.51100000000E-03 0.  1.
         11    1    4    4    0    0 -0.81096420576E-01  0.43890104133E-01 -0.23077013563E-01  0.95056721735E-01  0.51100000000E-03 0. -1.
</event>
<event>
 8    1  0.1163913E+005  0.1043930E+01  0.7957747E-01            NaN
         13   -1    0    0    0    0  0.00000000000E+00  0.00000000000E+00  0.74505805969E-08  0.10566000000E+00  0.10566000000E+00 0. -1.
     999900   -1    0    0    0    0 -0.00000000000E+00 -0.00000000000E+00 -0.74505805969E-08  0.93827000000E+00  0.93827000000E+00 0.  1.
     999902    2    1    2    0    0  0.65232436263E-02  0.19645751861E-01  0.90851901895E-02  0.10213236081E+01  0.10210733879E+01 0.  0.
     999903    2    3    3    0    0  0.22864396152E-01  0.57374340556E-01  0.11721209743E+00  0.13375281784E+00  0.18345160968E-01 0.  0.
         14    1    1    2    0    0 -0.65232436263E-02 -0.19645751861E-01 -0.90851901895E-02  0.22606391892E-01  0.00000000000E+00 0.  1.
     999901    1    3    3    0    0 -0.16341152526E-01 -0.37728588695E-01 -0.10812690724E+00  0.88757079027E+00  0.88000000000E+00 0.  1.
        -11    1    4    4    0    0  0.11199178226E-01  0.42535286956E-01  0.67421805156E-01  0.80502379846E-01  0.51100000000E-03 0. -1.
         11    1    4    4    0    0  0.11665217926E-01  0.14839053600E-01  0.49790292271E-01  0.53250437993E-01  0.51100000000E-03 0.  1.
</event>
<event>
 8    1  0.1163913E+005  0.1043930E+01  0.7957747E-01            NaN
         13   -1    0    0    0    0  0.00000000000E+00  0.00000000000E+00  0.74505805969E-08  0.10566000000E+00  0.10566000000E+00 0.  1.
     999900   -1    0    0    0    0 -0.00000000000E+00 -0.00000000000E+00 -0.74505805969E-08  0.93827000000E+00  0.93827000000E+00 0.  1.
     999902    2    1    2    0    0  0.25587968974E-01  0.11753775583E-01 -0.15473160320E-01  0.10118003550E+01  0.10112900891E+01 0.  0.
     999903    2    3    3    0    0 -0.14123231698E-01 -0.11475082070E+00 -0.35823755176E-01  0.12163489902E+00  0.12020428384E-01 0.  0.
         14    1    1    2    0    0 -0.25587968974E-01 -0.11753775583E-01  0.15473160320E-01  0.32129644987E-01  0.00000000000E+00 0.  1.
     999901    1    3    3    0    0  0.39711200672E-01  0.12650459628E+00  0.20350594856E-01  0.89016545600E+00  0.88000000000E+00 0.  1.
        -11    1    4    4    0    0 -0.19847091454E-02 -0.87893708637E-02  0.29340560044E-03  0.90299124259E-02  0.51100000000E-03 0.  1.
         11    1    4    4    0    0 -0.12138522553E-01 -0.10596144984E+00 -0.36117160777E-01  0.11260498659E+00  0.51100000000E-03 0. -1.
</event>
<event>
 8    1  0.1163913E+005  0.1043930E+01  0.7957747E-01            NaN
         13   -1    0    0    0    0  0.00000000000E+00  0.00000000000E+00  0.74505805969E-08  0.10566000000E+00  0.10566000000E+00 0. -1.
     999900   -1    0    0    0    0 -0.00000000000E+00 -0.00000000000E+00 -0.74505805969E-08  0.93827000000E+00  0.93827000000E+00 0.  1.
     999902    2    1    2    0    0  0.19720119064E-01 -0.10772034657E-01  0.52288015329E-02  0.10208592351E+01  0.10205985096E+01 0.  0.
     999903    2    3    3    0    0 -0.96041787675E-03 -0.12491299160E+00 -0.38263584684E-01  0.13218188630E+00  0.20094060784E-01 0.  0.
         14    1    1    2    0    0 -0.19720119064E-01  0.10772034657E-01 -0.52288015329E-02  0.23070764877E-01  0.00000000000E+00 0.  1.
     999901    1    3    3    0    0  0.20680536941E-01  0.11414095694E+00  0.43492386216E-01  0.88867734883E+00  0.88000000000E+00 0. -1.
        -11    1    4    4    0    0 -0.94424450287E-03 -0.59554142709E-01 -0.78068020730E-02  0.60073245219E-01  0.51100000000E-03 0. -1.
         11    1    4    4    0    0 -0.16173373882E-04 -0.65358848891E-01 -0.30456782611E-01  0.72108641077E-01  0.51100000000E-03 0.  1.
</event>
<event>
 8    1  0.1163913E+005  0.1043930E+01  0.7957747E-01            NaN
         13   -1    0    0    0    0  0.00000000000E+00  0.00000000000E+00  0.74505805969E-08  0.10566000000E+00  0.10566000000E+00 0.  1.
     999900   -1    0    0    0    0 -0.00000000000E+00 -0.00000000000E+00 -0.74505805969E-08  0.93827000000E+00  0.93827000000E+00 0.  1.
     999902    2    1    2    0    0  0.21716549900E-01  0.83921843557E-02  0.58948941810E-02  0.10199136082E+01  0.10196308063E+01 0.  0.
     999903    2    3    3    0    0 -0.20759021950E-01  0.33869357018E-01 -0.12163389190E+00  0.12934252636E+00  0.18884256135E-01 0.  0.
         14    1    1    2    0    0 -0.21716549900E-01 -0.83921843557E-02 -0.58948941810E-02  0.24016391803E-01  0.00000000000E+00 0.  1.
     999901    1    3    3    0    0  0.42475571850E-01 -0.25477172663E-01  0.12752878608E+00  0.89057108184E+00  0.88000000000E+00 0. -1.
        -11    1    4    4    0    0 -0.10938855057E-01  0.38632812852E-02 -0.44630149447E-01  0.46116101883E-01  0.51100000000E-03 0. -1.
         11    1    4    4    0    0 -0.98201668930E-02  0.30006075733E-01 -0.77003742449E-01  0.83226424475E-01  0.51100000000E-03 0.  1.
</event>
<event>
 8    1  0.1163913E+005  0.1043930E+01  0.7957747E-01            NaN
         13   -1    0    0    0    0  0.00000000000E+00  0.00000000000E+00  0.74505805969E-08  0.10566000000E+00  0.10566000000E+00 0. -1.
     999900   -1    0    0    0    0 -0.00000000000E+00 -0.00000000000E+00 -0.74505805969E-08  0.93827000000E+00  0.93827000000E+00 0.  1.
     999902    2    1    2    0    0 -0.39601247355E-02  0.19070491326E-01 -0.12706212695E-01  0.10206745906E+01  0.10204096264E+01 0.  0.
     999903    2    3    3    0    0 -0.97114616422E-01 -0.83482058715E-01 -0.64867494156E-02  0.12981350904E+00  0.20222916722E-01 0.  0.
         14    1    1    2    0    0  0.39601247355E-02 -0.19070491326E-01  0.12706212695E-01  0.23255409443E-01  0.00000000000E+00 0. -1.
     999901    1    3    3    0    0  0.93154491686E-01  0.10255255004E+00 -0.62194632796E-02  0.89086108152E+00  0.88000000000E+00 0. -1.
        -11    1    4    4    0    0 -0.79561611282E-01 -0.57807188095E-01 -0.18466562929E-02  0.98363571742E-01  0.51100000000E-03 0. -1.
         11    1    4    4    0    0 -0.17553005139E-01 -0.25674870619E-01 -0.46400931227E-02  0.31449937296E-01  0.51100000000E-03 0.  1.
</event>
<event>
 8    1  0.1163913E+005  0.1043930E+01  0.7957747E-01            NaN
         13   -1    0    0    0    0  0.00000000000E+00  0.00000000000E+00  0.74505805969E-08  0.10566000000E+00  0.10566000000E+00 0. -1.
     999900   -1    0    0    0    0 -0.00000000000E+00 -0.00000000000E+00 -0.74505805969E-08  0.93827000000E+00  0.93827000000E+00 0. -1.
     999902    2    1    2    0    0  0.11887459781E-01 -0.27381308966E-02  0.20396430376E-01  0.10201639858E+01  0.10198871185E+01 0.  0.
     999903    2    3    3    0    0  0.11308191975E+00  0.63358167143E-01 -0.71184357178E-02  0.13147612875E+00  0.20821200386E-01 0.  0.
         14    1    1    2    0    0 -0.11887459781E-01  0.27381308966E-02 -0.20396430376E-01  0.23766014242E-01  0.00000000000E+00 0.  1.
     999901    1    3    3    0    0 -0.10119445997E+00 -0.66096298040E-01  0.27514866094E-01  0.88868785701E+00  0.88000000000E+00 0.  1.
        -11    1    4    4    0    0  0.83767017811E-01  0.46173233628E-01 -0.14375653927E-01  0.96725391307E-01  0.51100000000E-03 0.  1.
         11    1    4    4    0    0  0.29314901938E-01  0.17184933515E-01  0.72572182089E-02  0.34750737440E-01  0.51100000000E-03 0. -1.
</event>
<event>
 8    1  0.1163913E+005  0.1043930E+01  0.7957747E-01            NaN
         13   -1    0    0    0    0  0.00000000000E+00  0.00000000000E+00  0.74505805969E-08  0.10566000000E+00  0.10566000000E+00 0. -1.
     999900   -1    0    0    0    0 -0.00000000000E+00 -0.00000000000E+00 -0.74505805969E-08  0.93827000000E+00  0.93827000000E+00 0. -1.
     999902    2    1    2    0    0  0.15635420524E-01  0.40726702867E-02  0.15555906221E-01  0.10215014638E+01  0.10212552087E+01 0.  0.
     999903    2    3    3    0    0 -0.60313227295E-02  0.46770100179E-01 -0.11939600213E+00  0.12992727403E+00  0.20046747557E-01 0.  0.
         14    1    1    2    0    0 -0.15635420524E-01 -0.40726702867E-02 -0.15555906221E-01  0.22428536211E-01  0.00000000000E+00 0.  1.
     999901    1    3    3    0    0  0.21666743253E-01 -0.42697429892E-01  0.13495190835E+00  0.89157418976E+00  0.88000000000E+00 0.  1.
        -11    1    4    4    0    0 -0.24245684119E-02  0.46665957554E-01 -0.11548357023E+00  0.12458052111E+00  0.51100000000E-03 0.  1.
         11    1    4    4    0    0 -0.36067543176E-02  0.10414262513E-03 -0.39124318983E-02  0.53467529168E-02  0.51100000000E-03 0. -1.
</event>
<event>
 8    1  0.1163913E+005  0.1043930E+01  0.7957747E-01            NaN
         13   -1    0    0    0    0  0.00000000000E+00  0.00000000000E+00  0.74505805969E-08  0.10566000000E+00  0.10566000000E+00 0. -1.
     999900   -1    0    0    0    0 -0.00000000000E+00 -0.00000000000E+00 -0.74505805969E-08  0.93827000000E+00  0.93827000000E+00 0.  1.
     999902    2    1    2    0    0  0.15714630250E-01  0.23225405662E-01  0.39388301934E-02  0.10156124532E+01  0.10152175982E+01 0.  0.
     999903    2    3    3    0    0  0.84670770903E-01  0.70107074054E-01 -0.64406085937E-01  0.12903258219E+00  0.20423566851E-01 0.  0.
         14    1    1    2    0    0 -0.15714630250E-01 -0.23225405662E-01 -0.39388301934E-02  0.28317546775E-01  0.00000000000E+00 0.  1.
     999901    1    3    3    0    0 -0.68956140653E-01 -0.46881668392E-01  0.68344916130E-01  0.88657987104E+00  0.88000000000E+00 0. -1.
        -11    1    4    4    0    0  0.60420942684E-01  0.37943032630E-01 -0.37660600869E-01  0.80678039260E-01  0.51100000000E-03 0. -1.
         11    1    4    4    0    0  0.24249828219E-01  0.32164041424E-01 -0.26745485068E-01  0.48354542929E-01  0.51100000000E-03 0.  1.
</event>
<event>
 8    1  0.1163913E+005  0.1043930E+01  0.7957747E-01            NaN
         13   -1    0    0    0    0  0.00000000000E+00  0.00000000000E+00  0.74505805969E-08  0.10566000000E+00  0.10566000000E+00 0. -1.
     999900   -1    0    0    0    0 -0.00000000000E+00 -0.00000000000E+00 -0.74505805969E-08  0.93827000000E+00  0.93827000000E+00 0. -1.
     999902    2    1    2    0    0  0.18844103711E-01  0.42661861750E-02 -0.99057700477E-02  0.10222176793E+01  0.10219870640E+01 0.  0.
     999903    2    3    3    0    0 -0.81658291629E-01  0.36289965251E-02 -0.10138818113E+00  0.13178510522E+00  0.20161956181E-01 0.  0.
         14    1    1    2    0    0 -0.18844103711E-01 -0.42661861750E-02  0.99057700477E-02  0.21712320682E-01  0.00000000000E+00 0.  1.
     999901    1    3    3    0    0  0.10050239534E+00  0.63718964983E-03  0.91482411083E-01  0.89043257410E+00  0.88000000000E+00 0.  1.
        -11    1    4    4    0    0 -0.15525745540E-01  0.11688371997E-02 -0.33666044162E-01  0.37095533497E-01  0.51100000000E-03 0.  1.
         11    1    4    4    0    0 -0.66132546089E-01  0.24601593254E-02 -0.67722136969E-01  0.94689571721E-01  0.51100000000E-03 0. -1.
</event>
<event>
 8    1  0.1163913E+005  0.1043930E+01  0.7957747E-01            NaN
         13   -1    0    0    0    0  0.00000000000E+00  0.00000000000E+00  0.74505805969E-08  0.10566000000E+00  0.10566000000E+00 0.  1.
     999900   -1    0    0    0    0 -0.00000000000E+00 -0.00000000000E+00 -0.74505805969E-08  0.93827000000E+00  0.93827000000E+00 0. -1.
     999902    2    1    2    0    0  0.21191559622E-01  0.90591463521E-02  0.67317483414E-02  0.10199202776E+01  0.10196376346E+01 0.  0.
     999903    2    3    3    0    0  0.10944625148E+00 -0.56078479093E-01 -0.41075036567E-01  0.13182271005E+00  0.23807361779E-01 0.  0.
         14    1    1    2    0    0 -0.21191559622E-01 -0.90591463521E-02 -0.67317483414E-02  0.24009722355E-01  0.00000000000E+00 0. -1.
     999901    1    3    3    0    0 -0.88254691861E-01  0.65137625445E-01  0.47806784908E-01  0.88809756759E+00  0.88000000000E+00 0. -1.
        -11    1    4    4    0    0  0.49774674462E-01 -0.18678527358E-01 -0.71260567558E-02  0.53641843816E-01  0.51100000000E-03 0.  1.
         11    1    4    4    0    0  0.59671577022E-01 -0.37399951734E-01 -0.33948979811E-01  0.78180866235E-01  0.51100000000E-03 0. -1.
</event>
<event>
 8    1  0.1163913E+005  0.1043930E+01  0.7957747E-01            NaN
         13   -1    0    0    0    0  0.00000000000E+00  0.00000000000E+00  0.74505805969E-08  0.10566000000E+00  0.10566000000E+00 0.  1.
     999900   -1    0    0    0    0 -0.00000000000E+00 -0.00000000000E+00 -0.74505805969E-08  0.93827000000E+00  0.93827000000E+00 0.  1.
     999902    2    1    2    0    0 -0.16660570592E-01  0.12527461921E-01 -0.69617119591E-02  0.10219532544E+01  0.10217169260E+01 0.  0.
     999903    2    3    3    0    0  0.10291939142E+00 -0.37271719235E-01 -0.67943708788E-01  0.13038265723E+00  0.20042643479E-01 0.  0.
         14    1    1    2    0    0  0.16660570592E-01 -0.12527461921E-01  0.69617119591E-02  0.21976745620E-01  0.00000000000E+00 0.  1.
     999901    1    3    3    0    0 -0.11957996202E+00  0.49799181156E-01  0.60981996829E-01  0.89157059715E+00  0.88000000000E+00 0.  1.
        -11    1    4    4    0    0  0.59287850508E-01 -0.31511550067E-01 -0.38023749245E-01  0.77162773623E-01  0.51100000000E-03 0. -1.
         11    1    4    4    0    0  0.43631540915E-01 -0.57601691685E-02 -0.29919959543E-01  0.53219883610E-01  0.51100000000E-03 0.  1.
</event>
<event>
 8    1  0.1163913E+005  0.1043930E+01  0.7957747E-01            NaN
         13   -1    0    0    0    0  0.00000000000E+00  0.00000000000E+00  0.74505805969E-08  0.10566000000E+00  0.10566000000E+00 0. -1.
     999900   -1    0    0    0    0 -0.00000000000E+00 -0.00000000000E+00 -0.74505805969E-08  0.93827000000E+00  0.93827000000E+00 0.  1.
     999902    2    1    2    0    0 -0.21743031016E-02  0.21863688762E-01  0.81735850870E-02  0.10204873898E+01  0.10202180927E+01 0.  0.
     999903    2    3    3    0    0  0.10840508902E+00  0.31356469656E-02 -0.68907790672E-01  0.13002678988E+00  0.19929547496E-01 0.  0.
         14    1    1    2    0    0  0.21743031016E-02 -0.21863688762E-01 -0.81735850870E-02  0.23442610210E-01  0.00000000000E+00 0.  1.
     999901    1    3    3    0    0 -0.11057939212E+00  0.18728041796E-01  0.77081375759E-01  0.89046059991E+00  0.88000000000E+00 0. -1.
        -11    1    4    4    0    0  0.83565501247E-01  0.10274057093E-01 -0.49164209495E-01  0.97499383917E-01  0.51100000000E-03 0. -1.
         11    1    4    4    0    0  0.24839587770E-01 -0.71384101277E-02 -0.19743581178E-01  0.32527405959E-01  0.51100000000E-03 0.  1.
</event>
<event>
 8    1  0.1163913E+005  0.1043930E+01  0.7957747E-01            NaN
         13   -1    0    0    0    0  0.00000000000E+00  0.00000000000E+00  0.74505805969E-08  0.10566000000E+00  0.10566000000E+00 0.  1.
     999900   -1    0    0    0    0 -0.00000000000E+00 -0.00000000000E+00 -0.74505805969E-08  0.93827000000E+00  0.93827000000E+00 0. -1.
     999902    2    1    2    0    0 -0.14882024891E-01  0.34883533415E-02  0.18097522638E-01  0.10202411081E+01  0.10199660558E+01 0.  0.
     999903    2    3    3    0    0 -0.12482188470E+00 -0.28797873904E-01  0.28319248947E-01  0.13275383668E+00  0.20292384026E-01 0.  0.
         14    1    1    2    0    0  0.14882024891E-01 -0.34883533415E-02 -0.18097522638E-01  0.23688891902E-01  0.00000000000E+00 0. -1.
     999901    1    3    3    0    0  0.10993985981E+00  0.32286227246E-01 -0.10221726309E-01  0.88748727142E+00  0.88000000000E+00 0. -1.
        -11    1    4    4    0    0 -0.42314173361E-01 -0.11454384935E-01  0.87012521826E-04  0.43840174426E-01  0.51100000000E-03 0.  1.
         11    1    4    4    0    0 -0.82507711341E-01 -0.17343488969E-01  0.28232236426E-01  0.88913662252E-01  0.51100000000E-03 0. -1.
</event>
<event>
 8    1  0.1412410E+005  0.1043930E+01  0.7957747E-01            NaN
         13   -1    0    0    0    0  0.00000000000E+00  0.00000000000E+00  0.74505805969E-08  0.10566000000E+00  0.10566000000E+00 0.  1.
     999900   -1    0    0    0    0 -0.00000000000E+00 -0.00000000000E+00 -0.74505805969E-08  0.93827000000E+00  0.93827000000E+00 0.  1.
     999902    2    1    2    0    0 -0.17922802453E-01 -0.12425415225E-01 -0.70132405033E-02  0.10210214135E+01  0.10207643820E+01 0.  0.
     999903    2    3    3    0    0  0.40552275283E-02 -0.13066841103E+00  0.87716251055E-02  0.13270074968E+00  0.21020681404E-01 0.  0.
         14    1    1    2    0    0  0.17922802453E-01  0.12425415225E-01  0.70132405033E-02  0.22908586461E-01  0.00000000000E+00 0. -1.
     999901    1    3    3    0    0 -0.21978029981E-01  0.11824299581E+00 -0.15784865609E-01  0.88832066386E+00  0.88000000000E+00 0.  1.
        -11    1    4    4    0    0  0.12043981086E-01 -0.66797598325E-01  0.12078573175E-02  0.67887382205E-01  0.51100000000E-03 0. -1.
         11    1    4    4    0    0 -0.79887535575E-02 -0.63870812707E-01  0.75637677880E-02  0.64813367474E-01  0.51100000000E-03 0.  1.
</event>
<event>
 8    1  0.1163913E+005  0.1043930E+01  0.7957747E-01            NaN
         13   -1    0    0    0    0  0.00000000000E+00  0.00000000000E+00  0.74505805969E-08  0.10566000000E+00  0.10566000000E+00 0. -1.
     999900   -1    0    0    0    0 -0.00000000000E+00 -0.00000000000E+00 -0.74505805969E-08  0.93827000000E+00  0.93827000000E+00 0.  1.
     999902    2    1    2    0    0 -0.11350154887E-01 -0.11363838234E-01  0.16889856221E-01  0.10206227033E+01  0.10203565418E+01 0.  0.
     999903    2    3    3    0    0 -0.66839461199E-01  0.10882217489E+00  0.18836114776E-01  0.13071960253E+00  0.20567837653E-01 0.  0.
         14    1    1    2    0    0  0.11350154887E-01  0.11363838234E-01 -0.16889856221E-01  0.23307296680E-01  0.00000000000E+00 0.  1.
     999901    1    3    3    0    0  0.55489306312E-01 -0.12018601312E+00 -0.19462585543E-02  0.88990310079E+00  0.88000000000E+00 0. -1.
        -11    1    4    4    0    0 -0.59271480960E-01  0.82686326377E-01  0.10607023328E-01  0.10228835266E+00  0.51100000000E-03 0. -1.
         11    1    4    4    0    0 -0.75679802394E-02  0.26135848513E-01  0.82290914479E-02  0.28431249875E-01  0.51100000000E-03 0.  1.
</event>
<event>
 8    1  0.1163913E+005  0.1043930E+01  0.7957747E-01            NaN
         13   -1    0    0    0    0  0.00000000000E+00  0.00000000000E+00  0.74505805969E-08  0.10566000000E+00  0.10566000000E+00 0. -1.
     999900   -1    0    0    0    0 -0.00000000000E+00 -0.00000000000E+00 -0.74505805969E-08  0.93827000000E+00  0.93827000000E+00 0. -1.
     999902    2    1    2    0    0  0.12401850779E-01 -0.60970896085E-03  0.19061943458E-01  0.10211805970E+01  0.10209271651E+01 0.  0.
     999903    2    3    3    0    0 -0.30600927899E-01 -0.49698780938E-01 -0.11320916395E+00  0.12890562717E+00  0.19848433142E-01 0.  0.
         14    1    1    2    0    0 -0.12401850779E-01  0.60970896085E-03 -0.19061943458E-01  0.22749402984E-01  0.00000000000E+00 0.  1.
     999901    1    3    3    0    0  0.43002778678E-01  0.49089071977E-01  0.13227110741E+00  0.89227496985E+00  0.88000000000E+00 0.  1.
        -11    1    4    4    0    0 -0.29114718941E-01 -0.38995903380E-01 -0.76789468035E-01  0.90913315094E-01  0.51100000000E-03 0. -1.
         11    1    4    4    0    0 -0.14862089579E-02 -0.10702877558E-01 -0.36419695916E-01  0.37992312073E-01  0.51100000000E-03 0.  1.
</event>
<event>
 8    1  0.1163913E+005  0.1043930E+01  0.7957747E-01            NaN
         13   -1    0    0    0    0  0.00000000000E+00  0.00000000000E+00  0.74505805969E-08  0.10566000000E+00  0.10566000000E+00 0. -1.
     999900   -1    0    0    0    0 -0.00000000000E+00 -0.00000000000E+00 -0.74505805969E-08  0.93827000000E+00  0.93827000000E+00 0. -1.
     999902    2    1    2    0    0  0.93147401960E-02  0.18921020183E-01 -0.11545701437E-01  0.10198868594E+01  0.10196034196E+01 0.  0.
     999903    2    3    3    0    0 -0.78193270098E-02  0.11212388991E+00  0.65557139019E-01  0.13144710385E+00  0.18646556530E-01 0.  0.
         14    1    1    2    0    0 -0.93147401960E-02 -0.18921020183E-01  0.11545701437E-01  0.24043140630E-01  0.00000000000E+00 0.  1.
     999901    1    3    3    0    0  0.17134067206E-01 -0.93202869727E-01 -0.77102840456E-01  0.88843975552E+00  0.88000000000E+00 0. -1.
        -11    1    4    4    0    0 -0.56084471957E-02  0.41894759497E-01  0.34762533586E-01  0.54729520512E-01  0.51100000000E-03 0.  1.
         11    1    4    4    0    0 -0.22108798141E-02  0.70229130413E-01  0.30794605434E-01  0.76717583336E-01  0.51100000000E-03 0. -1.
</event>
<event>
 8    1  0.1163913E+005  0.1043930E+01  0.7957747E-01            NaN
         13   -1    0    0    0    0  0.00000000000E+00  0.00000000000E+00  0.74505805969E-08  0.10566000000E+00  0.10566000000E+00 0.  1.
     999900   -1    0    0    0    0 -0.00000000000E+00 -0.00000000000E+00 -0.74505805969E-08  0.93827000000E+00  0.93827000000E+00 0.  1.
     999902    2    1    2    0    0 -0.13997672732E-02 -0.46716522028E-02  0.23292542517E-01  0.10201323905E+01  0.10198547778E+01 0.  0.
     999903    2    3    3    0    0  0.45509224672E-01 -0.11897901588E+00  0.25640827160E-01  0.13149740277E+00  0.20174716038E-01 0.  0.
         14    1    1    2    0    0  0.13997672732E-02  0.46716522028E-02 -0.23292542517E-01  0.23797609536E-01  0.00000000000E+00 0. -1.
     999901    1    3    3    0    0 -0.46908991945E-01  0.11430736368E+00 -0.23482846427E-02  0.88863498770E+00  0.88000000000E+00 0.  1.
        -11    1    4    4    0    0  0.28933073481E-01 -0.80492288606E-01  0.76047471363E-02  0.85873305317E-01  0.51100000000E-03 0. -1.
         11    1    4    4    0    0  0.16576151191E-01 -0.38486727275E-01  0.18036080024E-01  0.45624097451E-01  0.51100000000E-03 0.  1.
</event>
<event>
 8    1  0.1163913E+005  0.1043930E+01  0.7957747E-01            NaN
         13   -1    0    0    0    0  0.00000000000E+00  0.00000000000E+00  0.74505805969E-08  0.10566000000E+00  0.10566000000E+00 0.  1.
     999900   -1    0    0    0    0 -0.00000000000E+00 -0.00000000000E+00 -0.74505805969E-08  0.93827000000E+00  0.93827000000E+00 0. -1.
     999902    2    1    2    0    0  0.95593574372E-02 -0.11231730293E-01 -0.19162608497E-01  0.10197486302E+01  0.10194618827E+01 0.  0.
     999903    2    3    3    0    0 -0.46775335464E-01  0.11037054746E+00 -0.43662139451E-01  0.12926508821E+00  0.20820443175E-01 0.  0.
         14    1    1    2    0    0 -0.95593574372E-02  0.11231730293E-01  0.19162608497E-01  0.24181369779E-01  0.00000000000E+00 0. -1.
     999901    1    3    3    0    0  0.56334692901E-01 -0.12160227775E+00  0.24499530954E-01  0.89048354201E+00  0.88000000000E+00 0. -1.
        -11    1    4    4    0    0 -0.21612438206E-01  0.33328408805E-01 -0.71183306505E-02  0.40358543964E-01  0.51100000000E-03 0.  1.
         11    1    4    4    0    0 -0.25162897258E-01  0.77042138654E-01 -0.36543808800E-01  0.88906544244E-01  0.51100000000E-03 0. -1.
</event>
<event>
 8    1  0.1163913E+005  0.1043930E+01  0.7957747E-01            NaN
         13   -1    0    0    0    0  0.00000000000E+00  0.00000000000E+00  0.74505805969E-08  0.10566000000E+00  0.10566000000E+00 0.  1.
     999900   -1    0    0    0    0 -0.00000000000E+00 -0.00000000000E+00 -0.74505805969E-08  0.93827000000E+00  0.93827000000E+00 0.  1.
     999902    2    1    2    0    0  0.10967248887E-01 -0.61540608673E-02 -0.19015730408E-01  0.10211319515E+01  0.10208774223E+01 0.  0.
     999903    2    3    3    0    0  0.21137640063E-01  0.12100355713E+00  0.37546617462E-01  0.13013711655E+00  0.20910761736E-01 0.  0.
         14    1    1    2    0    0 -0.10967248887E-01  0.61540608673E-02  0.19015730408E-01  0.22798048518E-01  0.00000000000E+00 0.  1.
     999901    1    3    3    0    0 -0.10170391176E-01 -0.12715761800E+00 -0.56562347869E-01  0.89099483493E+00  0.88000000000E+00 0.  1.
        -11    1    4    4    0    0  0.51247801914E-02  0.77737356330E-01  0.17590132273E-01  0.79868853852E-01  0.51100000000E-03 0. -1.
         11    1    4    4    0    0  0.16012859871E-01  0.43266200801E-01  0.19956485189E-01  0.50268262702E-01  0.51100000000E-03 0.  1.
</event>
<event>
 8    1  0.1163913E+005  0.1043930E+01  0.7957747E-01            NaN
         13   -1    0    0    0    0  0.00000000000E+00  0.00000000000E+00  0.74505805969E-08  0.10566000000E+00  0.10566000000E+00 0. -1.
     999900   -1    0    0    0    0 -0.00000000000E+00 -0.00000000000E+00 -0.74505805969E-08  0.93827000000E+00  0.93827000000E+00 0.  1.
     999902    2    1    2    0    0 -0.11205827838E-02  0.60585381208E-02 -0.23235065176E-01  0.10198919085E+01  0.10196085892E+01 0.  0.
     999903    2    3    3    0    0 -0.32953854614E-01  0.80077568509E-01  0.92938698097E-01  0.12860715190E+00  0.20095382620E-01 0.  0.
         14    1    1    2    0    0  0.11205827838E-02 -0.60585381208E-02  0.23235065176E-01  0.24038091515E-01  0.00000000000E+00 0. -1.
     999901    1    3    3    0    0  0.31833271830E-01 -0.74019030388E-01 -0.11617376327E+00  0.89128475659E+00  0.88000000000E+00 0.  1.
        -11    1    4    4    0    0 -0.28598307091E-01  0.62111722024E-01  0.60674746705E-01  0.91418899523E-01  0.51100000000E-03 0.  1.
         11    1    4    4    0    0 -0.43555475232E-02  0.17965846485E-01  0.32263951392E-01  0.37188252373E-01  0.51100000000E-03 0. -1.
</event>
<event>
 8    1  0.1163913E+005  0.1043930E+01  0.7957747E-01            NaN
         13   -1    0    0    0    0  0.00000000000E+00  0.00000000000E+00  0.74505805969E-08  0.10566000000E+00  0.10566000000E+00 0.  1.
     999900   -1    0    0    0    0 -0.00000000000E+00 -0.00000000000E+00 -0.74505805969E-08  0.93827000000E+00  0.93827000000E+00 0.  1.
     999902    2    1    2    0    0  0.22232777479E-01 -0.65491223145E-02 -0.28730469747E-02  0.10205753046E+01  0.10203080469E+01 0.  0.
     999903    2    3    3    0    0  0.19190155460E-01  0.94588066973E-01 -0.86062692539E-01  0.13087956689E+00  0.20186864569E-01 0.  0.
         14    1    1    2    0    0 -0.22232777479E-01  0.65491223145E-02  0.28730469747E-02  0.23354695383E-01  0.00000000000E+00 0. -1.
     999901    1    3    3    0    0  0.30426220187E-02 -0.10113718929E+00  0.83189645564E-01  0.88969573773E+00  0.88000000000E+00 0. -1.
        -11    1    4    4    0    0  0.20044741040E-01  0.81995540854E-01 -0.81810665566E-01  0.11755129299E+00  0.51100000000E-03 0. -1.
         11    1    4    4    0    0 -0.85458557993E-03  0.12592526119E-01 -0.42520269733E-02  0.13328273893E-01  0.51100000000E-03 0.  1.
</event>
<event>
 8    1  0.1163913E+005  0.1043930E+01  0.7957747E-01            NaN
         13   -1    0    0    0    0  0.00000000000E+00  0.00000000000E+00  0.74505805969E-08  0.10566000000E+00  0.10566000000E+00 0. -1.
     999900   -1    0    0    0    0 -0.00000000000E+00 -0.00000000000E+00 -0.74505805969E-08  0.93827000000E+00  0.93827000000E+00 0.  1.
     999902    2    1    2    0    0 -0.16471986631E-02 -0.13180873793E-01  0.22747242265E-01  0.10175882892E+01  0.10172472859E+01 0.  0.
     999903    2    3    3    0    0  0.91424001168E-01 -0.69433322078E-01 -0.51471820101E-01  0.12779333788E+00  0.22415502154E-01 0.  0.
         14    1    1    2    0    0  0.16471986631E-02  0.13180873793E-01 -0.22747242265E-01  0.26341710803E-01  0.00000000000E+00 0. -1.
     999901    1    3    3    0    0 -0.93071199831E-01  0.56252448285E-01  0.74219062366E-01  0.88979495132E+00  0.88000000000E+00 0.  1.
        -11    1    4    4    0    0  0.53744591708E-01 -0.26910168982E-01 -0.28218695938E-01  0.66401763937E-01  0.51100000000E-03 0. -1.
         11    1    4    4    0    0  0.37679409460E-01 -0.42523153095E-01 -0.23253124163E-01  0.61391573940E-01  0.51100000000E-03 0.  1.
</event>
<event>
 8    1  0.1163913E+005  0.1043930E+01  0.7957747E-01            NaN
         13   -1    0    0    0    0  0.00000000000E+00  0.00000000000E+00  0.74505805969E-08  0.10566000000E+00  0.10566000000E+00 0. -1.
     999900   -1    0    0    0    0 -0.00000000000E+00 -0.00000000000E+00 -0.74505805969E-08  0.93827000000E+00  0.93827000000E+00 0. -1.
     999902    2    1    2    0    0  0.52250691243E-02 -0.24252567234E-01 -0.14416976773E-01  0.10152361403E+01  0.10148305686E+01 0.  0.
     999903    2    3    3    0    0  0.12472975071E+00 -0.13132436517E-01 -0.65227388204E-02  0.12705409522E+00  0.19241241841E-01 0.  0.
         14    1    1    2    0    0 -0.52250691243E-02  0.24252567234E-01  0.14416976773E-01  0.28693859693E-01  0.00000000000E+00 0.  1.
     999901    1    3    3    0    0 -0.11950468159E+00 -0.11120130717E-01 -0.78942379524E-02  0.88818204509E+00  0.88000000000E+00 0.  1.
        -11    1    4    4    0    0  0.86752950047E-01 -0.86430896933E-03 -0.79013883723E-02  0.87117819251E-01  0.51100000000E-03 0.  1.
         11    1    4    4    0    0  0.37976800667E-01 -0.12268127548E-01  0.13786495519E-02  0.39936275965E-01  0.51100000000E-03 0. -1.
</event>
<event>
 8    1  0.1163913E+005  0.1043930E+01  0.7957747E-01            NaN
         13   -1    0    0    0    0  0.00000000000E+00  0.00000000000E+00  0.74505805969E-08  0.10566000000E+00  0.10566000000E+00 0. -1.
     999900   -1    0    0    0    0 -0.00000000000E+00 -0.00000000000E+00 -0.74505805969E-08  0.93827000000E+00  0.93827000000E+00 0. -1.
     999902    2    1    2    0    0  0.20332901640E-01 -0.87490892959E-02  0.34784521626E-02  0.10215230127E+01  0.10212772358E+01 0.  0.
     999903    2    3    3    0    0  0.11699031257E+00 -0.37417353982E-01  0.50917080291E-01  0.13449711228E+00  0.20251729150E-01 0.  0.
         14    1    1    2    0    0 -0.20332901640E-01  0.87490892959E-02 -0.34784521626E-02  0.22406987349E-01  0.00000000000E+00 0. -1.
     999901    1    3    3    0    0 -0.96657410926E-01  0.28668264686E-01 -0.47438628129E-01  0.88702590037E+00  0.88000000000E+00 0. -1.
        -11    1    4    4    0    0  0.65367046840E-01 -0.25297364616E-01  0.19076106773E-01  0.72642731499E-01  0.51100000000E-03 0. -1.
         11    1    4    4    0    0  0.51623265726E-01 -0.12119989366E-01  0.31840973518E-01  0.61854380783E-01  0.51100000000E-03 0.  1.
</event>
<event>
 6    1  0.1163913E+005  0.1043930E+01  0.7957747E-01            NaN
         13   -1    0    0    0    0  0.00000000000E+00  0.00000000000E+00  0.74505805969E-08  0.10566000000E+00  0.10566000000E+00 0. -1.
     999900   -1    0    0    0    0 -0.00000000000E+00 -0.00000000000E+00 -0.74505805969E-08  0.93827000000E+00  0.93827000000E+00 0.  1.
         14    1    1    2    0    0 -0.98660402271E-02  0.18660091560E-01  0.53542738591E-01  0.57553128696E-01  0.00000000000E+00 0. -1.
     999901    1    1    2    0    0  0.44602475086E-01 -0.82280819756E-01  0.39683197156E-02  0.88497189879E+00  0.88000000000E+00 0.  1.
        -11    1    1    2    0    0  0.67712067337E-02 -0.20010468409E-03 -0.84124145099E-02  0.10812914566E-01  0.51100000000E-03 0.  1.
         11    1    1    2    0    0 -0.41507641593E-01  0.63820832880E-01 -0.49098643797E-01  0.90592057951E-01  0.51100000000E-03 0. -1.
</event>
<event>
 8    1  0.1163913E+005  0.1043930E+01  0.7957747E-01            NaN
         13   -1    0    0    0    0  0.00000000000E+00  0.00000000000E+00  0.74505805969E-08  0.10566000000E+00  0.10566000000E+00 0.  1.
     999900   -1    0    0    0    0 -0.00000000000E+00 -0.00000000000E+00 -0.74505805969E-08  0.93827000000E+00  0.93827000000E+00 0.  1.
     999902    2    1    2    0    0  0.14593884531E-01  0.67747109952E-02  0.23234965442E-01  0.10156679797E+01  0.10152746934E+01 0.  0.
     999903    2    3    3    0    0  0.24834864522E-01 -0.13811085399E-01 -0.11895425504E+00  0.12395814619E+00  0.20198778125E-01 0.  0.
         14    1    1    2    0    0 -0.14593884531E-01 -0.67747109952E-02 -0.23234965442E-01  0.28262020343E-01  0.00000000000E+00 0. -1.
     999901    1    3    3    0    0 -0.10240979991E-01  0.20585796395E-01  0.14218922048E+00  0.89170983347E+00  0.88000000000E+00 0. -1.
        -11    1    4    4    0    0  0.14196691909E-01 -0.14366782593E-01 -0.10159494431E+00  0.10358447921E+00  0.51100000000E-03 0. -1.
         11    1    4    4    0    0  0.10638172613E-01  0.55569719388E-03 -0.17359310730E-01  0.20373666973E-01  0.51100000000E-03 0.  1.
</event>
<event>
 8    1  0.1163913E+005  0.1043930E+01  0.7957747E-01            NaN
         13   -1    0    0    0    0  0.00000000000E+00  0.00000000000E+00  0.74505805969E-08  0.10566000000E+00  0.10566000000E+00 0.  1.
     999900   -1    0    0    0    0 -0.00000000000E+00 -0.00000000000E+00 -0.74505805969E-08  0.93827000000E+00  0.93827000000E+00 0.  1.
     999902    2    1    2    0    0 -0.86729191883E-02  0.19551854594E-01 -0.65070534547E-02  0.10215729812E+01  0.10213283114E+01 0.  0.
     999903    2    3    3    0    0 -0.20921901722E-01  0.10062196472E+00  0.82564052169E-01  0.13328470468E+00  0.19633747345E-01 0.  0.
         14    1    1    2    0    0  0.86729191883E-02 -0.19551854594E-01  0.65070534547E-02  0.22357018808E-01  0.00000000000E+00 0.  1.
     999901    1    3    3    0    0  0.12248982534E-01 -0.81070110130E-01 -0.89071105624E-01  0.88828827651E+00  0.88000000000E+00 0.  1.
        -11    1    4    4    0    0 -0.11455250607E-01  0.72061151473E-01  0.68440854995E-01  0.10004221145E+00  0.51100000000E-03 0. -1.
         11    1    4    4    0    0 -0.94666511159E-02  0.28560813251E-01  0.14123197174E-01  0.33242493233E-01  0.51100000000E-03 0.  1.
</event>
<event>
 8    1  0.1163913E+005  0.1043930E+01  0.7957747E-01            NaN
         13   -1    0    0    0    0  0.00000000000E+00  0.00000000000E+00  0.74505805969E-08  0.10566000000E+00  0.10566000000E+00 0.  1.
     999900   -1    0    0    0    0 -0.00000000000E+00 -0.00000000000E+00 -0.74505805969E-08  0.93827000000E+00  0.93827000000E+00 0.  1.
     999902    2    1    2    0    0  0.17360557330E-01 -0.77531471489E-02 -0.13993648317E-01  0.10203223225E+01  0.10200491750E+01 0.  0.
     999903    2    3    3    0    0 -0.10266268747E+00 -0.74054652457E-01 -0.20103674579E-01  0.12968277631E+00  0.19741980394E-01 0.  0.
         14    1    1    2    0    0 -0.17360557330E-01  0.77531471489E-02  0.13993648317E-01  0.23607677453E-01  0.00000000000E+00 0.  1.
     999901    1    3    3    0    0  0.12002324481E+00  0.66301505308E-01  0.61100262619E-02  0.89063954624E+00  0.88000000000E+00 0. -1.
        -11    1    4    4    0    0 -0.52859149473E-01 -0.29214457469E-01 -0.27724983802E-02  0.60460913625E-01  0.51100000000E-03 0.  1.
         11    1    4    4    0    0 -0.49803538002E-01 -0.44840194988E-01 -0.17331176198E-01  0.69221862685E-01  0.51100000000E-03 0. -1.
</event>
<event>
 8    1  0.1163913E+005  0.1043930E+01  0.7957747E-01            NaN
         13   -1    0    0    0    0  0.00000000000E+00  0.00000000000E+00  0.74505805969E-08  0.10566000000E+00  0.10566000000E+00 0.  1.
     999900   -1    0    0    0    0 -0.00000000000E+00 -0.00000000000E+00 -0.74505805969E-08  0.93827000000E+00  0.93827000000E+00 0. -1.
     999902    2    1    2    0    0  0.72555664579E-02 -0.19177620171E-01 -0.10590852455E-01  0.10208520773E+01  0.10205911881E+01 0.  0.
     999903    2    3    3    0    0  0.11354033902E+00  0.59574789348E-01 -0.17324507567E-01  0.13093986984E+00  0.20113349812E-01 0.  0.
         14    1    1    2    0    0 -0.72555664579E-02  0.19177620171E-01  0.10590852455E-01  0.23077922691E-01  0.00000000000E+00 0.  1.
     999901    1    3    3    0    0 -0.10628477257E+00 -0.78752409519E-01  0.67336551124E-02  0.88991220747E+00  0.88000000000E+00 0.  1.
        -11    1    4    4    0    0  0.26587962808E-01  0.12985939689E-01 -0.12639547155E-01  0.32180330470E-01  0.51100000000E-03 0.  1.
         11    1    4    4    0    0  0.86952376216E-01  0.46588849659E-01 -0.46849604117E-02  0.98759539374E-01  0.51100000000E-03 0. -1.
</event>
<event>
 8    1  0.1163913E+005  0.1043930E+01  0.7957747E-01            NaN
         13   -1    0    0    0    0  0.00000000000E+00  0.00000000000E+00  0.74505805969E-08  0.10566000000E+00  0.10566000000E+00 0. -1.
     999900   -1    0    0    0    0 -0.00000000000E+00 -0.00000000000E+00 -0.74505805969E-08  0.93827000000E+00  0.93827000000E+00 0. -1.
     999902    2    1    2    0    0  0.18364684385E-01 -0.18936558177E-02 -0.13350942742E-01  0.10211463384E+01  0.10208921339E+01 0.  0.
     999903    2    3    3    0    0 -0.56880348022E-01 -0.62278674001E-01  0.96059061247E-01  0.12913809049E+00  0.18311087931E-01 0.  0.
         14    1    1    2    0    0 -0.18364684385E-01  0.18936558177E-02  0.13350942742E-01  0.22783661625E-01  0.00000000000E+00 0. -1.
     999901    1    3    3    0    0  0.75245032408E-01  0.60385018184E-01 -0.10941000399E+00  0.89200824789E+00  0.88000000000E+00 0. -1.
        -11    1    4    4    0    0 -0.55012876520E-02 -0.15109431389E-01  0.13050142513E-01  0.20715366840E-01  0.51100000000E-03 0.  1.
         11    1    4    4    0    0 -0.51379060370E-01 -0.47169242612E-01  0.83008918734E-01  0.10842272365E+00  0.51100000000E-03 0. -1.
</event>
<event>
 8    1  0.1163913E+005  0.1043930E+01  0.7957747E-01            NaN
         13   -1    0    0    0    0  0.00000000000E+00  0.00000000000E+00  0.74505805969E-08  0.10566000000E+00  0.10566000000E+00 0. -1.
     999900   -1    0    0    0    0 -0.00000000000E+00 -0.00000000000E+00 -0.74505805969E-08  0.93827000000E+00  0.93827000000E+00 0. -1.
     999902    2    1    2    0    0 -0.14919486334E-02  0.23906473008E-01 -0.12466905642E-02  0.10199445961E+01  0.10196625322E+01 0.  0.
     999903    2    3    3    0    0  0.30021625367E-01 -0.70888177269E-01  0.10085365715E+00  0.12842700679E+00  0.19889802581E-01 0.  0.
         14    1    1    2    0    0  0.14919486334E-02 -0.23906473008E-01  0.12466905642E-02  0.23985403890E-01  0.00000000000E+00 0.  1.
     999901    1    3    3    0    0 -0.31513574000E-01  0.94794650277E-01 -0.10210034771E+00  0.89151758932E+00  0.88000000000E+00 0. -1.
        -11    1    4    4    0    0  0.86084207827E-02 -0.55047476151E-02  0.18258026525E-01  0.20929018330E-01  0.51100000000E-03 0.  1.
         11    1    4    4    0    0  0.21413204584E-01 -0.65383429654E-01  0.82595630621E-01  0.10749798846E+00  0.51100000000E-03 0. -1.
</event>
<event>
 8    1  0.1163913E+005  0.1043930E+01  0.7957747E-01            NaN
         13   -1    0    0    0    0  0.00000000000E+00  0.00000000000E+00  0.74505805969E-08  0.10566000000E+00  0.10566000000E+00 0.  1.
     999900   -1    0    0    0    0 -0.00000000000E+00 -0.00000000000E+00 -0.74505805969E-08  0.93827000000E+00  0.93827000000E+00 0.  1.
     999902    2    1    2    0    0 -0.50261280463E-02  0.21824329114E-01 -0.53858988593E-02  0.10208958686E+01  0.10206359798E+01 0.  0.
     999903    2    3    3    0    0  0.67152690231E-03  0.10980238538E+00 -0.74083220314E-01  0.13382657948E+00  0.19084419325E-01 0.  0.
         14    1    1    2    0    0  0.50261280463E-02 -0.21824329114E-01  0.53858988593E-02  0.23034131434E-01  0.00000000000E+00 0. -1.
     999901    1    3    3    0    0 -0.56976549486E-02 -0.87978056266E-01  0.68697321455E-01  0.88706928908E+00  0.88000000000E+00 0. -1.
        -11    1    4    4    0    0  0.76627054399E-02  0.77367463095E-01 -0.57696556881E-01  0.96817329014E-01  0.51100000000E-03 0.  1.
         11    1    4    4    0    0 -0.69911785376E-02  0.32434922284E-01 -0.16386663433E-01  0.37009250471E-01  0.51100000000E-03 0. -1.
</event>
<event>
 8    1  0.1313487E+005  0.1043930E+01  0.7957747E-01            NaN
         13   -1    0    0    0    0  0.00000000000E+00  0.00000000000E+00  0.74505805969E-08  0.10566000000E+00  0.10566000000E+00 0.  1.
     999900   -1    0    0    0    0 -0.00000000000E+00 -0.00000000000E+00 -0.74505805969E-08  0.93827000000E+00  0.93827000000E+00 0.  1.
     999902    2    1    2    0    0 -0.85596982462E-02  0.21554505575E-01 -0.54736965562E-03  0.10207316216E+01  0.10204679704E+01 0.  0.
     999903    2    3    3    0    0 -0.63755285030E-01  0.18254669694E-01 -0.11225876929E+00  0.13194768923E+00  0.20253199156E-01 0.  0.
         14    1    1    2    0    0  0.85596982462E-02 -0.21554505575E-01  0.54736965562E-03  0.23198378353E-01  0.00000000000E+00 0.  1.
     999901    1    3    3    0    0  0.55195586784E-01  0.32998358811E-02  0.11171139963E+00  0.88878393242E+00  0.88000000000E+00 0. -1.
        -11    1    4    4    0    0 -0.38541390149E-01  0.21146750406E-02 -0.53166721108E-01  0.65702906781E-01  0.51100000000E-03 0. -1.
         11    1    4    4    0    0 -0.25213894881E-01  0.16139994654E-01 -0.59092048179E-01  0.66244782447E-01  0.51100000000E-03 0.  1.
</event>
<event>
 8    1  0.1163913E+005  0.1043930E+01  0.7957747E-01            NaN
         13   -1    0    0    0    0  0.00000000000E+00  0.00000000000E+00  0.74505805969E-08  0.10566000000E+00  0.10566000000E+00 0.  1.
     999900   -1    0    0    0    0 -0.00000000000E+00 -0.00000000000E+00 -0.74505805969E-08  0.93827000000E+00  0.93827000000E+00 0. -1.
     999902    2    1    2    0    0  0.21396339723E-01  0.72556816308E-02 -0.76991910064E-02  0.10200610702E+01  0.10197817713E+01 0.  0.
     999903    2    3    3    0    0 -0.12572703826E+00 -0.78955117988E-02 -0.41943151987E-02  0.12771184975E+00  0.20569322568E-01 0.  0.
         14    1    1    2    0    0 -0.21396339723E-01 -0.72556816308E-02  0.76991910064E-02  0.23868929838E-01  0.00000000000E+00 0. -1.
     999901    1    3    3    0    0  0.14712337798E+00  0.15151193430E-01 -0.35048758077E-02  0.89234922041E+00  0.88000000000E+00 0.  1.
        -11    1    4    4    0    0 -0.52951116389E-01 -0.13479326791E-01 -0.10407043658E-02  0.54652146931E-01  0.51100000000E-03 0.  1.
         11    1    4    4    0    0 -0.72775921871E-01  0.55838149918E-02 -0.31536108329E-02  0.73059702822E-01  0.51100000000E-03 0. -1.
</event>
<event>
 8    1  0.1163913E+005  0.1043930E+01  0.7957747E-01            NaN
         13   -1    0    0    0    0  0.00000000000E+00  0.00000000000E+00  0.74505805969E-08  0.10566000000E+00  0.10566000000E+00 0.  1.
     999900   -1    0    0    0    0 -0.00000000000E+00 -0.00000000000E+00 -0.74505805969E-08  0.93827000000E+00  0.93827000000E+00 0.  1.
     999902    2    1    2    0    0 -0.23417544947E-01 -0.34490814895E-03 -0.52652637207E-02  0.10199253468E+01  0.10196428246E+01 0.  0.
     999903    2    3    3    0    0 -0.57867392947E-01  0.75335154585E-01 -0.88895279801E-01  0.13205810250E+00  0.22648421174E-01 0.  0.
         14    1    1    2    0    0  0.23417544947E-01  0.34490814895E-03  0.52652637207E-02  0.24004653195E-01  0.00000000000E+00 0.  1.
     999901    1    3    3    0    0  0.34449848000E-01 -0.75680062734E-01  0.83630016081E-01  0.88786724431E+00  0.88000000000E+00 0. -1.
        -11    1    4    4    0    0 -0.25574667393E-01  0.16670911059E-01 -0.24410790818E-01  0.39091312554E-01  0.51100000000E-03 0.  1.
         11    1    4    4    0    0 -0.32292725554E-01  0.58664243526E-01 -0.64484488983E-01  0.92966789944E-01  0.51100000000E-03 0. -1.
</event>
<event>
 8    1  0.1163913E+005  0.1043930E+01  0.7957747E-01            NaN
         13   -1    0    0    0    0  0.00000000000E+00  0.00000000000E+00  0.74505805969E-08  0.10566000000E+00  0.10566000000E+00 0. -1.
     999900   -1    0    0    0    0 -0.00000000000E+00 -0.00000000000E+00 -0.74505805969E-08  0.93827000000E+00  0.93827000000E+00 0. -1.
     999902    2    1    2    0    0  0.21660281032E-01  0.62319322585E-02  0.76363606713E-02  0.10201325472E+01  0.10198549383E+01 0.  0.
     999903    2    3    3    0    0  0.22917338791E-01  0.12716305430E+00 -0.15033969910E-01  0.13157199197E+00  0.19736312298E-01 0.  0.
         14    1    1    2    0    0 -0.21660281032E-01 -0.62319322585E-02 -0.76363606713E-02  0.23797452771E-01  0.00000000000E+00 0.  1.
     999901    1    3    3    0    0 -0.12570577592E-02 -0.12093112204E+00  0.22670330581E-01  0.88856055526E+00  0.88000000000E+00 0.  1.
        -11    1    4    4    0    0  0.37271872759E-02  0.26351581117E-01  0.48050099981E-02  0.27048974000E-01  0.51100000000E-03 0.  1.
         11    1    4    4    0    0  0.19190151515E-01  0.10081147319E+00 -0.19838979908E-01  0.10452301797E+00  0.51100000000E-03 0. -1.
</event>
<event>
 8    1  0.1163913E+005  0.1043930E+01  0.7957747E-01            NaN
         13   -1    0    0    0    0  0.00000000000E+00  0.00000000000E+00  0.74505805969E-08  0.10566000000E+00  0.10566000000E+00 0.  1.
     999900   -1    0    0    0    0 -0.00000000000E+00 -0.00000000000E+00 -0.74505805969E-08  0.93827000000E+00  0.93827000000E+00 0.  1.
     999902    2    1    2    0    0  0.44656607711E-02 -0.15232694481E-01  0.16641407683E-01  0.10209318793E+01  0.10206728117E+01 0.  0.
     999903    2    3    3    0    0 -0.66628376180E-01  0.41126019627E-01  0.10361124698E+00  0.13200307465E+00  0.23639611119E-01 0.  0.
         14    1    1    2    0    0 -0.44656607711E-02  0.15232694481E-01 -0.16641407683E-01  0.22998120727E-01  0.00000000000E+00 0. -1.
     999901    1    3    3    0    0  0.71094036951E-01 -0.56358714109E-01 -0.86969839292E-01  0.88892880463E+00  0.88000000000E+00 0.  1.
        -11    1    4    4    0    0 -0.68825089439E-02 -0.14536427322E-02  0.34666237987E-02  0.78587917721E-02  0.51100000000E-03 0. -1.
         11    1    4    4    0    0 -0.59745867236E-01  0.42579662360E-01  0.10014462318E+00  0.12414428288E+00  0.51100000000E-03 0.  1.
</event>
<event>
 8    1  0.1163913E+005  0.1043930E+01  0.7957747E-01            NaN
         13   -1    0    0    0    0  0.00000000000E+00  0.00000000000E+00  0.74505805969E-08  0.10566000000E+00  0.10566000000E+00 0. -1.
     999900   -1    0    0    0    0 -0.00000000000E+00 -0.00000000000E+00 -0.74505805969E-08  0.93827000000E+00  0.93827000000E+00 0. -1.
     999902    2    1    2    0    0 -0.48607722005E-02  0.22835181987E-01 -0.77050286381E-03  0.10205704983E+01  0.10203031294E+01 0.  0.
     999903    2    3    3    0    0  0.86515379148E-01  0.92641536177E-01 -0.33174201759E-01  0.13249813203E+00  0.19694219308E-01 0.  0.
         14    1    1    2    0    0  0.48607722005E-02 -0.22835181987E-01  0.77050286381E-03  0.23359501652E-01  0.00000000000E+00 0.  1.
     999901    1    3    3    0    0 -0.91376151348E-01 -0.69806354190E-01  0.32403698895E-01  0.88807236632E+00  0.88000000000E+00 0.  1.
        -11    1    4    4    0    0  0.54199283887E-01  0.56595074799E-01 -0.30237742488E-01  0.83994922806E-01  0.51100000000E-03 0.  1.
         11    1    4    4    0    0  0.32316095260E-01  0.36046461378E-01 -0.29364592714E-02  0.48503209222E-01  0.51100000000E-03 0. -1.
</event>
<event>
 8    1  0.1163913E+005  0.1043930E+01  0.7957747E-01            NaN
         13   -1    0    0    0    0  0.00000000000E+00  0.00000000000E+00  0.74505805969E-08  0.10566000000E+00  0.10566000000E+00 0.  1.
     999900   -1    0    0    0    0 -0.00000000000E+00 -0.00000000000E+00 -0.74505805969E-08  0.93827000000E+00  0.93827000000E+00 0. -1.
     999902    2    1    2    0    0 -0.14832148573E-01  0.17524789915E-01  0.48793053726E-02  0.10204583466E+01  0.10201883741E+01 0.  0.
     999903    2    3    3    0    0  0.96841300917E-01  0.31704540864E-01  0.78455907036E-01  0.13024177689E+00  0.20595524366E-01 0.  0.
         14    1    1    2    0    0  0.14832148573E-01 -0.17524789915E-01 -0.48793053726E-02  0.23471653409E-01  0.00000000000E+00 0.  1.
     999901    1    3    3    0    0 -0.11167344949E+00 -0.14179750949E-01 -0.73576601663E-01  0.89021656970E+00  0.88000000000E+00 0.  1.
        -11    1    4    4    0    0  0.40445821793E-01  0.22741221920E-01  0.29184085554E-01  0.54817877062E-01  0.51100000000E-03 0.  1.
         11    1    4    4    0    0  0.56395479124E-01  0.89633189434E-02  0.49271821482E-01  0.75423899828E-01  0.51100000000E-03 0. -1.
</event>
<event>
 8    1  0.1163913E+005  0.1043930E+01  0.7957747E-01            NaN
         13   -1    0    0    0    0  0.00000000000E+00  0.00000000000E+00  0.74505805969E-08  0.10566000000E+00  0.10566000000E+00 0. -1.
     999900   -1    0    0    0    0 -0.00000000000E+00 -0.00000000000E+00 -0.74505805969E-08  0.93827000000E+00  0.93827000000E+00 0. -1.
     999902    2    1    2    0    0  0.99544619567E-02 -0.21152722672E-01  0.38636631702E-02  0.10202349186E+01  0.10199597209E+01 0.  0.
     999903    2    3    3    0    0  0.98108912572E-01 -0.88012153356E-01 -0.11487862398E-02  0.13329269090E+00  0.19852553316E-01 0.  0.
         14    1    1    2    0    0 -0.99544619567E-02  0.21152722672E-01 -0.38636631702E-02  0.23695081397E-01  0.00000000000E+00 0.  1.
     999901    1    3    3    0    0 -0.88154450615E-01  0.66859430683E-01  0.50124494100E-02  0.88694222770E+00  0.88000000000E+00 0.  1.
        -11    1    4    4    0    0  0.77873985181E-01 -0.79584228963E-01 -0.16854038533E-02  0.11136026569E+00  0.51100000000E-03 0. -1.
         11    1    4    4    0    0  0.20234927390E-01 -0.84279243926E-02  0.53661761347E-03  0.21932425208E-01  0.51100000000E-03 0.  1.
</event>
<event>
 8    1  0.1163913E+005  0.1043930E+01  0.7957747E-01            NaN
         13   -1    0    0    0    0  0.00000000000E+00  0.00000000000E+00  0.74505805969E-08  0.10566000000E+00  0.10566000000E+00 0.  1.
     999900   -1    0    0    0    0 -0.00000000000E+00 -0.00000000000E+00 -0.74505805969E-08  0.93827000000E+00  0.93827000000E+00 0.  1.
     999902    2    1    2    0    0  0.91531013961E-02 -0.19145918777E-01  0.11366969985E-01  0.10198560830E+01  0.10195719085E+01 0.  0.
     999903    2    3    3    0    0  0.71541694544E-01 -0.87999679096E-01  0.66538942842E-01  0.13324617815E+00  0.21562826764E-01 0.  0.
         14    1    1    2    0    0 -0.91531013961E-02  0.19145918777E-01 -0.11366969985E-01  0.24073916956E-01  0.00000000000E+00 0. -1.
     999901    1    3    3    0    0 -0.62388593147E-01  0.68853760320E-01 -0.55171972858E-01  0.88660990489E+00  0.88000000000E+00 0.  1.
        -11    1    4    4    0    0  0.43434454073E-01 -0.68835413367E-01  0.48195212871E-01  0.94593369740E-01  0.51100000000E-03 0. -1.
         11    1    4    4    0    0  0.28107240471E-01 -0.19164265729E-01  0.18343729971E-01  0.38652808411E-01  0.51100000000E-03 0.  1.
</event>
<event>
 8    1  0.1163913E+005  0.1043930E+01  0.7957747E-01            NaN
         13   -1    0    0    0    0  0.00000000000E+00  0.00000000000E+00  0.74505805969E-08  0.10566000000E+00  0.10566000000E+00 0. -1.
     999900   -1    0    0    0    0 -0.00000000000E+00 -0.00000000000E+00 -0.74505805969E-08  0.93827000000E+00  0.93827000000E+00 0. -1.
     999902    2    1    2    0    0  0.91177965772E-02  0.19861857283E-01 -0.10371943186E-01  0.10197389935E+01  0.10194520146E+01 0.  0.
     999903    2    3    3    0    0 -0.52524434024E-01  0.11774104776E+00 -0.19669471986E-01  0.13212052561E+00  0.21146504725E-01 0.  0.
         14    1    1    2    0    0 -0.91177965772E-02 -0.19861857283E-01  0.10371943186E-01  0.24191006482E-01  0.00000000000E+00 0. -1.
     999901    1    3    3    0    0  0.61642230601E-01 -0.97879190482E-01  0.92975287993E-02  0.88761846790E+00  0.88000000000E+00 0.  1.
        -11    1    4    4    0    0 -0.51743019735E-01  0.98441354449E-01 -0.14792917355E-01  0.11219238781E+00  0.51100000000E-03 0. -1.
         11    1    4    4    0    0 -0.78141428863E-03  0.19299693315E-01 -0.48765546309E-02  0.19928137806E-01  0.51100000000E-03 0.  1.
</event>
<event>
 8    1  0.1163913E+005  0.1043930E+01  0.7957747E-01            NaN
         13   -1    0    0    0    0  0.00000000000E+00  0.00000000000E+00  0.74505805969E-08  0.10566000000E+00  0.10566000000E+00 0. -1.
     999900   -1    0    0    0    0 -0.00000000000E+00 -0.00000000000E+00 -0.74505805969E-08  0.93827000000E+00  0.93827000000E+00 0. -1.
     999902    2    1    2    0    0 -0.20820531602E-01 -0.69998034594E-02  0.87113610811E-02  0.10202999429E+01  0.10200262712E+01 0.  0.
     999903    2    3    3    0    0  0.11340087593E+00  0.33803801318E-01 -0.43998755184E-01  0.12763053227E+00  0.18740508633E-01 0.  0.
         14    1    1    2    0    0  0.20820531602E-01  0.69998034594E-02 -0.87113610811E-02  0.23630057057E-01  0.00000000000E+00 0.  1.
     999901    1    3    3    0    0 -0.13422140753E+00 -0.40803604778E-01  0.52710116265E-01  0.89266941068E+00  0.88000000000E+00 0.  1.
        -11    1    4    4    0    0  0.16000874459E-01  0.81667358153E-03 -0.11687503123E-01  0.19838190176E-01  0.51100000000E-03 0.  1.
         11    1    4    4    0    0  0.97400001469E-01  0.32987127737E-01 -0.32311252061E-01  0.10779234209E+00  0.51100000000E-03 0. -1.
</event>
<event>
 8    1  0.1163913E+005  0.1043930E+01  0.7957747E-01            NaN
         13   -1    0    0    0    0  0.00000000000E+00  0.00000000000E+00  0.74505805969E-08  0.10566000000E+00  0.10566000000E+00 0.  1.
     999900   -1    0    0    0    0 -0.00000000000E+00 -0.00000000000E+00 -0.74505805969E-08  0.93827000000E+00  0.93827000000E+00 0. -1.
     999902    2    1    2    0    0 -0.23000506143E-01  0.56606377573E-03 -0.80288694986E-02  0.10195618557E+01  0.10192706074E+01 0.  0.
     999903    2    3    3    0    0 -0.87942940112E-02  0.10683139558E+00  0.70089947311E-01  0.12961989875E+00  0.19960730158E-01 0.  0.
         14    1    1    2    0    0  0.23000506143E-01 -0.56606377573E-03  0.80288694986E-02  0.24368144296E-01  0.00000000000E+00 0.  1.
     999901    1    3    3    0    0 -0.14206212132E-01 -0.10626533181E+00 -0.78118816809E-01  0.88994195695E+00  0.88000000000E+00 0. -1.
        -11    1    4    4    0    0  0.63268344783E-03  0.87061836497E-01  0.54227873631E-01  0.10257235038E+00  0.51100000000E-03 0.  1.
         11    1    4    4    0    0 -0.94269774591E-02  0.19769559086E-01  0.15862073680E-01  0.27047548371E-01  0.51100000000E-03 0. -1.
</event>
<event>
 8    1  0.1163913E+005  0.1043930E+01  0.7957747E-01            NaN
         13   -1    0    0    0    0  0.00000000000E+00  0.00000000000E+00  0.74505805969E-08  0.10566000000E+00  0.10566000000E+00 0. -1.
     999900   -1    0    0    0    0 -0.00000000000E+00 -0.00000000000E+00 -0.74505805969E-08  0.93827000000E+00  0.93827000000E+00 0. -1.
     999902    2    1    2    0    0 -0.51087114190E-02  0.17313024838E-01 -0.15733424509E-01  0.10199846370E+01  0.10197035252E+01 0.  0.
     999903    2    3    3    0    0 -0.37451281675E-01  0.64525530325E-01 -0.10860515828E+00  0.13324892585E+00  0.19850775139E-01 0.  0.
         14    1    1    2    0    0  0.51087114190E-02 -0.17313024838E-01  0.15733424509E-01  0.23945362979E-01  0.00000000000E+00 0. -1.
     999901    1    3    3    0    0  0.32342570256E-01 -0.47212505487E-01  0.92871733771E-01  0.88673571117E+00  0.88000000000E+00 0.  1.
        -11    1    4    4    0    0 -0.12436581142E-01  0.65654624148E-02 -0.19732091623E-01  0.24236138472E-01  0.51100000000E-03 0. -1.
         11    1    4    4    0    0 -0.25014700533E-01  0.57960067910E-01 -0.88873066656E-01  0.10901278738E+00  0.51100000000E-03 0.  1.
</event>
<event>
 7    1  0.1163913E+005  0.1043930E+01  0.7957747E-01            NaN
         13   -1    0    0    0    0  0.00000000000E+00  0.00000000000E+00  0.74505805969E-08  0.10566000000E+00  0.10566000000E+00 0.  1.
     999900   -1    0    0    0    0 -0.00000000000E+00 -0.00000000000E+00 -0.74505805969E-08  0.93827000000E+00  0.93827000000E+00 0. -1.
     999902    2    1    2    0    0  0.23125290834E-01  0.30213318247E-02  0.34125631225E-02  0.10203598259E+01  0.10200875556E+01 0.  0.
         14    1    1    2    0    0 -0.23125290834E-01 -0.30213318247E-02 -0.34125631225E-02  0.23570174145E-01  0.00000000000E+00 0.  1.
     999901    1    3    3    0    0  0.10724742232E+00  0.79232734778E-01 -0.38858534129E-01  0.89089271045E+00  0.88000000000E+00 0.  1.
        -11    1    3    3    0    0 -0.46673665795E-01 -0.69906434300E-01  0.33511952143E-01  0.90491174667E-01  0.51100000000E-03 0. -1.
         11    1    3    3    0    0 -0.37448465693E-01 -0.63049686535E-02  0.87591451081E-02  0.38975940739E-01  0.51100000000E-03 0.  1.
</event>
<event>
 8    1  0.1163913E+005  0.1043930E+01  0.7957747E-01            NaN
         13   -1    0    0    0    0  0.00000000000E+00  0.00000000000E+00  0.74505805969E-08  0.10566000000E+00  0.10566000000E+00 0. -1.
     999900   -1    0    0    0    0 -0.00000000000E+00 -0.00000000000E+00 -0.74505805969E-08  0.93827000000E+00  0.93827000000E+00 0. -1.
     999902    2    1    2    0    0 -0.17078713791E-01 -0.13479240261E-01  0.89473928663E-02  0.10204049448E+01  0.10201337281E+01 0.  0.
     999903    2    3    3    0    0  0.36303334936E-01  0.71709502963E-01  0.10035107348E+00  0.12997729591E+00  0.19067631212E-01 0.  0.
         14    1    1    2    0    0  0.17078713791E-01  0.13479240261E-01 -0.89473928663E-02  0.23525055194E-01  0.00000000000E+00 0.  1.
     999901    1    3    3    0    0 -0.53382048726E-01 -0.85188743224E-01 -0.91403680612E-01  0.89042764890E+00  0.88000000000E+00 0. -1.
        -11    1    4    4    0    0  0.36571677830E-01  0.64230849848E-01  0.83396285315E-01  0.11143738698E+00  0.51100000000E-03 0.  1.
         11    1    4    4    0    0 -0.26834289445E-03  0.74786531144E-02  0.16954788163E-01  0.18539908925E-01  0.51100000000E-03 0. -1.
</event>
<event>
 8    1  0.1163913E+005  0.1043930E+01  0.7957747E-01            NaN
         13   -1    0    0    0    0  0.00000000000E+00  0.00000000000E+00  0.74505805969E-08  0.10566000000E+00  0.10566000000E+00 0.  1.
     999900   -1    0    0    0    0 -0.00000000000E+00 -0.00000000000E+00 -0.74505805969E-08  0.93827000000E+00  0.93827000000E+00 0.  1.
     999902    2    1    2    0    0 -0.41035198795E-02  0.11128264494E-01  0.23258942131E-01  0.10178214662E+01  0.10174865511E+01 0.  0.
     999903    2    3    3    0    0  0.61303969379E-01  0.66872517836E-01  0.91872746301E-01  0.13097682621E+00  0.22004935517E-01 0.  0.
         14    1    1    2    0    0  0.41035198795E-02 -0.11128264494E-01 -0.23258942131E-01  0.26108533760E-01  0.00000000000E+00 0.  1.
     999901    1    3    3    0    0 -0.65407489259E-01 -0.55744253342E-01 -0.68613804170E-01  0.88684464003E+00  0.88000000000E+00 0.  1.
        -11    1    4    4    0    0  0.60133614919E-01  0.65482825243E-01  0.82073256119E-01  0.12099724185E+00  0.51100000000E-03 0. -1.
         11    1    4    4    0    0  0.11703544602E-02  0.13896925936E-02  0.97994901823E-02  0.99795843550E-02  0.51100000000E-03 0.  1.
</event>
<event>
 8    1  0.1163913E+005  0.1043930E+01  0.7957747E-01            NaN
         13   -1    0    0    0    0  0.00000000000E+00  0.00000000000E+00  0.74505805969E-08  0.10566000000E+00  0.10566000000E+00 0.  1.
     999900   -1    0    0    0    0 -0.00000000000E+00 -0.00000000000E+00 -0.74505805969E-08  0.93827000000E+00  0.93827000000E+00 0.  1.
     999902    2    1    2    0    0 -0.19281363413E-02 -0.93542984689E-02 -0.21753997319E-01  0.10201716960E+01  0.10198950104E+01 0.  0.
     999903    2    3    3    0    0  0.63223535650E-02  0.25154943440E-01  0.12327018453E+00  0.12759622486E+00  0.20310462103E-01 0.  0.
         14    1    1    2    0    0  0.19281363413E-02  0.93542984689E-02  0.21753997319E-01  0.23758304000E-01  0.00000000000E+00 0.  1.
     999901    1    3    3    0    0 -0.82504899063E-02 -0.34509241908E-01 -0.14502418185E+00  0.89257547114E+00  0.88000000000E+00 0.  1.
        -11    1    4    4    0    0  0.20961007568E-02  0.13142536113E-01  0.10149965210E+00  0.10236972400E+00  0.51100000000E-03 0. -1.
         11    1    4    4    0    0  0.42262528083E-02  0.12012407327E-01  0.21770532430E-01  0.25226500864E-01  0.51100000000E-03 0.  1.
</event>
<event>
 8    1  0.1163913E+005  0.1043930E+01  0.7957747E-01            NaN
         13   -1    0    0    0    0  0.00000000000E+00  0.00000000000E+00  0.74505805969E-08  0.10566000000E+00  0.10566000000E+00 0.  1.
     999900   -1    0    0    0    0 -0.00000000000E+00 -0.00000000000E+00 -0.74505805969E-08  0.93827000000E+00  0.93827000000E+00 0. -1.
     999902    2    1    2    0    0  0.16365747095E-01 -0.16844942335E-01  0.22342452544E-02  0.10203380181E+01  0.10200652379E+01 0.  0.
     999903    2    3    3    0    0 -0.41597811943E-01  0.78418388699E-01  0.91671849825E-01  0.12880340766E+00  0.17514797470E-01 0.  0.
         14    1    1    2    0    0 -0.16365747095E-01  0.16844942335E-01 -0.22342452544E-02  0.23591981945E-01  0.00000000000E+00 0.  1.
     999901    1    3    3    0    0  0.57963559038E-01 -0.95263331034E-01 -0.89437604571E-01  0.89153461039E+00  0.88000000000E+00 0. -1.
        -11    1    4    4    0    0 -0.73280120470E-02  0.23661197336E-01  0.34920450583E-01  0.42816480587E-01  0.51100000000E-03 0. -1.
         11    1    4    4    0    0 -0.34269799896E-01  0.54757191363E-01  0.56751399242E-01  0.85986927075E-01  0.51100000000E-03 0.  1.
</event>
<event>
 8    1  0.1163913E+005  0.1043930E+01  0.7957747E-01            NaN
         13   -1    0    0    0    0  0.00000000000E+00  0.00000000000E+00  0.74505805969E-08  0.10566000000E+00  0.10566000000E+00 0.  1.
     999900   -1    0    0    0    0 -0.00000000000E+00 -0.00000000000E+00 -0.74505805969E-08  0.93827000000E+00  0.93827000000E+00 0.  1.
     999902    2    1    2    0    0 -0.13081436826E-01 -0.18705177228E-01  0.34327433797E-02  0.10208477260E+01  0.10205867373E+01 0.  0.
     999903    2    3    3    0    0  0.83328925189E-01  0.39181838117E-01 -0.88256045155E-01  0.12896617650E+00  0.19084521560E-01 0.  0.
         14    1    1    2    0    0  0.13081436826E-01  0.18705177228E-01 -0.34327433797E-02  0.23082273971E-01  0.00000000000E+00 0. -1.
     999901    1    3    3    0    0 -0.96410362014E-01 -0.57887015345E-01  0.91688788534E-01  0.89188154953E+00  0.88000000000E+00 0. -1.
        -11    1    4    4    0    0  0.25247411779E-01  0.21202727820E-01 -0.26512209293E-01  0.42310114998E-01  0.51100000000E-03 0. -1.
         11    1    4    4    0    0  0.58081513410E-01  0.17979110298E-01 -0.61743835861E-01  0.86656061501E-01  0.51100000000E-03 0.  1.
</event>
<event>
 8    1  0.1163913E+005  0.1043930E+01  0.7957747E-01            NaN
         13   -1    0    0    0    0  0.00000000000E+00  0.00000000000E+00  0.74505805969E-08  0.10566000000E+00  0.10566000000E+00 0.  1.
     999900   -1    0    0    0    0 -0.00000000000E+00 -0.00000000000E+00 -0.74505805969E-08  0.93827000000E+00  0.93827000000E+00 0. -1.
     999902    2    1    2    0    0 -0.12238603241E-01  0.49239079797E-02  0.17953030703E-01  0.10216513198E+01  0.10214083805E+01 0.  0.
     999903    2    3    3    0    0 -0.19093460396E-02  0.10958643564E+00  0.73834261800E-01  0.13362899452E+00  0.19808520392E-01 0.  0.
         14    1    1    2    0    0  0.12238603241E-01 -0.49239079797E-02 -0.17953030703E-01  0.22278680179E-01  0.00000000000E+00 0. -1.
     999901    1    3    3    0    0 -0.10329257202E-01 -0.10466252766E+00 -0.55881231097E-01  0.88802232531E+00  0.88000000000E+00 0. -1.
        -11    1    4    4    0    0  0.48071109161E-02  0.35153123719E-01  0.15051367319E-01  0.38544198030E-01  0.51100000000E-03 0.  1.
         11    1    4    4    0    0 -0.67164569558E-02  0.74433311925E-01  0.58782894481E-01  0.95084796486E-01  0.51100000000E-03 0. -1.
</event>
<event>
 8    1  0.1163913E+005  0.1043930E+01  0.7957747E-01            NaN
         13   -1    0    0    0    0  0.00000000000E+00  0.00000000000E+00  0.74505805969E-08  0.10566000000E+00  0.10566000000E+00 0.  1.
     999900   -1    0    0    0    0 -0.00000000000E+00 -0.00000000000E+00 -0.74505805969E-08  0.93827000000E+00  0.93827000000E+00 0.  1.
     999902    2    1    2    0    0  0.20514096281E-01 -0.60316120275E-02 -0.80643321617E-02  0.10210773865E+01  0.10208216236E+01 0.  0.
     999903    2    3    3    0    0  0.10229852686E-01 -0.67279834393E-01  0.10973865249E+00  0.13105791841E+00  0.22413837830E-01 0.  0.
         14    1    1    2    0    0 -0.20514096281E-01  0.60316120275E-02  0.80643321617E-02  0.22852613485E-01  0.00000000000E+00 0.  1.
     999901    1    3    3    0    0  0.10284243595E-01  0.61248222365E-01 -0.11780298465E+00  0.89001946810E+00  0.88000000000E+00 0.  1.
        -11    1    4    4    0    0  0.43291050544E-02 -0.50031116192E-01  0.60966216235E-01  0.78987305189E-01  0.51100000000E-03 0.  1.
         11    1    4    4    0    0  0.59007476321E-02 -0.17248718201E-01  0.48772436255E-01  0.52070613223E-01  0.51100000000E-03 0. -1.
</event>
<event>
 8    1  0.1163913E+005  0.1043930E+01  0.7957747E-01            NaN
         13   -1    0    0    0    0  0.00000000000E+00  0.00000000000E+00  0.74505805969E-08  0.10566000000E+00  0.10566000000E+00 0. -1.
     999900   -1    0    0    0    0 -0.00000000000E+00 -0.00000000000E+00 -0.74505805969E-08  0.93827000000E+00  0.93827000000E+00 0.  1.
     999902    2    1    2    0    0 -0.54251779013E-02  0.20243674894E-01  0.14268079306E-01  0.10185761637E+01  0.10182605679E+01 0.  0.
     999903    2    3    3    0    0  0.83271080059E-01  0.92508971732E-01 -0.32467886462E-01  0.12994038352E+00  0.18394482687E-01 0.  0.
         14    1    1    2    0    0  0.54251779013E-02 -0.20243674894E-01 -0.14268079306E-01  0.25353836308E-01  0.00000000000E+00 0. -1.
     999901    1    3    3    0    0 -0.88696257960E-01 -0.72265296838E-01  0.46735965768E-01  0.88863578017E+00  0.88000000000E+00 0. -1.
        -11    1    4    4    0    0  0.55117317592E-02  0.85053463056E-02  0.21036696778E-02  0.10363717956E-01  0.51100000000E-03 0.  1.
         11    1    4    4    0    0  0.77759348300E-01  0.84003625426E-01 -0.34571556140E-01  0.11957666557E+00  0.51100000000E-03 0. -1.
</event>
<event>
 8    1  0.1163913E+005  0.1043930E+01  0.7957747E-01            NaN
         13   -1    0    0    0    0  0.00000000000E+00  0.00000000000E+00  0.74505805969E-08  0.10566000000E+00  0.10566000000E+00 0. -1.
     999900   -1    0    0    0    0 -0.00000000000E+00 -0.00000000000E+00 -0.74505805969E-08  0.93827000000E+00  0.93827000000E+00 0. -1.
     999902    2    1    2    0    0  0.31826496630E-02  0.16428295306E-01 -0.16183944263E-01  0.10206504339E+01  0.10203849127E+01 0.  0.
     999903    2    3    3    0    0 -0.11523268774E+00  0.59855626156E-01  0.47272245191E-02  0.13141176956E+00  0.19632580596E-01 0.  0.
         14    1    1    2    0    0 -0.31826496630E-02 -0.16428295306E-01  0.16183944263E-01  0.23279566093E-01  0.00000000000E+00 0.  1.
     999901    1    3    3    0    0  0.11841533740E+00 -0.43427330850E-01 -0.20911168782E-01  0.88923866435E+00  0.88000000000E+00 0. -1.
        -11    1    4    4    0    0 -0.77330626751E-01  0.46217285240E-01  0.10559537877E-01  0.90707377042E-01  0.51100000000E-03 0. -1.
         11    1    4    4    0    0 -0.37902060986E-01  0.13638340916E-01 -0.58323133576E-02  0.40704392515E-01  0.51100000000E-03 0.  1.
</event>
<event>
 8    1  0.1163913E+005  0.1043930E+01  0.7957747E-01            NaN
         13   -1    0    0    0    0  0.00000000000E+00  0.00000000000E+00  0.74505805969E-08  0.10566000000E+00  0.10566000000E+00 0. -1.
     999900   -1    0    0    0    0 -0.00000000000E+00 -0.00000000000E+00 -0.74505805969E-08  0.93827000000E+00  0.93827000000E+00 0.  1.
     999902    2    1    2    0    0 -0.87671304360E-02 -0.17458162303E-01  0.15198258054E-01  0.10191784939E+01  0.10188778952E+01 0.  0.
     999903    2    3    3    0    0 -0.35523519753E-01  0.17570488880E-01  0.12360729497E+00  0.13143110298E+00  0.20608952592E-01 0.  0.
         14    1    1    2    0    0  0.87671304360E-02  0.17458162303E-01 -0.15198258054E-01  0.24751506115E-01  0.00000000000E+00 0. -1.
     999901    1    3    3    0    0  0.26756389317E-01 -0.35028651184E-01 -0.10840903691E+00  0.88774739090E+00  0.88000000000E+00 0.  1.
        -11    1    4    4    0    0 -0.11168541304E-01  0.14612693718E-01  0.71583244262E-01  0.73910006850E-01  0.51100000000E-03 0.  1.
         11    1    4    4    0    0 -0.24354978449E-01  0.29577951629E-02  0.52024050704E-01  0.57521096131E-01  0.51100000000E-03 0. -1.
</event>
<event>
 8    1  0.1163913E+005  0.1043930E+01  0.7957747E-01            NaN
         13   -1    0    0    0    0  0.00000000000E+00  0.00000000000E+00  0.74505805969E-08  0.10566000000E+00  0.10566000000E+00 0.  1.
     999900   -1    0    0    0    0 -0.00000000000E+00 -0.00000000000E+00 -0.74505805969E-08  0.93827000000E+00  0.93827000000E+00 0. -1.
     999902    2    1    2    0    0 -0.15821558766E-02  0.35716246038E-02 -0.23471747525E-01  0.10201354071E+01  0.10198578657E+01 0.  0.
     999903    2    3    3    0    0  0.76998572816E-01  0.99991739416E-01  0.26967482362E-01  0.12995796109E+00  0.15319868787E-01 0.  0.
         14    1    1    2    0    0  0.15821558766E-02 -0.35716246038E-02  0.23471747525E-01  0.23794592902E-01  0.00000000000E+00 0.  1.
     999901    1    3    3    0    0 -0.78580728692E-01 -0.96420114812E-01 -0.50439229887E-01  0.89017744600E+00  0.88000000000E+00 0.  1.
        -11    1    4    4    0    0  0.25500716298E-01  0.26009361618E-01  0.13324179496E-01  0.38788765174E-01  0.51100000000E-03 0.  1.
         11    1    4    4    0    0  0.51497856518E-01  0.73982377798E-01  0.13643302866E-01  0.91169195920E-01  0.51100000000E-03 0. -1.
</event>
<event>
 8    1  0.1163913E+005  0.1043930E+01  0.7957747E-01            NaN
         13   -1    0    0    0    0  0.00000000000E+00  0.00000000000E+00  0.74505805969E-08  0.10566000000E+00  0.10566000000E+00 0.  1.
     999900   -1    0    0    0    0 -0.00000000000E+00 -0.00000000000E+00 -0.74505805969E-08  0.93827000000E+00  0.93827000000E+00 0. -1.
     999902    2    1    2    0    0  0.63503170309E-02 -0.22979509391E-01  0.13908682148E-01  0.10163286265E+01  0.10159537594E+01 0.  0.
     999903    2    3    3    0    0 -0.19698800375E-01 -0.55907102763E-02  0.12561713912E+00  0.12871401071E+00  0.19191980997E-01 0.  0.
         14    1    1    2    0    0 -0.63503170309E-02  0.22979509391E-01 -0.13908682148E-01  0.27601373469E-01  0.00000000000E+00 0. -1.
     999901    1    3    3    0    0  0.26049117406E-01 -0.17388799115E-01 -0.11170845698E+00  0.88761461582E+00  0.88000000000E+00 0. -1.
        -11    1    4    4    0    0  0.24140298006E-02 -0.48014767109E-02  0.36095389660E-01  0.36496849100E-01  0.51100000000E-03 0. -1.
         11    1    4    4    0    0 -0.22112830176E-01 -0.78923356542E-03  0.89521749465E-01  0.92217161614E-01  0.51100000000E-03 0.  1.
</event>
<event>
 8    1  0.1163913E+005  0.1043930E+01  0.7957747E-01            NaN
         13   -1    0    0    0    0  0.00000000000E+00  0.00000000000E+00  0.74505805969E-08  0.10566000000E+00  0.10566000000E+00 0.  1.
     999900   -1    0    0    0    0 -0.00000000000E+00 -0.00000000000E+00 -0.74505805969E-08  0.93827000000E+00  0.93827000000E+00 0.  1.
     999902    2    1    2    0    0  0.16199769504E-02 -0.13477619018E-01 -0.13808486167E-01  0.10245665078E+01  0.10243835142E+01 0.  0.
     999903    2    3    3    0    0 -0.96461020580E-01 -0.49909341792E-06 -0.93071351961E-01  0.13547477085E+00  0.19657275709E-01 0.  0.
         14    1    1    2    0    0 -0.16199769504E-02  0.13477619018E-01  0.13808486167E-01  0.19363492194E-01  0.00000000000E+00 0. -1.
     999901    1    3    3    0    0  0.98080997530E-01 -0.13477119925E-01  0.79262865794E-01  0.88909173696E+00  0.88000000000E+00 0. -1.
        -11    1    4    4    0    0 -0.54067395338E-01  0.75298680095E-02 -0.43428463154E-01  0.69758688948E-01  0.51100000000E-03 0.  1.
         11    1    4    4    0    0 -0.42393625242E-01 -0.75303671029E-02 -0.49642888806E-01  0.65716081897E-01  0.51100000000E-03 0. -1.
</event>
<event>
 8    1  0.1163913E+005  0.1043930E+01  0.7957747E-01            NaN
         13   -1    0    0    0    0  0.00000000000E+00  0.00000000000E+00  0.74505805969E-08  0.10566000000E+00  0.10566000000E+00 0.  1.
     999900   -1    0    0    0    0 -0.00000000000E+00 -0.00000000000E+00 -0.74505805969E-08  0.93827000000E+00  0.93827000000E+00 0.  1.
     999902    2    1    2    0    0  0.10081489982E-01 -0.20158423094E-01 -0.46019307637E-02  0.10209261693E+01  0.10206669716E+01 0.  0.
     999903    2    3    3    0    0  0.81182120258E-01  0.68096811879E-01  0.72958096953E-01  0.13027480985E+00  0.20516572137E-01 0.  0.
         14    1    1    2    0    0 -0.10081489982E-01  0.20158423094E-01  0.46019307637E-02  0.23003830738E-01  0.00000000000E+00 0. -1.
     999901    1    3    3    0    0 -0.71100630276E-01 -0.88255234972E-01 -0.77560027717E-01  0.89065135941E+00  0.88000000000E+00 0.  1.
        -11    1    4    4    0    0  0.46554594893E-01  0.51359292685E-01  0.50120161269E-01  0.85541796435E-01  0.51100000000E-03 0.  1.
         11    1    4    4    0    0  0.34627525365E-01  0.16737519194E-01  0.22837935684E-01  0.44733013413E-01  0.51100000000E-03 0. -1.
</event>
<event>
 8    1  0.1163913E+005  0.1043930E+01  0.7957747E-01            NaN
         13   -1    0    0    0    0  0.00000000000E+00  0.00000000000E+00  0.74505805969E-08  0.10566000000E+00  0.10566000000E+00 0.  1.
     999900   -1    0    0    0    0 -0.00000000000E+00 -0.00000000000E+00 -0.74505805969E-08  0.93827000000E+00  0.93827000000E+00 0. -1.
     999902    2    1    2    0    0 -0.39462264166E-02 -0.11604256789E-01  0.20379150859E-01  0.10201488884E+01  0.10198716651E+01 0.  0.
     999903    2    3    3    0    0  0.64639118415E-01  0.10074858288E+00 -0.41551080269E-01  0.12820580523E+00  0.19538260949E-01 0.  0.
         14    1    1    2    0    0  0.39462264166E-02  0.11604256789E-01 -0.20379150859E-01  0.23781111586E-01  0.00000000000E+00 0. -1.
     999901    1    3    3    0    0 -0.68585344832E-01 -0.11235283967E+00  0.61930231128E-01  0.89194308318E+00  0.88000000000E+00 0.  1.
        -11    1    4    4    0    0  0.14017357114E-01  0.12600487295E-01 -0.11986936133E-01  0.22342925936E-01  0.51100000000E-03 0. -1.
         11    1    4    4    0    0  0.50621761302E-01  0.88148095589E-01 -0.29564144136E-01  0.10586287930E+00  0.51100000000E-03 0.  1.
</event>
<event>
 8    1  0.1163913E+005  0.1043930E+01  0.7957747E-01            NaN
         13   -1    0    0    0    0  0.00000000000E+00  0.00000000000E+00  0.74505805969E-08  0.10566000000E+00  0.10566000000E+00 0.  1.
     999900   -1    0    0    0    0 -0.00000000000E+00 -0.00000000000E+00 -0.74505805969E-08  0.93827000000E+00  0.93827000000E+00 0.  1.
     999902    2    1    2    0    0 -0.70527162679E-02 -0.24909819260E-02  0.17556892912E-01  0.10248462298E+01  0.10246685339E+01 0.  0.
     999903    2    3    3    0    0 -0.12419259017E+00 -0.71733884548E-02  0.52276500076E-01  0.13639300865E+00  0.19873685957E-01 0.  0.
         14    1    1    2    0    0  0.70527162679E-02  0.24909819260E-02 -0.17556892912E-01  0.19083770236E-01  0.00000000000E+00 0. -1.
     999901    1    3    3    0    0  0.11713987390E+00  0.46824065288E-02 -0.34719607164E-01  0.88845322112E+00  0.88000000000E+00 0.  1.
        -11    1    4    4    0    0 -0.66964686014E-01  0.59130307360E-02  0.29674014857E-01  0.73484973867E-01  0.51100000000E-03 0. -1.
         11    1    4    4    0    0 -0.57227904153E-01 -0.13086419191E-01  0.22602485220E-01  0.62908034782E-01  0.51100000000E-03 0.  1.
</event>
<event>
 8    1  0.1163913E+005  0.1043930E+01  0.7957747E-01            NaN
         13   -1    0    0    0    0  0.00000000000E+00  0.00000000000E+00  0.74505805969E-08  0.10566000000E+00  0.10566000000E+00 0. -1.
     999900   -1    0    0    0    0 -0.00000000000E+00 -0.00000000000E+00 -0.74505805969E-08  0.93827000000E+00  0.93827000000E+00 0. -1.
     999902    2    1    2    0    0  0.15478406564E-01 -0.14826651840E-01 -0.53135139902E-02  0.10218473347E+01  0.10216086978E+01 0.  0.
     999903    2    3    3    0    0  0.57501882072E-01 -0.11596210783E+00  0.30066318775E-01  0.13435306122E+00  0.19826362224E-01 0.  0.
         14    1    1    2    0    0 -0.15478406564E-01  0.14826651840E-01  0.53135139902E-02  0.22082665271E-01  0.00000000000E+00 0.  1.
     999901    1    3    3    0    0 -0.42023475508E-01  0.10113545599E+00 -0.35379832765E-01  0.88749427351E+00  0.88000000000E+00 0. -1.
        -11    1    4    4    0    0  0.23288103628E-01 -0.68759536449E-01  0.18469060457E-01  0.74910459473E-01  0.51100000000E-03 0.  1.
         11    1    4    4    0    0  0.34213778445E-01 -0.47202571381E-01  0.11597258318E-01  0.59442601743E-01  0.51100000000E-03 0. -1.
</event>
<event>
 8    1  0.1163913E+005  0.1043930E+01  0.7957747E-01            NaN
         13   -1    0    0    0    0  0.00000000000E+00  0.00000000000E+00  0.74505805969E-08  0.10566000000E+00  0.10566000000E+00 0. -1.
     999900   -1    0    0    0    0 -0.00000000000E+00 -0.00000000000E+00 -0.74505805969E-08  0.93827000000E+00  0.93827000000E+00 0.  1.
     999902    2    1    2    0    0  0.70152647982E-02  0.27672157304E-02 -0.22829681183E-01  0.10198870017E+01  0.10196035654E+01 0.  0.
     999903    2    3    3    0    0  0.74125126976E-01  0.92354188922E-01 -0.55477211046E-01  0.13219594028E+00  0.19344638020E-01 0.  0.
         14    1    1    2    0    0 -0.70152647982E-02 -0.27672157304E-02  0.22829681183E-01  0.24042998274E-01  0.00000000000E+00 0. -1.
     999901    1    3    3    0    0 -0.67109862178E-01 -0.89586973192E-01  0.32647529863E-01  0.88769106145E+00  0.88000000000E+00 0.  1.
        -11    1    4    4    0    0  0.35064217318E-01  0.35805660352E-01 -0.14480400789E-01  0.52167880706E-01  0.51100000000E-03 0.  1.
         11    1    4    4    0    0  0.39060909659E-01  0.56548528570E-01 -0.40996810257E-01  0.80028059573E-01  0.51100000000E-03 0. -1.
</event>
<event>
 8    1  0.1163913E+005  0.1043930E+01  0.7957747E-01            NaN
         13   -1    0    0    0    0  0.00000000000E+00  0.00000000000E+00  0.74505805969E-08  0.10566000000E+00  0.10566000000E+00 0. -1.
     999900   -1    0    0    0    0 -0.00000000000E+00 -0.00000000000E+00 -0.74505805969E-08  0.93827000000E+00  0.93827000000E+00 0. -1.
     999902    2    1    2    0    0  0.49437176562E-02 -0.23443049231E-01 -0.27146932946E-02  0.10198180432E+01  0.10195329591E+01 0.  0.
     999903    2    3    3    0    0  0.11383305052E+00 -0.59697332357E-01  0.22345977558E-01  0.13201215389E+00  0.20152696604E-01 0.  0.
         14    1    1    2    0    0 -0.49437176562E-02  0.23443049231E-01  0.27146932946E-02  0.24111956810E-01  0.00000000000E+00 0.  1.
     999901    1    3    3    0    0 -0.10888933286E+00  0.36254283125E-01 -0.25060670853E-01  0.88780588930E+00  0.88000000000E+00 0.  1.
        -11    1    4    4    0    0  0.39906106281E-01 -0.23883476906E-01 -0.13056813610E-02  0.46528310871E-01  0.51100000000E-03 0.  1.
         11    1    4    4    0    0  0.73926944236E-01 -0.35813855451E-01  0.23651658919E-01  0.85483843017E-01  0.51100000000E-03 0. -1.
</event>
<event>
 8    1  0.1163913E+005  0.1043930E+01  0.7957747E-01            NaN
         13   -1    0    0    0    0  0.00000000000E+00  0.00000000000E+00  0.74505805969E-08  0.10566000000E+00  0.10566000000E+00 0.  1.
     999900   -1    0    0    0    0 -0.00000000000E+00 -0.00000000000E+00 -0.74505805969E-08  0.93827000000E+00  0.93827000000E+00 0. -1.
     999902    2    1    2    0    0  0.13028297234E-02  0.24403319650E-01 -0.12501169774E-01  0.10164800707E+01  0.10161093619E+01 0.  0.
     999903    2    3    3    0    0  0.82016552052E-01 -0.76956034880E-01  0.50333932483E-01  0.12477570608E+00  0.19660263344E-01 0.  0.
         14    1    1    2    0    0 -0.13028297234E-02 -0.24403319650E-01  0.12501169774E-01  0.27449929343E-01  0.00000000000E+00 0.  1.
     999901    1    3    3    0    0 -0.80713722328E-01  0.10135935453E+00 -0.62835102257E-01  0.89170436457E+00  0.88000000000E+00 0. -1.
        -11    1    4    4    0    0  0.37655176290E-01 -0.44042002529E-01  0.33934403966E-01  0.67152179278E-01  0.51100000000E-03 0. -1.
         11    1    4    4    0    0  0.44361375762E-01 -0.32914032351E-01  0.16399528517E-01  0.57623526807E-01  0.51100000000E-03 0.  1.
</event>
<event>
 8    1  0.1163913E+005  0.1043930E+01  0.7957747E-01            NaN
         13   -1    0    0    0    0  0.00000000000E+00  0.00000000000E+00  0.74505805969E-08  0.10566000000E+00  0.10566000000E+00 0. -1.
     999900   -1    0    0    0    0 -0.00000000000E+00 -0.00000000000E+00 -0.74505805969E-08  0.93827000000E+00  0.93827000000E+00 0. -1.
     999902    2    1    2    0    0 -0.21914504212E-01  0.10702839472E-01  0.14996042135E-02  0.10194954941E+01  0.10192026380E+01 0.  0.
     999903    2    3    3    0    0 -0.90250320005E-01  0.14237020078E-01 -0.92949834258E-01  0.13180018002E+00  0.19590884669E-01 0.  0.
         14    1    1    2    0    0  0.21914504212E-01 -0.10702839472E-01 -0.14996042135E-02  0.24434505937E-01  0.00000000000E+00 0. -1.
     999901    1    3    3    0    0  0.68335815793E-01 -0.35341806058E-02  0.94449438471E-01  0.88769531405E+00  0.88000000000E+00 0.  1.
        -11    1    4    4    0    0 -0.67890727907E-01  0.26583757623E-02 -0.62874248424E-01  0.92572404815E-01  0.51100000000E-03 0. -1.
         11    1    4    4    0    0 -0.22359592098E-01  0.11578644315E-01 -0.30075585834E-01  0.39227775201E-01  0.51100000000E-03 0.  1.
</event>
<event>
 8    1  0.1163913E+005  0.1043930E+01  0.7957747E-01            NaN
         13   -1    0    0    0    0  0.00000000000E+00  0.00000000000E+00  0.74505805969E-08  0.10566000000E+00  0.10566000000E+00 0.  1.
     999900   -1    0    0    0    0 -0.00000000000E+00 -0.00000000000E+00 -0.74505805969E-08  0.93827000000E+00  0.93827000000E+00 0.  1.
     999902    2    1    2    0    0 -0.10173151797E-01  0.86386279157E-02  0.19227983301E-01  0.10205241407E+01  0.10202556971E+01 0.  0.
     999903    2    3    3    0    0 -0.10379980146E+00 -0.77200555332E-01  0.11993587980E-01  0.13137474298E+00  0.19523125149E-01 0.  0.
         14    1    1    2    0    0  0.10173151797E-01 -0.86386279157E-02 -0.19227983301E-01  0.23405859343E-01  0.00000000000E+00 0. -1.
     999901    1    3    3    0    0  0.93626649658E-01  0.85839183248E-01  0.72343953211E-02  0.88914939767E+00  0.88000000000E+00 0.  1.
        -11    1    4    4    0    0 -0.48379910530E-01 -0.40236370317E-01 -0.33358386394E-02  0.63015634406E-01  0.51100000000E-03 0.  1.
         11    1    4    4    0    0 -0.55419890926E-01 -0.36964185015E-01  0.15329426620E-01  0.68359108578E-01  0.51100000000E-03 0. -1.
</event>
<event>
 8    1  0.1163913E+005  0.1043930E+01  0.7957747E-01            NaN
         13   -1    0    0    0    0  0.00000000000E+00  0.00000000000E+00  0.74505805969E-08  0.10566000000E+00  0.10566000000E+00 0.  1.
     999900   -1    0    0    0    0 -0.00000000000E+00 -0.00000000000E+00 -0.74505805969E-08  0.93827000000E+00  0.93827000000E+00 0.  1.
     999902    2    1    2    0    0  0.20334923344E-01  0.56907032771E-02  0.10770470055E-01  0.10202256494E+01  0.10199502338E+01 0.  0.
     999903    2    3    3    0    0 -0.28658988718E-01 -0.88217548048E-01 -0.86633096997E-01  0.12853813803E+00  0.20324517613E-01 0.  0.
         14    1    1    2    0    0 -0.20334923344E-01 -0.56907032771E-02 -0.10770470055E-01  0.23704350580E-01  0.00000000000E+00 0. -1.
     999901    1    3    3    0    0  0.48993912062E-01  0.93908251325E-01  0.97403567052E-01  0.89168751139E+00  0.88000000000E+00 0.  1.
        -11    1    4    4    0    0 -0.73533964012E-02 -0.47295369116E-02 -0.70297143407E-02  0.11230269932E-01  0.51100000000E-03 0. -1.
         11    1    4    4    0    0 -0.21305592317E-01 -0.83488011137E-01 -0.79603382656E-01  0.11730786810E+00  0.51100000000E-03 0.  1.
</event>
<event>
 8    1  0.1163913E+005  0.1043930E+01  0.7957747E-01            NaN
         13   -1    0    0    0    0  0.00000000000E+00  0.00000000000E+00  0.74505805969E-08  0.10566000000E+00  0.10566000000E+00 0. -1.
     999900   -1    0    0    0    0 -0.00000000000E+00 -0.00000000000E+00 -0.74505805969E-08  0.93827000000E+00  0.93827000000E+00 0. -1.
     999902    2    1    2    0    0 -0.20098599641E-01 -0.33617682284E-02  0.11911736011E-01  0.10203260883E+01  0.10200530289E+01 0.  0.
     999903    2    3    3    0    0  0.83455720639E-01  0.86091199152E-01  0.43882257009E-01  0.12917658073E+00  0.19605730000E-01 0.  0.
         14    1    1    2    0    0  0.20098599641E-01  0.33617682284E-02 -0.11911736011E-01  0.23603911709E-01  0.00000000000E+00 0.  1.
     999901    1    3    3    0    0 -0.10355432028E+00 -0.89452967381E-01 -0.31970520998E-01  0.89114950757E+00  0.88000000000E+00 0. -1.
        -11    1    4    4    0    0  0.31207298505E-01  0.19324851114E-01  0.12820911193E-01  0.38884215761E-01  0.51100000000E-03 0.  1.
         11    1    4    4    0    0  0.52248422134E-01  0.66766348038E-01  0.31061345816E-01  0.90292364964E-01  0.51100000000E-03 0. -1.
</event>
<event>
 8    1  0.1163913E+005  0.1043930E+01  0.7957747E-01            NaN
         13   -1    0    0    0    0  0.00000000000E+00  0.00000000000E+00  0.74505805969E-08  0.10566000000E+00  0.10566000000E+00 0. -1.
     999900   -1    0    0    0    0 -0.00000000000E+00 -0.00000000000E+00 -0.74505805969E-08  0.93827000000E+00  0.93827000000E+00 0.  1.
     999902    2    1    2    0    0  0.13814125455E-01 -0.18605070676E-01  0.82286568331E-02  0.10193395647E+01  0.10190429130E+01 0.  0.
     999903    2    3    3    0    0 -0.15838584520E-01  0.12462587565E+00  0.57696129447E-02  0.12726309143E+00  0.19497086068E-01 0.  0.
         14    1    1    2    0    0 -0.13814125455E-01  0.18605070676E-01 -0.82286568331E-02  0.24590435340E-01  0.00000000000E+00 0.  1.
     999901    1    3    3    0    0  0.29652709975E-01 -0.14323094633E+00  0.24590438885E-02  0.89207647323E+00  0.88000000000E+00 0.  1.
        -11    1    4    4    0    0 -0.18944492879E-01  0.93942280595E-01 -0.25745821073E-03  0.95835136038E-01  0.51100000000E-03 0.  1.
         11    1    4    4    0    0  0.31059083590E-02  0.30683595057E-01  0.60270711554E-02  0.31427955391E-01  0.51100000000E-03 0. -1.
</event>
<event>
 8    1  0.1163913E+005  0.1043930E+01  0.7957747E-01            NaN
         13   -1    0    0    0    0  0.00000000000E+00  0.00000000000E+00  0.74505805969E-08  0.10566000000E+00  0.10566000000E+00 0.  1.
     999900   -1    0    0    0    0 -0.00000000000E+00 -0.00000000000E+00 -0.74505805969E-08  0.93827000000E+00  0.93827000000E+00 0.  1.
     999902    2    1    2    0    0  0.89015283676E-02  0.21596889981E-01 -0.54069674156E-02  0.10199529660E+01  0.10196711012E+01 0.  0.
     999903    2    3    3    0    0  0.11910357209E-01 -0.14262512674E-01  0.12678726357E+00  0.12935189674E+00  0.17652963256E-01 0.  0.
         14    1    1    2    0    0 -0.89015283676E-02 -0.21596889981E-01  0.54069674156E-02  0.23977034028E-01  0.00000000000E+00 0. -1.
     999901    1    3    3    0    0 -0.30088288414E-02  0.35859402655E-01 -0.13219423098E+00  0.89060106923E+00  0.88000000000E+00 0.  1.
        -11    1    4    4    0    0  0.56771632402E-02  0.19216022554E-02  0.13995534401E-01  0.15233477668E-01  0.51100000000E-03 0. -1.
         11    1    4    4    0    0  0.62331939688E-02 -0.16184114929E-01  0.11279172916E+00  0.11411841907E+00  0.51100000000E-03 0.  1.
</event>
<event>
 8    1  0.1163913E+005  0.1043930E+01  0.7957747E-01            NaN
         13   -1    0    0    0    0  0.00000000000E+00  0.00000000000E+00  0.74505805969E-08  0.10566000000E+00  0.10566000000E+00 0. -1.
     999900   -1    0    0    0    0 -0.00000000000E+00 -0.00000000000E+00 -0.74505805969E-08  0.93827000000E+00  0.93827000000E+00 0.  1.
     999902    2    1    2    0    0  0.20219599203E-01 -0.50297814497E-02 -0.95662393417E-02  0.10210030763E+01  0.10207456285E+01 0.  0.
     999903    2    3    3    0    0  0.82960136628E-01  0.18071668887E-01  0.98752138353E-01  0.13184452862E+00  0.20543257068E-01 0.  0.
         14    1    1    2    0    0 -0.20219599203E-01  0.50297814497E-02  0.95662393417E-02  0.22926923660E-01  0.00000000000E+00 0. -1.
     999901    1    3    3    0    0 -0.62740537425E-01 -0.23101450337E-01 -0.10831837769E+00  0.88915854772E+00  0.88000000000E+00 0.  1.
        -11    1    4    4    0    0  0.57195472414E-01  0.28527097788E-02  0.68572213957E-01  0.89341309962E-01  0.51100000000E-03 0.  1.
         11    1    4    4    0    0  0.25764664215E-01  0.15218959108E-01  0.30179924396E-01  0.42503218654E-01  0.51100000000E-03 0. -1.
</event>
<event>
 8    1  0.1163913E+005  0.1043930E+01  0.7957747E-01            NaN
         13   -1    0    0    0    0  0.00000000000E+00  0.00000000000E+00  0.74505805969E-08  0.10566000000E+00  0.10566000000E+00 0. -1.
     999900   -1    0    0    0    0 -0.00000000000E+00 -0.00000000000E+00 -0.74505805969E-08  0.93827000000E+00  0.93827000000E+00 0. -1.
     999902    2    1    2    0    0  0.16271821501E-01 -0.18555718610E-01  0.47175174736E-02  0.10188034833E+01  0.10184935915E+01 0.  0.
     999903    2    3    3    0    0  0.12890951115E+00  0.11221693162E-01 -0.84711069727E-02  0.13102655010E+00  0.18777878379E-01 0.  0.
         14    1    1    2    0    0 -0.16271821501E-01  0.18555718610E-01 -0.47175174736E-02  0.25126516655E-01  0.00000000000E+00 0.  1.
     999901    1    3    3    0    0 -0.11263768965E+00 -0.29777411772E-01  0.13188624446E-01  0.88777693324E+00  0.88000000000E+00 0.  1.
        -11    1    4    4    0    0  0.91160635246E-01  0.14013734016E-01  0.90607754991E-05  0.92232897399E-01  0.51100000000E-03 0. -1.
         11    1    4    4    0    0  0.37748875904E-01 -0.27920408538E-02 -0.84801677482E-02  0.38793652705E-01  0.51100000000E-03 0.  1.
</event>
<event>
 8    1  0.1163913E+005  0.1043930E+01  0.7957747E-01            NaN
         13   -1    0    0    0    0  0.00000000000E+00  0.00000000000E+00  0.74505805969E-08  0.10566000000E+00  0.10566000000E+00 0.  1.
     999900   -1    0    0    0    0 -0.00000000000E+00 -0.00000000000E+00 -0.74505805969E-08  0.93827000000E+00  0.93827000000E+00 0.  1.
     999902    2    1    2    0    0  0.17028877873E-01 -0.12708619652E-01 -0.89274288842E-02  0.10208824257E+01  0.10206222300E+01 0.  0.
     999903    2    3    3    0    0 -0.10023030437E+00 -0.80033529186E-01  0.10567042536E-01  0.13034191921E+00  0.20636710203E-01 0.  0.
         14    1    1    2    0    0 -0.17028877873E-01  0.12708619652E-01  0.89274288842E-02  0.23047574309E-01  0.00000000000E+00 0. -1.
     999901    1    3    3    0    0  0.11725918224E+00  0.67324909534E-01 -0.19494471420E-01  0.89054050648E+00  0.88000000000E+00 0. -1.
        -11    1    4    4    0    0 -0.40724395315E-01 -0.20277220941E-01  0.14713485886E-02  0.45519974193E-01  0.51100000000E-03 0.  1.
         11    1    4    4    0    0 -0.59505909054E-01 -0.59756308245E-01  0.90956939475E-02  0.84821945019E-01  0.51100000000E-03 0. -1.
</event>
<event>
 8    1  0.1163913E+005  0.1043930E+01  0.7957747E-01            NaN
         13   -1    0    0    0    0  0.00000000000E+00  0.00000000000E+00  0.74505805969E-08  0.10566000000E+00  0.10566000000E+00 0.  1.
     999900   -1    0    0    0    0 -0.00000000000E+00 -0.00000000000E+00 -0.74505805969E-08  0.93827000000E+00  0.93827000000E+00 0.  1.
     999902    2    1    2    0    0 -0.11902325287E-01 -0.13674170468E-01 -0.15193711483E-01  0.10202763078E+01  0.10200020819E+01 0.  0.
     999903    2    3    3    0    0  0.12355791626E+00  0.25567281182E-01  0.11827175070E-01  0.12863764957E+00  0.22079816127E-01 0.  0.
         14    1    1    2    0    0  0.11902325287E-01  0.13674170468E-01  0.15193711483E-01  0.23653692182E-01  0.00000000000E+00 0.  1.
     999901    1    3    3    0    0 -0.13546024155E+00 -0.39241451650E-01 -0.27020886553E-01  0.89163865825E+00  0.88000000000E+00 0. -1.
        -11    1    4    4    0    0  0.49571187932E-01  0.40411695902E-02  0.13589154966E-01  0.51561225532E-01  0.51100000000E-03 0. -1.
         11    1    4    4    0    0  0.73986728327E-01  0.21526111592E-01 -0.17619798964E-02  0.77076424041E-01  0.51100000000E-03 0.  1.
</event>
<event>
 8    1  0.1163913E+005  0.1043930E+01  0.7957747E-01            NaN
         13   -1    0    0    0    0  0.00000000000E+00  0.00000000000E+00  0.74505805969E-08  0.10566000000E+00  0.10566000000E+00 0. -1.
     999900   -1    0    0    0    0 -0.00000000000E+00 -0.00000000000E+00 -0.74505805969E-08  0.93827000000E+00  0.93827000000E+00 0.  1.
     999902    2    1    2    0    0 -0.14711300990E-01 -0.20623867198E-02 -0.18331412685E-01  0.10203351593E+01  0.10200623122E+01 0.  0.
     999903    2    3    3    0    0  0.79306885338E-01 -0.40684040850E-01  0.89587537808E-01  0.12793527619E+00  0.19918200772E-01 0.  0.
         14    1    1    2    0    0  0.14711300990E-01  0.20623867198E-02  0.18331412685E-01  0.23594840682E-01  0.00000000000E+00 0.  1.
     999901    1    3    3    0    0 -0.94018186327E-01  0.38621654130E-01 -0.10791895049E+00  0.89239988313E+00  0.88000000000E+00 0.  1.
        -11    1    4    4    0    0  0.32713054137E-01 -0.27527028953E-01  0.45758298722E-01  0.62625587877E-01  0.51100000000E-03 0. -1.
         11    1    4    4    0    0  0.46593831201E-01 -0.13157011897E-01  0.43829239086E-01  0.65309688315E-01  0.51100000000E-03 0.  1.
</event>
<event>
 8    1  0.1163913E+005  0.1043930E+01  0.7957747E-01            NaN
         13   -1    0    0    0    0  0.00000000000E+00  0.00000000000E+00  0.74505805969E-08  0.10566000000E+00  0.10566000000E+00 0. -1.
     999900   -1    0    0    0    0 -0.00000000000E+00 -0.00000000000E+00 -0.74505805969E-08  0.93827000000E+00  0.93827000000E+00 0.  1.
     999902    2    1    2    0    0  0.17289880570E-01  0.14823849518E-01  0.68346745102E-02  0.10201518743E+01  0.10198747214E+01 0.  0.
     999903    2    3    3    0    0 -0.10019647715E+00  0.78703267755E-01  0.17295190874E-01  0.12998725656E+00  0.19079435357E-01 0.  0.
         14    1    1    2    0    0 -0.17289880570E-01 -0.14823849518E-01 -0.68346745102E-02  0.23778125669E-01  0.00000000000E+00 0. -1.
     999901    1    3    3    0    0  0.11748635772E+00 -0.63879418236E-01 -0.10460516364E-01  0.89016461777E+00  0.88000000000E+00 0. -1.
        -11    1    4    4    0    0 -0.43836327580E-01  0.32459267923E-01  0.16811812651E-01  0.57079995230E-01  0.51100000000E-03 0. -1.
         11    1    4    4    0    0 -0.56360149566E-01  0.46243999832E-01  0.48337822258E-03  0.72907261333E-01  0.51100000000E-03 0.  1.
</event>
<event>
 7    1  0.1163913E+005  0.1043930E+01  0.7957747E-01            NaN
         13   -1    0    0    0    0  0.00000000000E+00  0.00000000000E+00  0.74505805969E-08  0.10566000000E+00  0.10566000000E+00 0.  1.
     999900   -1    0    0    0    0 -0.00000000000E+00 -0.00000000000E+00 -0.74505805969E-08  0.93827000000E+00  0.93827000000E+00 0.  1.
     999902    2    1    2    0    0 -0.71404796800E-02  0.23017794575E-01 -0.27481949184E-02  0.10196739102E+01  0.10193853664E+01 0.  0.
         14    1    1    2    0    0  0.71404796800E-02 -0.23017794575E-01  0.27481949184E-02  0.24256089802E-01  0.00000000000E+00 0.  1.
     999901    1    3    3    0    0 -0.10312752409E+00  0.40256207552E-01 -0.75890674999E-01  0.89017708520E+00  0.88000000000E+00 0. -1.
        -11    1    3    3    0    0  0.90402456075E-01 -0.84629769627E-02  0.48939241672E-01  0.10314812911E+00  0.51100000000E-03 0. -1.
         11    1    3    3    0    0  0.55845883325E-02 -0.87754360136E-02  0.24203238408E-01  0.26348695879E-01  0.51100000000E-03 0.  1.
</event>
<event>
 8    1  0.1163913E+005  0.1043930E+01  0.7957747E-01            NaN
         13   -1    0    0    0    0  0.00000000000E+00  0.00000000000E+00  0.74505805969E-08  0.10566000000E+00  0.10566000000E+00 0. -1.
     999900   -1    0    0    0    0 -0.00000000000E+00 -0.00000000000E+00 -0.74505805969E-08  0.93827000000E+00  0.93827000000E+00 0. -1.
     999902    2    1    2    0    0 -0.13512821047E-01  0.13746344696E-01  0.16817560445E-01  0.10183489784E+01  0.10180276289E+01 0.  0.
     999903    2    3    3    0    0  0.53405497629E-01 -0.94363285368E-01 -0.60912743613E-01  0.12582012531E+00  0.19072619011E-01 0.  0.
         14    1    1    2    0    0  0.13512821047E-01 -0.13746344696E-01 -0.16817560445E-01  0.25581021568E-01  0.00000000000E+00 0.  1.
     999901    1    3    3    0    0 -0.66918318676E-01  0.10810963006E+00  0.77730304058E-01  0.89252885312E+00  0.88000000000E+00 0.  1.
        -11    1    4    4    0    0  0.35512495466E-01 -0.77910292469E-01 -0.50172128658E-01  0.99240388058E-01  0.51100000000E-03 0.  1.
         11    1    4    4    0    0  0.17893002163E-01 -0.16452992899E-01 -0.10740614955E-01  0.26579737251E-01  0.51100000000E-03 0. -1.
</event>
<event>
 8    1  0.1163913E+005  0.1043930E+01  0.7957747E-01            NaN
         13   -1    0    0    0    0  0.00000000000E+00  0.00000000000E+00  0.74505805969E-08  0.10566000000E+00  0.10566000000E+00 0.  1.
     999900   -1    0    0    0    0 -0.00000000000E+00 -0.00000000000E+00 -0.74505805969E-08  0.93827000000E+00  0.93827000000E+00 0.  1.
     999902    2    1    2    0    0  0.16435162061E-01 -0.68984735066E-02  0.15011035114E-01  0.10206268958E+01  0.10203608312E+01 0.  0.
     999903    2    3    3    0    0 -0.18231389882E-02 -0.12629018135E+00  0.31966980227E-01  0.13221525164E+00  0.22504470684E-01 0.  0.
         14    1    1    2    0    0 -0.16435162061E-01  0.68984735066E-02 -0.15011035114E-01  0.23303104168E-01  0.00000000000E+00 0. -1.
     999901    1    3    3    0    0  0.18258301049E-01  0.11939170784E+00 -0.16955945113E-01  0.88841164419E+00  0.88000000000E+00 0. -1.
        -11    1    4    4    0    0 -0.10011394146E-01 -0.10489234371E+00  0.25782884177E-01  0.10847879987E+00  0.51100000000E-03 0.  1.
         11    1    4    4    0    0  0.81882551581E-02 -0.21397837634E-01  0.61840960501E-02  0.23736451776E-01  0.51100000000E-03 0. -1.
</event>
<event>
 8    1  0.1163913E+005  0.1043930E+01  0.7957747E-01            NaN
         13   -1    0    0    0    0  0.00000000000E+00  0.00000000000E+00  0.74505805969E-08  0.10566000000E+00  0.10566000000E+00 0. -1.
     999900   -1    0    0    0    0 -0.00000000000E+00 -0.00000000000E+00 -0.74505805969E-08  0.93827000000E+00  0.93827000000E+00 0. -1.
     999902    2    1    2    0    0  0.27533019736E-02  0.15760184325E-01 -0.16325392733E-01  0.10210721232E+01  0.10208162412E+01 0.  0.
     999903    2    3    3    0    0  0.46060952696E-01 -0.31364793166E-01 -0.11910730233E+00  0.13278138421E+00  0.18411542908E-01 0.  0.
         14    1    1    2    0    0 -0.27533019736E-02 -0.15760184325E-01  0.16325392733E-01  0.22857876752E-01  0.00000000000E+00 0.  1.
     999901    1    3    3    0    0 -0.43307650723E-01  0.47124977491E-01  0.10278190959E+00  0.88829073903E+00  0.88000000000E+00 0.  1.
        -11    1    4    4    0    0  0.25539050689E-01 -0.20656183565E-01 -0.49368350853E-01  0.59299377876E-01  0.51100000000E-03 0.  1.
         11    1    4    4    0    0  0.20521902007E-01 -0.10708609601E-01 -0.69738951475E-01  0.73482006337E-01  0.51100000000E-03 0. -1.
</event>
<event>
 8    1  0.1163913E+005  0.1043930E+01  0.7957747E-01            NaN
         13   -1    0    0    0    0  0.00000000000E+00  0.00000000000E+00  0.74505805969E-08  0.10566000000E+00  0.10566000000E+00 0. -1.
     999900   -1    0    0    0    0 -0.00000000000E+00 -0.00000000000E+00 -0.74505805969E-08  0.93827000000E+00  0.93827000000E+00 0. -1.
     999902    2    1    2    0    0  0.64228478522E-02  0.17095468826E-01  0.14651157730E-01  0.10205170879E+01  0.10202484807E+01 0.  0.
     999903    2    3    3    0    0  0.68140126419E-01 -0.48818201069E-01 -0.95974195407E-01  0.12900623375E+00  0.20131283596E-01 0.  0.
         14    1    1    2    0    0 -0.64228478522E-02 -0.17095468826E-01 -0.14651157730E-01  0.23412912073E-01  0.00000000000E+00 0.  1.
     999901    1    3    3    0    0 -0.61717278567E-01  0.65913669894E-01  0.11062535314E+00  0.89151085417E+00  0.88000000000E+00 0. -1.
        -11    1    4    4    0    0  0.38597639140E-01 -0.39170724641E-01 -0.57875007950E-01  0.79836715127E-01  0.51100000000E-03 0.  1.
         11    1    4    4    0    0  0.29542487279E-01 -0.96474764276E-02 -0.38099187457E-01  0.49169518626E-01  0.51100000000E-03 0. -1.
</event>
<event>
 8    1  0.1163913E+005  0.1043930E+01  0.7957747E-01            NaN
         13   -1    0    0    0    0  0.00000000000E+00  0.00000000000E+00  0.74505805969E-08  0.10566000000E+00  0.10566000000E+00 0. -1.
     999900   -1    0    0    0    0 -0.00000000000E+00 -0.00000000000E+00 -0.74505805969E-08  0.93827000000E+00  0.93827000000E+00 0.  1.
     999902    2    1    2    0    0  0.28751461989E-02  0.23163808669E-01 -0.14845165947E-02  0.10205412786E+01  0.10202732326E+01 0.  0.
     999903    2    3    3    0    0  0.48505116011E-02 -0.19343197551E-01 -0.12560942220E+00  0.13081225256E+00  0.30601171887E-01 0.  0.
         14    1    1    2    0    0 -0.28751461989E-02 -0.23163808669E-01  0.14845165947E-02  0.23388721368E-01  0.00000000000E+00 0.  1.
     999901    1    3    3    0    0 -0.19753654022E-02  0.42507006221E-01  0.12412490560E+00  0.88972902607E+00  0.88000000000E+00 0. -1.
        -11    1    4    4    0    0 -0.12706318344E-02 -0.22014171564E-01 -0.47002307426E-01  0.51920287743E-01  0.51100000000E-03 0. -1.
         11    1    4    4    0    0  0.61211434355E-02  0.26709740128E-02 -0.78607114769E-01  0.78891964816E-01  0.51100000000E-03 0.  1.
</event>
<event>
 8    1  0.1163913E+005  0.1043930E+01  0.7957747E-01            NaN
         13   -1    0    0    0    0  0.00000000000E+00  0.00000000000E+00  0.74505805969E-08  0.10566000000E+00  0.10566000000E+00 0.  1.
     999900   -1    0    0    0    0 -0.00000000000E+00 -0.00000000000E+00 -0.74505805969E-08  0.93827000000E+00  0.93827000000E+00 0.  1.
     999902    2    1    2    0    0  0.74118109068E-02 -0.18925865687E-01  0.14778716911E-01  0.10187996636E+01  0.10184896763E+01 0.  0.
     999903    2    3    3    0    0  0.18066981613E-01  0.39077859525E-01 -0.11761921918E+00  0.12694363360E+00  0.20661811714E-01 0.  0.
         14    1    1    2    0    0 -0.74118109068E-02  0.18925865687E-01 -0.14778716911E-01  0.25130336378E-01  0.00000000000E+00 0. -1.
     999901    1    3    3    0    0 -0.10655170706E-01 -0.58003725212E-01  0.13239793609E+00  0.89185603002E+00  0.88000000000E+00 0. -1.
        -11    1    4    4    0    0  0.11398177098E-01  0.37284863513E-01 -0.83859949128E-01  0.92481520732E-01  0.51100000000E-03 0.  1.
         11    1    4    4    0    0  0.66688045151E-02  0.17929960127E-02 -0.33759270048E-01  0.34462112871E-01  0.51100000000E-03 0. -1.
</event>
<event>
 8    1  0.1163913E+005  0.1043930E+01  0.7957747E-01            NaN
         13   -1    0    0    0    0  0.00000000000E+00  0.00000000000E+00  0.74505805969E-08  0.10566000000E+00  0.10566000000E+00 0.  1.
     999900   -1    0    0    0    0 -0.00000000000E+00 -0.00000000000E+00 -0.74505805969E-08  0.93827000000E+00  0.93827000000E+00 0.  1.
     999902    2    1    2    0    0  0.14343289788E-01 -0.10226815409E-01  0.16420375661E-01  0.10198479226E+01  0.10195635531E+01 0.  0.
     999903    2    3    3    0    0 -0.89107356347E-01 -0.62032473907E-01 -0.65892762217E-01  0.12846623381E+00  0.19327916120E-01 0.  0.
         14    1    1    2    0    0 -0.14343289788E-01  0.10226815409E-01 -0.16420375661E-01  0.24082077406E-01  0.00000000000E+00 0. -1.
     999901    1    3    3    0    0  0.10345064613E+00  0.51805658498E-01  0.82313137878E-01  0.89138168879E+00  0.88000000000E+00 0. -1.
        -11    1    4    4    0    0 -0.34642256708E-01 -0.16910675696E-01 -0.15174821309E-01  0.41431790029E-01  0.51100000000E-03 0.  1.
         11    1    4    4    0    0 -0.54465099640E-01 -0.45121798212E-01 -0.50717940908E-01  0.87034443777E-01  0.51100000000E-03 0. -1.
</event>
<event>
 8    1  0.1163913E+005  0.1043930E+01  0.7957747E-01            NaN
         13   -1    0    0    0    0  0.00000000000E+00  0.00000000000E+00  0.74505805969E-08  0.10566000000E+00  0.10566000000E+00 0. -1.
     999900   -1    0    0    0    0 -0.00000000000E+00 -0.00000000000E+00 -0.74505805969E-08  0.93827000000E+00  0.93827000000E+00 0. -1.
     999902    2    1    2    0    0  0.71897109216E-03  0.18597961137E-01 -0.16275630268E-01  0.10192055745E+01  0.10189056413E+01 0.  0.
     999903    2    3    3    0    0 -0.41474761333E-01 -0.91931889617E-01  0.73914641786E-01  0.12671947141E+00  0.20562636180E-01 0.  0.
         14    1    1    2    0    0 -0.71897109216E-03 -0.18597961137E-01  0.16275630268E-01  0.24724425545E-01  0.00000000000E+00 0. -1.
     999901    1    3    3    0    0  0.42193732425E-01  0.11052985075E+00 -0.90190272054E-01  0.89248610305E+00  0.88000000000E+00 0. -1.
        -11    1    4    4    0    0 -0.25281433882E-01 -0.39852897380E-01  0.24767861389E-01  0.53302086333E-01  0.51100000000E-03 0.  1.
         11    1    4    4    0    0 -0.16193327450E-01 -0.52078992238E-01  0.49146780397E-01  0.73417385072E-01  0.51100000000E-03 0. -1.
</event>
<event>
 8    1  0.1163913E+005  0.1043930E+01  0.7957747E-01            NaN
         13   -1    0    0    0    0  0.00000000000E+00  0.00000000000E+00  0.74505805969E-08  0.10566000000E+00  0.10566000000E+00 0.  1.
     999900   -1    0    0    0    0 -0.00000000000E+00 -0.00000000000E+00 -0.74505805969E-08  0.93827000000E+00  0.93827000000E+00 0.  1.
     999902    2    1    2    0    0 -0.16284826390E-01 -0.13311078562E-01  0.11060930367E-01  0.10201660659E+01  0.10198892476E+01 0.  0.
     999903    2    3    3    0    0 -0.11153004373E+00  0.24968701949E-01  0.64455063675E-01  0.13259188507E+00  0.19072651123E-01 0.  0.
         14    1    1    2    0    0  0.16284826390E-01  0.13311078562E-01 -0.11060930367E-01  0.23763934094E-01  0.00000000000E+00 0. -1.
     999901    1    3    3    0    0  0.95245217339E-01 -0.38279780511E-01 -0.53394133308E-01  0.88757418084E+00  0.88000000000E+00 0.  1.
        -11    1    4    4    0    0 -0.65024749125E-01  0.96081018615E-02  0.27583865235E-01  0.71285793553E-01  0.51100000000E-03 0.  1.
         11    1    4    4    0    0 -0.46505294604E-01  0.15360600088E-01  0.36871198440E-01  0.61306091513E-01  0.51100000000E-03 0. -1.
</event>
<event>
 8    1  0.1163913E+005  0.1043930E+01  0.7957747E-01            NaN
         13   -1    0    0    0    0  0.00000000000E+00  0.00000000000E+00  0.74505805969E-08  0.10566000000E+00  0.10566000000E+00 0.  1.
     999900   -1    0    0    0    0 -0.00000000000E+00 -0.00000000000E+00 -0.74505805969E-08  0.93827000000E+00  0.93827000000E+00 0. -1.
     999902    2    1    2    0    0 -0.12135399603E-01  0.12349855445E-01  0.15535471717E-01  0.10206676327E+01  0.10204025081E+01 0.  0.
     999903    2    3    3    0    0 -0.43025405625E-01 -0.11529968611E+00  0.38627726623E-01  0.13062165060E+00  0.20608522414E-01 0.  0.
         14    1    1    2    0    0  0.12135399603E-01 -0.12349855445E-01 -0.15535471717E-01  0.23262367345E-01  0.00000000000E+00 0. -1.
     999901    1    3    3    0    0  0.30890006022E-01  0.12764954155E+00 -0.23092254905E-01  0.89004598205E+00  0.88000000000E+00 0. -1.
        -11    1    4    4    0    0 -0.84129618617E-02 -0.49536044613E-01  0.19343278586E-01  0.53842559288E-01  0.51100000000E-03 0.  1.
         11    1    4    4    0    0 -0.34612443763E-01 -0.65763641495E-01  0.19284448036E-01  0.76779091314E-01  0.51100000000E-03 0. -1.
</event>
<event>
 8    1  0.1163913E+005  0.1043930E+01  0.7957747E-01            NaN
         13   -1    0    0    0    0  0.00000000000E+00  0.00000000000E+00  0.74505805969E-08  0.10566000000E+00  0.10566000000E+00 0.  1.
     999900   -1    0    0    0    0 -0.00000000000E+00 -0.00000000000E+00 -0.74505805969E-08  0.93827000000E+00  0.93827000000E+00 0. -1.
     999902    2    1    2    0    0  0.12653296672E-01 -0.59775744391E-02  0.21227024280E-01  0.10185051328E+01  0.10181877438E+01 0.  0.
     999903    2    3    3    0    0 -0.10183960118E-01  0.12081103959E+00  0.39503438076E-01  0.12893730500E+00  0.19112474208E-01 0.  0.
         14    1    1    2    0    0 -0.12653296672E-01  0.59775744391E-02 -0.21227024280E-01  0.25424867210E-01  0.00000000000E+00 0. -1.
     999901    1    3    3    0    0  0.22837256790E-01 -0.12678861402E+00 -0.18276413796E-01  0.88956782779E+00  0.88000000000E+00 0. -1.
        -11    1    4    4    0    0  0.28026213454E-02  0.43040744163E-01  0.20861519559E-01  0.47914762483E-01  0.51100000000E-03 0. -1.
         11    1    4    4    0    0 -0.12986581464E-01  0.77770295423E-01  0.18641918517E-01  0.81022542513E-01  0.51100000000E-03 0.  1.
</event>
