<event>
 8    1  0.1084146E+005  0.1043930E+01  0.7957747E-01            NaN
         13   -1    0    0    0    0  0.00000000000E+00  0.00000000000E+00  0.74505805969E-08  0.10566000000E+00  0.10566000000E+00 0. -1.
     999900   -1    0    0    0    0 -0.00000000000E+00 -0.00000000000E+00 -0.74505805969E-08  0.93827000000E+00  0.93827000000E+00 0.  1.
     999902    2    1    2    0    0 -0.12978114714E-01  0.19315696230E-01  0.67318693313E-02  0.10197051027E+01  0.10194173095E+01 0.  0.
     999903    2    3    3    0    0 -0.44180537134E-01  0.27678857958E-01 -0.11805041643E+00  0.13031533865E+00  0.18114845528E-01 0.  0.
         14    1    1    2    0    0  0.12978114714E-01 -0.19315696230E-01 -0.67318693313E-02  0.24224897256E-01  0.00000000000E+00 0.  1.
     999901    1    3    3    0    0  0.31202422420E-01 -0.83631617285E-02  0.12478228576E+00  0.88938976410E+00  0.88000000000E+00 0. -1.
        -11    1    4    4    0    0 -0.22895459320E-01  0.24588750409E-01 -0.68591177644E-01  0.76379444066E-01  0.51100000000E-03 0.  1.
         11    1    4    4    0    0 -0.21285077814E-01  0.30901075493E-02 -0.49459238785E-01  0.53935894583E-01  0.51100000000E-03 0. -1.
</event>
<event>
 8    1  0.1084146E+005  0.1043930E+01  0.7957747E-01            NaN
         13   -1    0    0    0    0  0.00000000000E+00  0.00000000000E+00  0.74505805969E-08  0.10566000000E+00  0.10566000000E+00 0.  1.
     999900   -1    0    0    0    0 -0.00000000000E+00 -0.00000000000E+00 -0.74505805969E-08  0.93827000000E+00  0.93827000000E+00 0. -1.
     999902    2    1    2    0    0  0.68315399783E-02  0.57871974991E-02 -0.20502057404E-01  0.10215582332E+01  0.10213132369E+01 0.  0.
     999903    2    3    3    0    0  0.23079419962E-02 -0.10447269902E+00 -0.79848982440E-01  0.13268267088E+00  0.17577250010E-01 0.  0.
         14    1    1    2    0    0 -0.68315399783E-02 -0.57871974991E-02  0.20502057404E-01  0.22371766832E-01  0.00000000000E+00 0.  1.
     999901    1    3    3    0    0  0.45235979822E-02  0.11025989652E+00  0.59346925036E-01  0.88887556229E+00  0.88000000000E+00 0.  1.
        -11    1    4    4    0    0 -0.29576243235E-02 -0.43212189304E-01 -0.23502910573E-01  0.49281728587E-01  0.51100000000E-03 0. -1.
         11    1    4    4    0    0  0.52655663197E-02 -0.61260509719E-01 -0.56346071867E-01  0.83400942294E-01  0.51100000000E-03 0.  1.
</event>
<event>
 8    1  0.1084146E+005  0.1043930E+01  0.7957747E-01            NaN
         13   -1    0    0    0    0  0.00000000000E+00  0.00000000000E+00  0.74505805969E-08  0.10566000000E+00  0.10566000000E+00 0.  1.
     999900   -1    0    0    0    0 -0.00000000000E+00 -0.00000000000E+00 -0.74505805969E-08  0.93827000000E+00  0.93827000000E+00 0. -1.
     999902    2    1    2    0    0 -0.10116475972E-01 -0.16655477032E-02 -0.21209800163E-01  0.10203721402E+01  0.10201001577E+01 0.  0.
     999903    2    3    3    0    0 -0.99842442603E-02  0.11164598644E+00  0.61120894497E-01  0.12929533962E+00  0.20420814921E-01 0.  0.
         14    1    1    2    0    0  0.10116475972E-01  0.16655477032E-02  0.21209800163E-01  0.23557859797E-01  0.00000000000E+00 0.  1.
     999901    1    3    3    0    0 -0.13223171127E-03 -0.11331153414E+00 -0.82330694661E-01  0.89107680058E+00  0.88000000000E+00 0. -1.
        -11    1    4    4    0    0 -0.49756840254E-02  0.53806835801E-01  0.41063422518E-01  0.67870456020E-01  0.51100000000E-03 0. -1.
         11    1    4    4    0    0 -0.50085602349E-02  0.57839150637E-01  0.20057471979E-01  0.61424883600E-01  0.51100000000E-03 0.  1.
</event>
<event>
 8    1  0.1084146E+005  0.1043930E+01  0.7957747E-01            NaN
         13   -1    0    0    0    0  0.00000000000E+00  0.00000000000E+00  0.74505805969E-08  0.10566000000E+00  0.10566000000E+00 0.  1.
     999900   -1    0    0    0    0 -0.00000000000E+00 -0.00000000000E+00 -0.74505805969E-08  0.93827000000E+00  0.93827000000E+00 0. -1.
     999902    2    1    2    0    0  0.16434252062E-01  0.60574658570E-02 -0.15676625129E-01  0.10204239559E+01  0.10201531825E+01 0.  0.
     999903    2    3    3    0    0  0.97739548042E-01 -0.72903333165E-01 -0.47918095929E-01  0.13256987365E+00  0.20266036733E-01 0.  0.
         14    1    1    2    0    0 -0.16434252062E-01 -0.60574658570E-02  0.15676625129E-01  0.23506044093E-01  0.00000000000E+00 0.  1.
     999901    1    3    3    0    0 -0.81305295981E-01  0.78960799022E-01  0.32241470799E-01  0.88785408225E+00  0.88000000000E+00 0. -1.
        -11    1    4    4    0    0  0.33306866532E-01 -0.19900133214E-01 -0.62239105979E-02  0.39298356762E-01  0.51100000000E-03 0.  1.
         11    1    4    4    0    0  0.64432681511E-01 -0.53003199951E-01 -0.41694185331E-01  0.93271516891E-01  0.51100000000E-03 0. -1.
</event>
<event>
 8    1  0.1084146E+005  0.1043930E+01  0.7957747E-01            NaN
         13   -1    0    0    0    0  0.00000000000E+00  0.00000000000E+00  0.74505805969E-08  0.10566000000E+00  0.10566000000E+00 0.  1.
     999900   -1    0    0    0    0 -0.00000000000E+00 -0.00000000000E+00 -0.74505805969E-08  0.93827000000E+00  0.93827000000E+00 0. -1.
     999902    2    1    2    0    0 -0.13273260406E-01  0.12128494662E-01  0.14189342753E-01  0.10210254749E+01  0.10207685355E+01 0.  0.
     999903    2    3    3    0    0 -0.10366003018E+00  0.81651696728E-01 -0.40264872485E-02  0.13348107583E+00  0.19712523132E-01 0.  0.
         14    1    1    2    0    0  0.13273260406E-01 -0.12128494662E-01 -0.14189342753E-01  0.22904525150E-01  0.00000000000E+00 0. -1.
     999901    1    3    3    0    0  0.90386769776E-01 -0.69523202066E-01  0.18215830001E-01  0.88754439902E+00  0.88000000000E+00 0.  1.
        -11    1    4    4    0    0 -0.28526292818E-01  0.30467469326E-01  0.53665781559E-02  0.42084169841E-01  0.51100000000E-03 0.  1.
         11    1    4    4    0    0 -0.75133737364E-01  0.51184227402E-01 -0.93930654044E-02  0.91396905985E-01  0.51100000000E-03 0. -1.
</event>
<event>
 8    1  0.1084146E+005  0.1043930E+01  0.7957747E-01            NaN
         13   -1    0    0    0    0  0.00000000000E+00  0.00000000000E+00  0.74505805969E-08  0.10566000000E+00  0.10566000000E+00 0.  1.
     999900   -1    0    0    0    0 -0.00000000000E+00 -0.00000000000E+00 -0.74505805969E-08  0.93827000000E+00  0.93827000000E+00 0.  1.
     999902    2    1    2    0    0 -0.11868039935E-01 -0.19924276500E-01 -0.60947513686E-02  0.10199514020E+01  0.10196695001E+01 0.  0.
     999903    2    3    3    0    0 -0.24746463771E-01  0.63184347501E-01 -0.10907331024E+00  0.12996405338E+00  0.19723562719E-01 0.  0.
         14    1    1    2    0    0  0.11868039935E-01  0.19924276500E-01  0.60947513686E-02  0.23978597961E-01  0.00000000000E+00 0.  1.
     999901    1    3    3    0    0  0.12878423836E-01 -0.83108624001E-01  0.10297855887E+00  0.88998734866E+00  0.88000000000E+00 0. -1.
        -11    1    4    4    0    0 -0.93008647270E-02  0.45417077950E-01 -0.80925004004E-01  0.93264861809E-01  0.51100000000E-03 0. -1.
         11    1    4    4    0    0 -0.15445599044E-01  0.17767269550E-01 -0.28148306236E-01  0.36699191572E-01  0.51100000000E-03 0.  1.
</event>
<event>
 8    1  0.1084146E+005  0.1043930E+01  0.7957747E-01            NaN
         13   -1    0    0    0    0  0.00000000000E+00  0.00000000000E+00  0.74505805969E-08  0.10566000000E+00  0.10566000000E+00 0.  1.
     999900   -1    0    0    0    0 -0.00000000000E+00 -0.00000000000E+00 -0.74505805969E-08  0.93827000000E+00  0.93827000000E+00 0. -1.
     999902    2    1    2    0    0  0.24310733887E-01  0.14874259528E-02 -0.20543143872E-02  0.10194873237E+01  0.10191942694E+01 0.  0.
     999903    2    3    3    0    0 -0.10663283227E+00  0.25226910757E-01 -0.61854117319E-01  0.12747510567E+00  0.20420891028E-01 0.  0.
         14    1    1    2    0    0 -0.24310733887E-01 -0.14874259528E-02  0.20543143872E-02  0.24442676320E-01  0.00000000000E+00 0. -1.
     999901    1    3    3    0    0  0.13094356616E+00 -0.23739484804E-01  0.59799802931E-01  0.89201221801E+00  0.88000000000E+00 0.  1.
        -11    1    4    4    0    0 -0.34804182384E-01  0.17725324716E-01 -0.18279356044E-01  0.43126722876E-01  0.51100000000E-03 0. -1.
         11    1    4    4    0    0 -0.71828649889E-01  0.75015860412E-02 -0.43574761275E-01  0.84348382789E-01  0.51100000000E-03 0.  1.
</event>
<event>
 8    1  0.1084146E+005  0.1043930E+01  0.7957747E-01            NaN
         13   -1    0    0    0    0  0.00000000000E+00  0.00000000000E+00  0.74505805969E-08  0.10566000000E+00  0.10566000000E+00 0. -1.
     999900   -1    0    0    0    0 -0.00000000000E+00 -0.00000000000E+00 -0.74505805969E-08  0.93827000000E+00  0.93827000000E+00 0.  1.
     999902    2    1    2    0    0  0.17747261511E-01 -0.53761982967E-02  0.14526731400E-01  0.10203737965E+01  0.10201018527E+01 0.  0.
     999903    2    3    3    0    0  0.62418147310E-01  0.10912925740E+00  0.33240279108E-01  0.13163469849E+00  0.20434230017E-01 0.  0.
         14    1    1    2    0    0 -0.17747261511E-01  0.53761982967E-02 -0.14526731400E-01  0.23556203523E-01  0.00000000000E+00 0.  1.
     999901    1    3    3    0    0 -0.44670885799E-01 -0.11450545570E+00 -0.18713547708E-01  0.88873909799E+00  0.88000000000E+00 0. -1.
        -11    1    4    4    0    0  0.14916097520E-01  0.32790674272E-01  0.76075884261E-03  0.36035512476E-01  0.51100000000E-03 0. -1.
         11    1    4    4    0    0  0.47502049790E-01  0.76338583131E-01  0.32479520265E-01  0.95599186013E-01  0.51100000000E-03 0.  1.
</event>
<event>
 8    1  0.1084146E+005  0.1043930E+01  0.7957747E-01            NaN
         13   -1    0    0    0    0  0.00000000000E+00  0.00000000000E+00  0.74505805969E-08  0.10566000000E+00  0.10566000000E+00 0.  1.
     999900   -1    0    0    0    0 -0.00000000000E+00 -0.00000000000E+00 -0.74505805969E-08  0.93827000000E+00  0.93827000000E+00 0. -1.
     999902    2    1    2    0    0  0.27924864365E-02  0.24718855496E-01  0.58487682937E-02  0.10183755897E+01  0.10180549168E+01 0.  0.
     999903    2    3    3    0    0 -0.60249156332E-01 -0.91274363062E-01 -0.59668744689E-01  0.12611933724E+00  0.19615247661E-01 0.  0.
         14    1    1    2    0    0 -0.27924864365E-02 -0.24718855496E-01 -0.58487682937E-02  0.25554410345E-01  0.00000000000E+00 0. -1.
     999901    1    3    3    0    0  0.63041642769E-01  0.11599321856E+00  0.65517512982E-01  0.89225625242E+00  0.88000000000E+00 0.  1.
        -11    1    4    4    0    0 -0.18810126379E-02 -0.35301685639E-02 -0.75288735796E-02  0.85408054076E-02  0.51100000000E-03 0. -1.
         11    1    4    4    0    0 -0.58368143694E-01 -0.87744194498E-01 -0.52139871109E-01  0.11757853183E+00  0.51100000000E-03 0.  1.
</event>
<event>
 8    1  0.1084146E+005  0.1043930E+01  0.7957747E-01            NaN
         13   -1    0    0    0    0  0.00000000000E+00  0.00000000000E+00  0.74505805969E-08  0.10566000000E+00  0.10566000000E+00 0. -1.
     999900   -1    0    0    0    0 -0.00000000000E+00 -0.00000000000E+00 -0.74505805969E-08  0.93827000000E+00  0.93827000000E+00 0. -1.
     999902    2    1    2    0    0  0.46693255997E-02 -0.42779657966E-02 -0.22760867462E-01  0.10203045755E+01  0.10200310124E+01 0.  0.
     999903    2    3    3    0    0  0.47721121797E-01  0.34410225555E-01 -0.11781348090E+00  0.13329542530E+00  0.20646671298E-01 0.  0.
         14    1    1    2    0    0 -0.46693255997E-02  0.42779657966E-02  0.22760867462E-01  0.23625424452E-01  0.00000000000E+00 0. -1.
     999901    1    3    3    0    0 -0.43051796197E-01 -0.38688191352E-01  0.95052613436E-01  0.88700915025E+00  0.88000000000E+00 0.  1.
        -11    1    4    4    0    0  0.43457121500E-01  0.37199121339E-01 -0.10911598799E+00  0.12320249995E+00  0.51100000000E-03 0.  1.
         11    1    4    4    0    0  0.42640002974E-02 -0.27888957838E-02 -0.86974929050E-02  0.10092925347E-01  0.51100000000E-03 0. -1.
</event>
<event>
 8    1  0.1084146E+005  0.1043930E+01  0.7957747E-01            NaN
         13   -1    0    0    0    0  0.00000000000E+00  0.00000000000E+00  0.74505805969E-08  0.10566000000E+00  0.10566000000E+00 0.  1.
     999900   -1    0    0    0    0 -0.00000000000E+00 -0.00000000000E+00 -0.74505805969E-08  0.93827000000E+00  0.93827000000E+00 0. -1.
     999902    2    1    2    0    0  0.11830203918E-01  0.70111615439E-02 -0.19338308989E-01  0.10202006868E+01  0.10199246840E+01 0.  0.
     999903    2    3    3    0    0  0.11138085161E+00 -0.60403226691E-01  0.25564576310E-01  0.13089123541E+00  0.20608834185E-01 0.  0.
         14    1    1    2    0    0 -0.11830203918E-01 -0.70111615439E-02  0.19338308989E-01  0.23729313211E-01  0.00000000000E+00 0.  1.
     999901    1    3    3    0    0 -0.99550647691E-01  0.67414388235E-01 -0.44902885299E-01  0.88930945137E+00  0.88000000000E+00 0.  1.
        -11    1    4    4    0    0  0.44210719765E-01 -0.24345030821E-01  0.20524328551E-01  0.54486488704E-01  0.51100000000E-03 0. -1.
         11    1    4    4    0    0  0.67170131843E-01 -0.36058195870E-01  0.50402477582E-02  0.76404746709E-01  0.51100000000E-03 0.  1.
</event>
<event>
 7    1  0.1669975E+005  0.1043930E+01  0.7957747E-01            NaN
         13   -1    0    0    0    0  0.00000000000E+00  0.00000000000E+00  0.74505805969E-08  0.10566000000E+00  0.10566000000E+00 0. -1.
     999900   -1    0    0    0    0 -0.00000000000E+00 -0.00000000000E+00 -0.74505805969E-08  0.93827000000E+00  0.93827000000E+00 0.  1.
     999903    2    1    2    0    0  0.24842664782E-01  0.40262213733E-01  0.93510092997E-01  0.10677077219E+00  0.20436644895E-01 0.  0.
         14    1    1    2    0    0 -0.31161978617E-01  0.14975706600E-01  0.31272808327E-01  0.46618979398E-01  0.00000000000E+00 0. -1.
     999901    1    1    2    0    0  0.63193138341E-02 -0.55237920333E-01 -0.12478290132E+00  0.89054024841E+00  0.88000000000E+00 0.  1.
        -11    1    3    3    0    0  0.23794574852E-01  0.36290007800E-01  0.66255252582E-01  0.79203321106E-01  0.51100000000E-03 0.  1.
         11    1    3    3    0    0  0.10480899304E-02  0.39722059331E-02  0.27254840415E-01  0.27567451089E-01  0.51100000000E-03 0. -1.
</event>
<event>
 8    1  0.1084146E+005  0.1043930E+01  0.7957747E-01            NaN
         13   -1    0    0    0    0  0.00000000000E+00  0.00000000000E+00  0.74505805969E-08  0.10566000000E+00  0.10566000000E+00 0. -1.
     999900   -1    0    0    0    0 -0.00000000000E+00 -0.00000000000E+00 -0.74505805969E-08  0.93827000000E+00  0.93827000000E+00 0.  1.
     999902    2    1    2    0    0  0.18555744023E-01  0.12803368489E-01 -0.89903554903E-02  0.10196592692E+01  0.10193703728E+01 0.  0.
     999903    2    3    3    0    0 -0.54421212307E-01  0.16634358816E-01  0.11391635079E+00  0.12811769919E+00  0.14101050546E-01 0.  0.
         14    1    1    2    0    0 -0.18555744023E-01 -0.12803368489E-01  0.89903554903E-02  0.24270730783E-01  0.00000000000E+00 0.  1.
     999901    1    3    3    0    0  0.72976956329E-01 -0.38309903274E-02 -0.12290670628E+00  0.89154157003E+00  0.88000000000E+00 0.  1.
        -11    1    4    4    0    0 -0.32061722725E-01  0.14963569961E-01  0.79750969272E-01  0.87248728993E-01  0.51100000000E-03 0.  1.
         11    1    4    4    0    0 -0.22359489582E-01  0.16707888550E-02  0.34165381515E-01  0.40868970195E-01  0.51100000000E-03 0. -1.
</event>
<event>
 8    1  0.1084146E+005  0.1043930E+01  0.7957747E-01            NaN
         13   -1    0    0    0    0  0.00000000000E+00  0.00000000000E+00  0.74505805969E-08  0.10566000000E+00  0.10566000000E+00 0.  1.
     999900   -1    0    0    0    0 -0.00000000000E+00 -0.00000000000E+00 -0.74505805969E-08  0.93827000000E+00  0.93827000000E+00 0.  1.
     999902    2    1    2    0    0 -0.47630698956E-02 -0.24514900089E-02 -0.23525021431E-01  0.10198027691E+01  0.10195173194E+01 0.  0.
     999903    2    3    3    0    0 -0.95306435330E-01 -0.28816354593E-01 -0.85314905002E-01  0.13260989444E+00  0.19825543668E-01 0.  0.
         14    1    1    2    0    0  0.47630698956E-02  0.24514900089E-02  0.23525021431E-01  0.24127230911E-01  0.00000000000E+00 0.  1.
     999901    1    3    3    0    0  0.90543365434E-01  0.26364864584E-01  0.61789883571E-01  0.88719287464E+00  0.88000000000E+00 0. -1.
        -11    1    4    4    0    0 -0.56899481917E-01 -0.12533416653E-01 -0.60845789434E-01  0.84244339800E-01  0.51100000000E-03 0. -1.
         11    1    4    4    0    0 -0.38406953413E-01 -0.16282937940E-01 -0.24469115568E-01  0.48365554644E-01  0.51100000000E-03 0.  1.
</event>
<event>
 8    1  0.1084146E+005  0.1043930E+01  0.7957747E-01            NaN
         13   -1    0    0    0    0  0.00000000000E+00  0.00000000000E+00  0.74505805969E-08  0.10566000000E+00  0.10566000000E+00 0.  1.
     999900   -1    0    0    0    0 -0.00000000000E+00 -0.00000000000E+00 -0.74505805969E-08  0.93827000000E+00  0.93827000000E+00 0.  1.
     999902    2    1    2    0    0 -0.20676224141E-02 -0.28222626394E-01 -0.42321786581E-02  0.10153170128E+01  0.10149137566E+01 0.  0.
     999903    2    3    3    0    0  0.12301686284E+00 -0.97962553565E-02 -0.17124024468E-01  0.12618718011E+00  0.20021414775E-01 0.  0.
         14    1    1    2    0    0  0.20676224141E-02  0.28222626394E-01  0.42321786581E-02  0.28612987247E-01  0.00000000000E+00 0.  1.
     999901    1    3    3    0    0 -0.12508448525E+00 -0.18426371038E-01  0.12891845810E-01  0.88912983264E+00  0.88000000000E+00 0.  1.
        -11    1    4    4    0    0  0.50027167665E-01 -0.10700207397E-01 -0.14357645383E-01  0.53137698905E-01  0.51100000000E-03 0. -1.
         11    1    4    4    0    0  0.72989695172E-01  0.90395204016E-03 -0.27663790850E-02  0.73049481209E-01  0.51100000000E-03 0.  1.
</event>
<event>
 8    1  0.1084146E+005  0.1043930E+01  0.7957747E-01            NaN
         13   -1    0    0    0    0  0.00000000000E+00  0.00000000000E+00  0.74505805969E-08  0.10566000000E+00  0.10566000000E+00 0. -1.
     999900   -1    0    0    0    0 -0.00000000000E+00 -0.00000000000E+00 -0.74505805969E-08  0.93827000000E+00  0.93827000000E+00 0. -1.
     999902    2    1    2    0    0 -0.19931367630E-01  0.39027075890E-02  0.13354718031E-01  0.10196228193E+01  0.10193330440E+01 0.  0.
     999903    2    3    3    0    0  0.54235158827E-01  0.55303571420E-01 -0.99733136540E-01  0.12780916983E+00  0.19711618487E-01 0.  0.
         14    1    1    2    0    0  0.19931367630E-01 -0.39027075890E-02 -0.13354718031E-01  0.24307180746E-01  0.00000000000E+00 0.  1.
     999901    1    3    3    0    0 -0.74166526457E-01 -0.51400863831E-01  0.11308785457E+00  0.89181364943E+00  0.88000000000E+00 0.  1.
        -11    1    4    4    0    0  0.47017706104E-01  0.44364946998E-01 -0.69849184633E-01  0.95173961377E-01  0.51100000000E-03 0.  1.
         11    1    4    4    0    0  0.72174527229E-02  0.10938624422E-01 -0.29883951908E-01  0.32635208452E-01  0.51100000000E-03 0. -1.
</event>
<event>
 8    1  0.1084146E+005  0.1043930E+01  0.7957747E-01            NaN
         13   -1    0    0    0    0  0.00000000000E+00  0.00000000000E+00  0.74505805969E-08  0.10566000000E+00  0.10566000000E+00 0.  1.
     999900   -1    0    0    0    0 -0.00000000000E+00 -0.00000000000E+00 -0.74505805969E-08  0.93827000000E+00  0.93827000000E+00 0. -1.
     999902    2    1    2    0    0  0.93978078346E-02 -0.14374267133E-01  0.15753339941E-01  0.10206253638E+01  0.10203592638E+01 0.  0.
     999903    2    3    3    0    0  0.36503907646E-01 -0.45340476506E-01  0.11856708184E+00  0.13368437803E+00  0.20617127577E-01 0.  0.
         14    1    1    2    0    0 -0.93978078346E-02  0.14374267133E-01 -0.15753339941E-01  0.23304636170E-01  0.00000000000E+00 0. -1.
     999901    1    3    3    0    0 -0.27106099812E-01  0.30966209373E-01 -0.10281374190E+00  0.88694098580E+00  0.88000000000E+00 0. -1.
        -11    1    4    4    0    0  0.21304849244E-01 -0.10816146927E-01  0.41838691119E-01  0.48183221470E-01  0.51100000000E-03 0.  1.
         11    1    4    4    0    0  0.15199058402E-01 -0.34524329580E-01  0.76728390722E-01  0.85501156559E-01  0.51100000000E-03 0. -1.
</event>
<event>
 7    1  0.1084146E+005  0.1043930E+01  0.7957747E-01            NaN
         13   -1    0    0    0    0  0.00000000000E+00  0.00000000000E+00  0.74505805969E-08  0.10566000000E+00  0.10566000000E+00 0.  1.
     999900   -1    0    0    0    0 -0.00000000000E+00 -0.00000000000E+00 -0.74505805969E-08  0.93827000000E+00  0.93827000000E+00 0. -1.
     999903    2    1    2    0    0 -0.81434617420E-01 -0.42915079722E-01 -0.62397376454E-01  0.11293293647E+00  0.19675227286E-01 0.  0.
         14    1    1    2    0    0 -0.12279754910E-01  0.41869511948E-02  0.43050418759E-01  0.44962890212E-01  0.00000000000E+00 0.  1.
     999901    1    1    2    0    0  0.93714372330E-01  0.38728128527E-01  0.19346957696E-01  0.88603417332E+00  0.88000000000E+00 0.  1.
        -11    1    3    3    0    0 -0.26294162255E-01 -0.20319783599E-01 -0.13596544124E-01  0.35908267952E-01  0.51100000000E-03 0.  1.
         11    1    3    3    0    0 -0.55140455166E-01 -0.22595296122E-01 -0.48800832330E-01  0.77024668515E-01  0.51100000000E-03 0. -1.
</event>
<event>
 8    1  0.1084146E+005  0.1043930E+01  0.7957747E-01            NaN
         13   -1    0    0    0    0  0.00000000000E+00  0.00000000000E+00  0.74505805969E-08  0.10566000000E+00  0.10566000000E+00 0.  1.
     999900   -1    0    0    0    0 -0.00000000000E+00 -0.00000000000E+00 -0.74505805969E-08  0.93827000000E+00  0.93827000000E+00 0.  1.
     999902    2    1    2    0    0  0.19492248068E-01  0.15466245909E-01  0.55657124580E-02  0.10184323599E+01  0.10181131283E+01 0.  0.
     999903    2    3    3    0    0  0.66306870347E-01  0.15495262552E-01 -0.10893613644E+00  0.12978041276E+00  0.18416554917E-01 0.  0.
         14    1    1    2    0    0 -0.19492248068E-01 -0.15466245909E-01 -0.55657124580E-02  0.25497640134E-01  0.00000000000E+00 0. -1.
     999901    1    3    3    0    0 -0.46814622279E-01 -0.29016643580E-04  0.11450184890E+00  0.88865194711E+00  0.88000000000E+00 0. -1.
        -11    1    4    4    0    0  0.25966650021E-01  0.61568028786E-02 -0.26954638794E-01  0.37933979603E-01  0.51100000000E-03 0.  1.
         11    1    4    4    0    0  0.40340220325E-01  0.93384596738E-02 -0.81981497649E-01  0.91846433152E-01  0.51100000000E-03 0. -1.
</event>
<event>
 8    1  0.1084146E+005  0.1043930E+01  0.7957747E-01            NaN
         13   -1    0    0    0    0  0.00000000000E+00  0.00000000000E+00  0.74505805969E-08  0.10566000000E+00  0.10566000000E+00 0.  1.
     999900   -1    0    0    0    0 -0.00000000000E+00 -0.00000000000E+00 -0.74505805969E-08  0.93827000000E+00  0.93827000000E+00 0.  1.
     999902    2    1    2    0    0 -0.53139746997E-02 -0.10530670060E-01 -0.21129786225E-01  0.10197308016E+01  0.10194436259E+01 0.  0.
     999903    2    3    3    0    0 -0.11468028019E+00 -0.58774946688E-01  0.11979150096E-01  0.13103248342E+00  0.20492697542E-01 0.  0.
         14    1    1    2    0    0  0.53139746997E-02  0.10530670060E-01  0.21129786225E-01  0.24199198436E-01  0.00000000000E+00 0. -1.
     999901    1    3    3    0    0  0.10936630549E+00  0.48244276629E-01 -0.33108936321E-01  0.88869831814E+00  0.88000000000E+00 0. -1.
        -11    1    4    4    0    0 -0.40897491621E-01 -0.30406246047E-01 -0.71330674565E-03  0.50969741485E-01  0.51100000000E-03 0.  1.
         11    1    4    4    0    0 -0.73782788567E-01 -0.28368700642E-01  0.12692456841E-01  0.80062741937E-01  0.51100000000E-03 0. -1.
</event>
<event>
 8    1  0.1084146E+005  0.1043930E+01  0.7957747E-01            NaN
         13   -1    0    0    0    0  0.00000000000E+00  0.00000000000E+00  0.74505805969E-08  0.10566000000E+00  0.10566000000E+00 0.  1.
     999900   -1    0    0    0    0 -0.00000000000E+00 -0.00000000000E+00 -0.74505805969E-08  0.93827000000E+00  0.93827000000E+00 0. -1.
     999902    2    1    2    0    0 -0.20320846565E-02 -0.12405939567E-01  0.20842293280E-01  0.10195899529E+01  0.10192993839E+01 0.  0.
     999903    2    3    3    0    0 -0.60352477744E-01 -0.30576813803E-01  0.11235274627E+00  0.13273843660E+00  0.20469241406E-01 0.  0.
         14    1    1    2    0    0  0.20320846565E-02  0.12405939567E-01 -0.20842293280E-01  0.24340047120E-01  0.00000000000E+00 0. -1.
     999901    1    3    3    0    0  0.58320393087E-01  0.18170874236E-01 -0.91510452994E-01  0.88685151628E+00  0.88000000000E+00 0. -1.
        -11    1    4    4    0    0 -0.57875891891E-01 -0.33455156219E-01  0.10648451526E+00  0.12573018513E+00  0.51100000000E-03 0. -1.
         11    1    4    4    0    0 -0.24765858530E-02  0.28783424155E-02  0.58682310094E-02  0.70082514744E-02  0.51100000000E-03 0.  1.
</event>
<event>
 8    1  0.1084146E+005  0.1043930E+01  0.7957747E-01            NaN
         13   -1    0    0    0    0  0.00000000000E+00  0.00000000000E+00  0.74505805969E-08  0.10566000000E+00  0.10566000000E+00 0.  1.
     999900   -1    0    0    0    0 -0.00000000000E+00 -0.00000000000E+00 -0.74505805969E-08  0.93827000000E+00  0.93827000000E+00 0.  1.
     999902    2    1    2    0    0 -0.20279862465E-01 -0.12287582458E-01 -0.44539301785E-02  0.10198033550E+01  0.10195179194E+01 0.  0.
     999903    2    3    3    0    0  0.11726729635E+00 -0.39919913761E-01 -0.27776842721E-01  0.12838497688E+00  0.19129322712E-01 0.  0.
         14    1    1    2    0    0  0.20279862465E-01  0.12287582458E-01  0.44539301785E-02  0.24126644986E-01  0.00000000000E+00 0.  1.
     999901    1    3    3    0    0 -0.13754715882E+00  0.27632331303E-01  0.23322912542E-01  0.89141837814E+00  0.88000000000E+00 0.  1.
        -11    1    4    4    0    0  0.72246941868E-01 -0.17129402090E-01 -0.10201568955E-01  0.74949117108E-01  0.51100000000E-03 0.  1.
         11    1    4    4    0    0  0.45020354485E-01 -0.22790511671E-01 -0.17575273766E-01  0.53435859768E-01  0.51100000000E-03 0. -1.
</event>
<event>
 8    1  0.1084146E+005  0.1043930E+01  0.7957747E-01            NaN
         13   -1    0    0    0    0  0.00000000000E+00  0.00000000000E+00  0.74505805969E-08  0.10566000000E+00  0.10566000000E+00 0.  1.
     999900   -1    0    0    0    0 -0.00000000000E+00 -0.00000000000E+00 -0.74505805969E-08  0.93827000000E+00  0.93827000000E+00 0.  1.
     999902    2    1    2    0    0 -0.19687566676E-02  0.32779030922E-02 -0.24531312450E-01  0.10191024761E+01  0.10188000053E+01 0.  0.
     999903    2    3    3    0    0  0.51313427441E-01  0.33314285185E-01 -0.11575635628E+00  0.13227488069E+00  0.18820218070E-01 0.  0.
         14    1    1    2    0    0  0.19687566676E-02 -0.32779030922E-02  0.24531312450E-01  0.24827523880E-01  0.00000000000E+00 0.  1.
     999901    1    3    3    0    0 -0.53282184108E-01 -0.30036382093E-01  0.91225043835E-01  0.88682759543E+00  0.88000000000E+00 0. -1.
        -11    1    4    4    0    0  0.20691242019E-01  0.30238065798E-02 -0.39233540145E-01  0.44461249373E-01  0.51100000000E-03 0.  1.
         11    1    4    4    0    0  0.30622185422E-01  0.30290478605E-01 -0.76522816140E-01  0.87813631317E-01  0.51100000000E-03 0. -1.
</event>
<event>
 8    1  0.1084146E+005  0.1043930E+01  0.7957747E-01            NaN
         13   -1    0    0    0    0  0.00000000000E+00  0.00000000000E+00  0.74505805969E-08  0.10566000000E+00  0.10566000000E+00 0.  1.
     999900   -1    0    0    0    0 -0.00000000000E+00 -0.00000000000E+00 -0.74505805969E-08  0.93827000000E+00  0.93827000000E+00 0. -1.
     999902    2    1    2    0    0 -0.19290660803E-01  0.89245186153E-02  0.10479309937E-01  0.10202320557E+01  0.10199567907E+01 0.  0.
     999903    2    3    3    0    0 -0.89846589475E-01 -0.80317078499E-01  0.48878323878E-01  0.13207852957E+00  0.23073896276E-01 0.  0.
         14    1    1    2    0    0  0.19290660803E-01 -0.89245186153E-02 -0.10479309937E-01  0.23697944288E-01  0.00000000000E+00 0. -1.
     999901    1    3    3    0    0  0.70555928671E-01  0.89241597115E-01 -0.38399013941E-01  0.88815352614E+00  0.88000000000E+00 0. -1.
        -11    1    4    4    0    0 -0.65868388745E-01 -0.44124640446E-01  0.31541907492E-01  0.85327496035E-01  0.51100000000E-03 0. -1.
         11    1    4    4    0    0 -0.23978200729E-01 -0.36192438054E-01  0.17336416386E-01  0.46751033535E-01  0.51100000000E-03 0.  1.
</event>
<event>
 8    1  0.1084146E+005  0.1043930E+01  0.7957747E-01            NaN
         13   -1    0    0    0    0  0.00000000000E+00  0.00000000000E+00  0.74505805969E-08  0.10566000000E+00  0.10566000000E+00 0. -1.
     999900   -1    0    0    0    0 -0.00000000000E+00 -0.00000000000E+00 -0.74505805969E-08  0.93827000000E+00  0.93827000000E+00 0. -1.
     999902    2    1    2    0    0  0.33865937202E-02 -0.12636725871E-01 -0.18736294316E-01  0.10210782040E+01  0.10208224596E+01 0.  0.
     999903    2    3    3    0    0 -0.10006119060E+00  0.24164230415E-01  0.76039012427E-01  0.12920483109E+00  0.17770905161E-01 0.  0.
         14    1    1    2    0    0 -0.33865937202E-02  0.12636725871E-01  0.18736294316E-01  0.22851796044E-01  0.00000000000E+00 0. -1.
     999901    1    3    3    0    0  0.10344778432E+00 -0.36800956286E-01 -0.94775306742E-01  0.89187337287E+00  0.88000000000E+00 0. -1.
        -11    1    4    4    0    0 -0.87560521435E-01  0.24680385507E-01  0.60525328798E-01  0.10926821537E+00  0.51100000000E-03 0. -1.
         11    1    4    4    0    0 -0.12500669162E-01 -0.51615509217E-03  0.15513683629E-01  0.19936615719E-01  0.51100000000E-03 0.  1.
</event>
<event>
 8    1  0.1084146E+005  0.1043930E+01  0.7957747E-01            NaN
         13   -1    0    0    0    0  0.00000000000E+00  0.00000000000E+00  0.74505805969E-08  0.10566000000E+00  0.10566000000E+00 0.  1.
     999900   -1    0    0    0    0 -0.00000000000E+00 -0.00000000000E+00 -0.74505805969E-08  0.93827000000E+00  0.93827000000E+00 0. -1.
     999902    2    1    2    0    0  0.24211184900E-01  0.85963181921E-02  0.57304539663E-02  0.10176066973E+01  0.10172661767E+01 0.  0.
     999903    2    3    3    0    0  0.65571464008E-02  0.11903199009E+00  0.47649612727E-01  0.12953861516E+00  0.17267205672E-01 0.  0.
         14    1    1    2    0    0 -0.24211184900E-01 -0.85963181921E-02 -0.57304539663E-02  0.26323302669E-01  0.00000000000E+00 0.  1.
     999901    1    3    3    0    0  0.17654038499E-01 -0.11043567189E+00 -0.41919158761E-01  0.88806808217E+00  0.88000000000E+00 0. -1.
        -11    1    4    4    0    0  0.11795214557E-01  0.92785697944E-01  0.39737739824E-01  0.10162510476E+00  0.51100000000E-03 0. -1.
         11    1    4    4    0    0 -0.52380681562E-02  0.26246292141E-01  0.79118729027E-02  0.27913510403E-01  0.51100000000E-03 0.  1.
</event>
<event>
 8    1  0.1084146E+005  0.1043930E+01  0.7957747E-01            NaN
         13   -1    0    0    0    0  0.00000000000E+00  0.00000000000E+00  0.74505805969E-08  0.10566000000E+00  0.10566000000E+00 0.  1.
     999900   -1    0    0    0    0 -0.00000000000E+00 -0.00000000000E+00 -0.74505805969E-08  0.93827000000E+00  0.93827000000E+00 0.  1.
     999902    2    1    2    0    0  0.17965563422E-01  0.76540847469E-02  0.13785574267E-01  0.10200262651E+01  0.10197461415E+01 0.  0.
     999903    2    3    3    0    0  0.47287974423E-01  0.98826633750E-01 -0.66079760282E-01  0.13123455212E+00  0.29208164725E-01 0.  0.
         14    1    1    2    0    0 -0.17965563422E-01 -0.76540847469E-02 -0.13785574267E-01  0.23903734860E-01  0.00000000000E+00 0.  1.
     999901    1    3    3    0    0 -0.29322411001E-01 -0.91172549003E-01  0.79865334549E-01  0.88879171302E+00  0.88000000000E+00 0. -1.
        -11    1    4    4    0    0  0.24791435378E-01  0.51079191632E-01 -0.17286571817E-01  0.59353060343E-01  0.51100000000E-03 0. -1.
         11    1    4    4    0    0  0.22496539045E-01  0.47747442118E-01 -0.48793188465E-01  0.71881491772E-01  0.51100000000E-03 0.  1.
</event>
<event>
 8    1  0.1084146E+005  0.1043930E+01  0.7957747E-01            NaN
         13   -1    0    0    0    0  0.00000000000E+00  0.00000000000E+00  0.74505805969E-08  0.10566000000E+00  0.10566000000E+00 0.  1.
     999900   -1    0    0    0    0 -0.00000000000E+00 -0.00000000000E+00 -0.74505805969E-08  0.93827000000E+00  0.93827000000E+00 0. -1.
     999902    2    1    2    0    0 -0.18324010584E-01  0.68979285139E-02 -0.13365600763E-01  0.10202236704E+01  0.10199482082E+01 0.  0.
     999903    2    3    3    0    0 -0.42167905860E-01 -0.79732653225E-01  0.90941558024E-01  0.12951980688E+00  0.19224596810E-01 0.  0.
         14    1    1    2    0    0  0.18324010584E-01 -0.68979285139E-02  0.13365600763E-01  0.23706329649E-01  0.00000000000E+00 0.  1.
     999901    1    3    3    0    0  0.23843895276E-01  0.86630581739E-01 -0.10430715879E+00  0.89070386347E+00  0.88000000000E+00 0. -1.
        -11    1    4    4    0    0 -0.19943253846E-02 -0.98660929699E-02  0.36686166920E-02  0.10725529995E-01  0.51100000000E-03 0. -1.
         11    1    4    4    0    0 -0.40173580476E-01 -0.69866560255E-01  0.87272941332E-01  0.11879427688E+00  0.51100000000E-03 0.  1.
</event>
<event>
 8    1  0.1084146E+005  0.1043930E+01  0.7957747E-01            NaN
         13   -1    0    0    0    0  0.00000000000E+00  0.00000000000E+00  0.74505805969E-08  0.10566000000E+00  0.10566000000E+00 0. -1.
     999900   -1    0    0    0    0 -0.00000000000E+00 -0.00000000000E+00 -0.74505805969E-08  0.93827000000E+00  0.93827000000E+00 0.  1.
     999902    2    1    2    0    0  0.19295084476E-01  0.59886048103E-02 -0.12390282183E-01  0.10202301526E+01  0.10199548429E+01 0.  0.
     999903    2    3    3    0    0 -0.12323300273E+00  0.11423539181E-01  0.25540860561E-01  0.12793952412E+00  0.19982894282E-01 0.  0.
         14    1    1    2    0    0 -0.19295084476E-01 -0.59886048103E-02  0.12390282183E-01  0.23699847364E-01  0.00000000000E+00 0. -1.
     999901    1    3    3    0    0  0.14252808721E+00 -0.54349343703E-02 -0.37931142744E-01  0.89229062852E+00  0.88000000000E+00 0. -1.
        -11    1    4    4    0    0 -0.26608296930E-01 -0.14665898323E-02  0.12997422792E-01  0.29653776682E-01  0.51100000000E-03 0.  1.
         11    1    4    4    0    0 -0.96624705799E-01  0.12890129013E-01  0.12543437769E-01  0.98285747434E-01  0.51100000000E-03 0. -1.
</event>
<event>
 8    1  0.1084146E+005  0.1043930E+01  0.7957747E-01            NaN
         13   -1    0    0    0    0  0.00000000000E+00  0.00000000000E+00  0.74505805969E-08  0.10566000000E+00  0.10566000000E+00 0.  1.
     999900   -1    0    0    0    0 -0.00000000000E+00 -0.00000000000E+00 -0.74505805969E-08  0.93827000000E+00  0.93827000000E+00 0. -1.
     999902    2    1    2    0    0  0.16672308384E-01  0.11556444434E-01 -0.13633944456E-01  0.10194881974E+01  0.10191951643E+01 0.  0.
     999903    2    3    3    0    0  0.57605182769E-01  0.77912076320E-01  0.85092716725E-01  0.13054189768E+00  0.20292064757E-01 0.  0.
         14    1    1    2    0    0 -0.16672308384E-01 -0.11556444434E-01  0.13633944456E-01  0.24441802639E-01  0.00000000000E+00 0.  1.
     999901    1    3    3    0    0 -0.40932874385E-01 -0.66355631886E-01 -0.98726661181E-01  0.88894629968E+00  0.88000000000E+00 0. -1.
        -11    1    4    4    0    0  0.90091501964E-02  0.26444017311E-02  0.80350932943E-02  0.12368568754E-01  0.51100000000E-03 0. -1.
         11    1    4    4    0    0  0.48596032572E-01  0.75267674589E-01  0.77057623430E-01  0.11817332893E+00  0.51100000000E-03 0.  1.
</event>
<event>
 8    1  0.1084146E+005  0.1043930E+01  0.7957747E-01            NaN
         13   -1    0    0    0    0  0.00000000000E+00  0.00000000000E+00  0.74505805969E-08  0.10566000000E+00  0.10566000000E+00 0.  1.
     999900   -1    0    0    0    0 -0.00000000000E+00 -0.00000000000E+00 -0.74505805969E-08  0.93827000000E+00  0.93827000000E+00 0.  1.
     999902    2    1    2    0    0  0.49609818379E-03  0.23432149162E-01 -0.61264592902E-02  0.10197051113E+01  0.10194173183E+01 0.  0.
     999903    2    3    3    0    0  0.69026128426E-01  0.12674207127E-01 -0.10885123866E+00  0.13101817058E+00  0.19797144512E-01 0.  0.
         14    1    1    2    0    0 -0.49609818379E-03 -0.23432149162E-01  0.61264592902E-02  0.24224888673E-01  0.00000000000E+00 0. -1.
     999901    1    3    3    0    0 -0.68530030242E-01  0.10757942036E-01  0.10272477937E+00  0.88868694075E+00  0.88000000000E+00 0. -1.
        -11    1    4    4    0    0  0.30094590978E-01  0.12232986200E-03 -0.61306375034E-01  0.68296647879E-01  0.51100000000E-03 0.  1.
         11    1    4    4    0    0  0.38931537448E-01  0.12551877265E-01 -0.47544863631E-01  0.62721522699E-01  0.51100000000E-03 0. -1.
</event>
<event>
 8    1  0.1084146E+005  0.1043930E+01  0.7957747E-01            NaN
         13   -1    0    0    0    0  0.00000000000E+00  0.00000000000E+00  0.74505805969E-08  0.10566000000E+00  0.10566000000E+00 0. -1.
     999900   -1    0    0    0    0 -0.00000000000E+00 -0.00000000000E+00 -0.74505805969E-08  0.93827000000E+00  0.93827000000E+00 0.  1.
     999902    2    1    2    0    0 -0.91874045198E-02 -0.46684942676E-02 -0.21270689847E-01  0.10202943175E+01  0.10200205139E+01 0.  0.
     999903    2    3    3    0    0  0.53412434347E-02  0.57857367884E-01 -0.11728274980E+00  0.13274776621E+00  0.22152248962E-01 0.  0.
         14    1    1    2    0    0  0.91874045198E-02  0.46684942676E-02  0.21270689847E-01  0.23635682497E-01  0.00000000000E+00 0. -1.
     999901    1    3    3    0    0 -0.14528647955E-01 -0.62525862151E-01  0.96012059953E-01  0.88754655129E+00  0.88000000000E+00 0. -1.
        -11    1    4    4    0    0 -0.49733401031E-02  0.20195466821E-02 -0.96533783834E-02  0.11057192944E-01  0.51100000000E-03 0.  1.
         11    1    4    4    0    0  0.10314583538E-01  0.55837821201E-01 -0.10762937142E+00  0.12169057327E+00  0.51100000000E-03 0. -1.
</event>
<event>
 8    1  0.1084146E+005  0.1043930E+01  0.7957747E-01            NaN
         13   -1    0    0    0    0  0.00000000000E+00  0.00000000000E+00  0.74505805969E-08  0.10566000000E+00  0.10566000000E+00 0.  1.
     999900   -1    0    0    0    0 -0.00000000000E+00 -0.00000000000E+00 -0.74505805969E-08  0.93827000000E+00  0.93827000000E+00 0. -1.
     999902    2    1    2    0    0  0.24030224498E-01 -0.21001520583E-02  0.32863121530E-02  0.10195853461E+01  0.10192946658E+01 0.  0.
     999903    2    3    3    0    0 -0.14840219310E-01 -0.12573182863E+00 -0.20178569656E-01  0.12978407412E+00  0.20199167848E-01 0.  0.
         14    1    1    2    0    0 -0.24030224498E-01  0.21001520583E-02 -0.32863121530E-02  0.24344653944E-01  0.00000000000E+00 0. -1.
     999901    1    3    3    0    0  0.38870443809E-01  0.12363167658E+00  0.23464881809E-01  0.88980127193E+00  0.88000000000E+00 0.  1.
        -11    1    4    4    0    0 -0.12449207442E-01 -0.10166256294E+00 -0.24239644928E-01  0.10525246305E+00  0.51100000000E-03 0. -1.
         11    1    4    4    0    0 -0.23910118684E-02 -0.24069265690E-01  0.40610752714E-02  0.24531611075E-01  0.51100000000E-03 0.  1.
</event>
<event>
 8    1  0.1084146E+005  0.1043930E+01  0.7957747E-01            NaN
         13   -1    0    0    0    0  0.00000000000E+00  0.00000000000E+00  0.74505805969E-08  0.10566000000E+00  0.10566000000E+00 0.  1.
     999900   -1    0    0    0    0 -0.00000000000E+00 -0.00000000000E+00 -0.74505805969E-08  0.93827000000E+00  0.93827000000E+00 0. -1.
     999902    2    1    2    0    0 -0.18225867804E-01 -0.77560106056E-03  0.15391152468E-01  0.10200622102E+01  0.10197829384E+01 0.  0.
     999903    2    3    3    0    0 -0.65558255754E-01  0.11192201185E+00  0.81476702052E-02  0.13158397474E+00  0.20579996199E-01 0.  0.
         14    1    1    2    0    0  0.18225867804E-01  0.77560106056E-03 -0.15391152468E-01  0.23867789770E-01  0.00000000000E+00 0. -1.
     999901    1    3    3    0    0  0.47332387950E-01 -0.11269761291E+00  0.72434822627E-02  0.88847823549E+00  0.88000000000E+00 0. -1.
        -11    1    4    4    0    0 -0.51068304018E-02  0.22659991841E-01  0.48026048266E-02  0.23725114986E-01  0.51100000000E-03 0.  1.
         11    1    4    4    0    0 -0.60451425352E-01  0.89262020013E-01  0.33450653787E-02  0.10785885975E+00  0.51100000000E-03 0. -1.
</event>
<event>
 8    1  0.1084146E+005  0.1043930E+01  0.7957747E-01            NaN
         13   -1    0    0    0    0  0.00000000000E+00  0.00000000000E+00  0.74505805969E-08  0.10566000000E+00  0.10566000000E+00 0. -1.
     999900   -1    0    0    0    0 -0.00000000000E+00 -0.00000000000E+00 -0.74505805969E-08  0.93827000000E+00  0.93827000000E+00 0.  1.
     999902    2    1    2    0    0 -0.85005208161E-03 -0.22398697023E-01  0.77094542881E-02  0.10202264158E+01  0.10199510183E+01 0.  0.
     999903    2    3    3    0    0  0.10791146728E+00 -0.69772376342E-01 -0.21391570033E-01  0.13178947198E+00  0.19944833544E-01 0.  0.
         14    1    1    2    0    0  0.85005208161E-03  0.22398697023E-01 -0.77094542881E-02  0.23703584166E-01  0.00000000000E+00 0. -1.
     999901    1    3    3    0    0 -0.10876151936E+00  0.47373679318E-01  0.29101024321E-01  0.88843694385E+00  0.88000000000E+00 0. -1.
        -11    1    4    4    0    0  0.45087467984E-01 -0.34999716575E-01 -0.78956939119E-03  0.57085413814E-01  0.51100000000E-03 0. -1.
         11    1    4    4    0    0  0.62823999299E-01 -0.34772659767E-01 -0.20602000642E-01  0.74704058167E-01  0.51100000000E-03 0.  1.
</event>
<event>
 8    1  0.1084146E+005  0.1043930E+01  0.7957747E-01            NaN
         13   -1    0    0    0    0  0.00000000000E+00  0.00000000000E+00  0.74505805969E-08  0.10566000000E+00  0.10566000000E+00 0.  1.
     999900   -1    0    0    0    0 -0.00000000000E+00 -0.00000000000E+00 -0.74505805969E-08  0.93827000000E+00  0.93827000000E+00 0. -1.
     999902    2    1    2    0    0  0.31349671167E-02  0.76402259647E-02  0.22610876638E-01  0.10198581739E+01  0.10195740493E+01 0.  0.
     999903    2    3    3    0    0 -0.11063528248E-01  0.10061941209E+00  0.82406739288E-01  0.13282814533E+00  0.24612552990E-01 0.  0.
         14    1    1    2    0    0 -0.31349671167E-02 -0.76402259647E-02 -0.22610876638E-01  0.24071826145E-01  0.00000000000E+00 0. -1.
     999901    1    3    3    0    0  0.14198495365E-01 -0.92979186121E-01 -0.59795862650E-01  0.88703002853E+00  0.88000000000E+00 0. -1.
        -11    1    4    4    0    0  0.19390988675E-02  0.17392700979E-01  0.26375403013E-01  0.31657371287E-01  0.51100000000E-03 0.  1.
         11    1    4    4    0    0 -0.13002627116E-01  0.83226711107E-01  0.56031336276E-01  0.10117077404E+00  0.51100000000E-03 0. -1.
</event>
<event>
 8    1  0.1084146E+005  0.1043930E+01  0.7957747E-01            NaN
         13   -1    0    0    0    0  0.00000000000E+00  0.00000000000E+00  0.74505805969E-08  0.10566000000E+00  0.10566000000E+00 0.  1.
     999900   -1    0    0    0    0 -0.00000000000E+00 -0.00000000000E+00 -0.74505805969E-08  0.93827000000E+00  0.93827000000E+00 0. -1.
     999902    2    1    2    0    0 -0.19207518315E-01 -0.34460718688E-02 -0.12959609753E-01  0.10205044657E+01  0.10202355654E+01 0.  0.
     999903    2    3    3    0    0 -0.49561750063E-01  0.60808606622E-01  0.10195762362E+00  0.13019215332E+00  0.20014646196E-01 0.  0.
         14    1    1    2    0    0  0.19207518315E-01  0.34460718688E-02  0.12959609753E-01  0.23425534276E-01  0.00000000000E+00 0.  1.
     999901    1    3    3    0    0  0.30354231748E-01 -0.64254678490E-01 -0.11491723338E+00  0.89031231240E+00  0.88000000000E+00 0. -1.
        -11    1    4    4    0    0 -0.12532743810E-01  0.24948228602E-01  0.24496791632E-01  0.37146166680E-01  0.51100000000E-03 0. -1.
         11    1    4    4    0    0 -0.37029006253E-01  0.35860378020E-01  0.77460831992E-01  0.93045986639E-01  0.51100000000E-03 0.  1.
</event>
<event>
 8    1  0.1084146E+005  0.1043930E+01  0.7957747E-01            NaN
         13   -1    0    0    0    0  0.00000000000E+00  0.00000000000E+00  0.74505805969E-08  0.10566000000E+00  0.10566000000E+00 0. -1.
     999900   -1    0    0    0    0 -0.00000000000E+00 -0.00000000000E+00 -0.74505805969E-08  0.93827000000E+00  0.93827000000E+00 0.  1.
     999902    2    1    2    0    0  0.14102115617E-02  0.21820867746E-01  0.11355353888E-01  0.10192909451E+01  0.10189931048E+01 0.  0.
     999903    2    3    3    0    0 -0.41207888821E-01  0.45331100062E-01 -0.11217672507E+00  0.12933071673E+00  0.19743806792E-01 0.  0.
         14    1    1    2    0    0 -0.14102115617E-02 -0.21820867746E-01 -0.11355353888E-01  0.24639054928E-01  0.00000000000E+00 0.  1.
     999901    1    3    3    0    0  0.42618100383E-01 -0.23510232316E-01  0.12353207896E+00  0.88996022835E+00  0.88000000000E+00 0. -1.
        -11    1    4    4    0    0 -0.20585127287E-01  0.35822561463E-01 -0.65950167757E-01  0.77824733365E-01  0.51100000000E-03 0. -1.
         11    1    4    4    0    0 -0.20622761534E-01  0.95085385988E-02 -0.46226557318E-01  0.51505983362E-01  0.51100000000E-03 0.  1.
</event>
<event>
 8    1  0.1084146E+005  0.1043930E+01  0.7957747E-01            NaN
         13   -1    0    0    0    0  0.00000000000E+00  0.00000000000E+00  0.74505805969E-08  0.10566000000E+00  0.10566000000E+00 0. -1.
     999900   -1    0    0    0    0 -0.00000000000E+00 -0.00000000000E+00 -0.74505805969E-08  0.93827000000E+00  0.93827000000E+00 0.  1.
     999902    2    1    2    0    0 -0.18502271484E-01 -0.16305564699E-01  0.12124540085E-01  0.10164489163E+01  0.10160773541E+01 0.  0.
     999903    2    3    3    0    0  0.11125117207E+00  0.38494930519E-01  0.36338995576E-01  0.12491911294E+00  0.20629571349E-01 0.  0.
         14    1    1    2    0    0  0.18502271484E-01  0.16305564699E-01 -0.12124540085E-01  0.27481083721E-01  0.00000000000E+00 0.  1.
     999901    1    3    3    0    0 -0.12975344356E+00 -0.54800495218E-01 -0.24214455492E-01  0.89152980334E+00  0.88000000000E+00 0. -1.
        -11    1    4    4    0    0  0.42232187536E-01  0.25336739208E-01  0.15194766927E-01  0.51542701527E-01  0.51100000000E-03 0. -1.
         11    1    4    4    0    0  0.69018984538E-01  0.13158191311E-01  0.21144228650E-01  0.73376411410E-01  0.51100000000E-03 0.  1.
</event>
<event>
 8    1  0.1379844E+005  0.1043930E+01  0.7957747E-01            NaN
         13   -1    0    0    0    0  0.00000000000E+00  0.00000000000E+00  0.74505805969E-08  0.10566000000E+00  0.10566000000E+00 0.  1.
     999900   -1    0    0    0    0 -0.00000000000E+00 -0.00000000000E+00 -0.74505805969E-08  0.93827000000E+00  0.93827000000E+00 0. -1.
     999902    2    1    2    0    0 -0.22320277603E-01  0.73471929704E-02  0.11030347544E-01  0.10179714830E+01  0.10176404550E+01 0.  0.
     999903    2    3    3    0    0 -0.36042774401E-01  0.63213489684E-01  0.10706340956E+00  0.13087977467E+00  0.19285094934E-01 0.  0.
         14    1    1    2    0    0  0.22320277603E-01 -0.73471929704E-02 -0.11030347544E-01  0.25958516979E-01  0.00000000000E+00 0. -1.
     999901    1    3    3    0    0  0.13722496798E-01 -0.55866296714E-01 -0.96033062015E-01  0.88709170835E+00  0.88000000000E+00 0. -1.
        -11    1    4    4    0    0 -0.30686336870E-01  0.37929422763E-01  0.61610023979E-01  0.78589748424E-01  0.51100000000E-03 0.  1.
         11    1    4    4    0    0 -0.53564375305E-02  0.25284066921E-01  0.45453385580E-01  0.52290026246E-01  0.51100000000E-03 0. -1.
</event>
<event>
 8    1  0.1084146E+005  0.1043930E+01  0.7957747E-01            NaN
         13   -1    0    0    0    0  0.00000000000E+00  0.00000000000E+00  0.74505805969E-08  0.10566000000E+00  0.10566000000E+00 0. -1.
     999900   -1    0    0    0    0 -0.00000000000E+00 -0.00000000000E+00 -0.74505805969E-08  0.93827000000E+00  0.93827000000E+00 0.  1.
     999902    2    1    2    0    0 -0.12684487361E-01  0.11078216905E-01 -0.16550227310E-01  0.10203178605E+01  0.10200446085E+01 0.  0.
     999903    2    3    3    0    0  0.81982896283E-01  0.84351657837E-01 -0.54564809283E-01  0.13139940576E+00  0.21262360148E-01 0.  0.
         14    1    1    2    0    0  0.12684487361E-01 -0.11078216905E-01  0.16550227310E-01  0.23612139536E-01  0.00000000000E+00 0. -1.
     999901    1    3    3    0    0 -0.94667383645E-01 -0.73273440931E-01  0.38014581972E-01  0.88891845470E+00  0.88000000000E+00 0.  1.
        -11    1    4    4    0    0  0.11523670272E-01  0.37667643844E-02 -0.26095968914E-02  0.12411873646E-01  0.51100000000E-03 0. -1.
         11    1    4    4    0    0  0.70459226011E-01  0.80584893452E-01 -0.51955212391E-01  0.11898753211E+00  0.51100000000E-03 0.  1.
</event>
<event>
 8    1  0.1084146E+005  0.1043930E+01  0.7957747E-01            NaN
         13   -1    0    0    0    0  0.00000000000E+00  0.00000000000E+00  0.74505805969E-08  0.10566000000E+00  0.10566000000E+00 0.  1.
     999900   -1    0    0    0    0 -0.00000000000E+00 -0.00000000000E+00 -0.74505805969E-08  0.93827000000E+00  0.93827000000E+00 0. -1.
     999902    2    1    2    0    0 -0.50367440682E-02  0.19118868752E-01 -0.13154923509E-01  0.10201823276E+01  0.10199058925E+01 0.  0.
     999903    2    3    3    0    0 -0.39567506457E-03 -0.36784027171E-01  0.12128681768E+00  0.12820628806E+00  0.19316804602E-01 0.  0.
         14    1    1    2    0    0  0.50367440682E-02 -0.19118868752E-01  0.13154923509E-01  0.23747672427E-01  0.00000000000E+00 0.  1.
     999901    1    3    3    0    0 -0.46410690036E-02  0.55902895923E-01 -0.13444174119E+00  0.89197603952E+00  0.88000000000E+00 0. -1.
        -11    1    4    4    0    0 -0.94064544711E-03 -0.14420507193E-01  0.79512177070E-01  0.80816355182E-01  0.51100000000E-03 0.  1.
         11    1    4    4    0    0  0.54497038254E-03 -0.22363519978E-01  0.41774640614E-01  0.47389932876E-01  0.51100000000E-03 0. -1.
</event>
<event>
 8    1  0.1084146E+005  0.1043930E+01  0.7957747E-01            NaN
         13   -1    0    0    0    0  0.00000000000E+00  0.00000000000E+00  0.74505805969E-08  0.10566000000E+00  0.10566000000E+00 0. -1.
     999900   -1    0    0    0    0 -0.00000000000E+00 -0.00000000000E+00 -0.74505805969E-08  0.93827000000E+00  0.93827000000E+00 0.  1.
     999902    2    1    2    0    0 -0.10238826926E-02  0.16231307732E-01 -0.15592212642E-01  0.10213995588E+01  0.10211510358E+01 0.  0.
     999903    2    3    3    0    0  0.12241195946E+00 -0.42233947807E-01  0.10464199510E-01  0.13048231804E+00  0.12154903687E-01 0.  0.
         14    1    1    2    0    0  0.10238826926E-02 -0.16231307732E-01  0.15592212642E-01  0.22530441220E-01  0.00000000000E+00 0. -1.
     999901    1    3    3    0    0 -0.12343584215E+00  0.58465255540E-01 -0.26056412153E-01  0.89091724074E+00  0.88000000000E+00 0. -1.
        -11    1    4    4    0    0  0.34066200370E-01 -0.11121643805E-01 -0.24881293442E-02  0.35925601975E-01  0.51100000000E-03 0.  1.
         11    1    4    4    0    0  0.88345759090E-01 -0.31112304002E-01  0.12952328854E-01  0.94556716066E-01  0.51100000000E-03 0. -1.
</event>
<event>
 8    1  0.1151915E+005  0.1043930E+01  0.7957747E-01            NaN
         13   -1    0    0    0    0  0.00000000000E+00  0.00000000000E+00  0.74505805969E-08  0.10566000000E+00  0.10566000000E+00 0.  1.
     999900   -1    0    0    0    0 -0.00000000000E+00 -0.00000000000E+00 -0.74505805969E-08  0.93827000000E+00  0.93827000000E+00 0. -1.
     999902    2    1    2    0    0 -0.33822675590E-01  0.12237598256E-01 -0.11621730049E-01  0.10061305714E+01  0.10054202752E+01 0.  0.
     999903    2    3    3    0    0 -0.13893454375E-02  0.27554160836E-01  0.11148905194E+00  0.11683715375E+00  0.21446438717E-01 0.  0.
         14    1    1    2    0    0  0.33822675590E-01 -0.12237598256E-01  0.11621730049E-01  0.37799428626E-01  0.00000000000E+00 0.  1.
     999901    1    3    3    0    0 -0.32433330152E-01 -0.15316562580E-01 -0.12311078199E+00  0.88929341763E+00  0.88000000000E+00 0. -1.
        -11    1    4    4    0    0 -0.61836938897E-02  0.27700054799E-01  0.78045707220E-01  0.83047725089E-01  0.51100000000E-03 0.  1.
         11    1    4    4    0    0  0.47943484522E-02 -0.14589396315E-03  0.33443344717E-01  0.33789428657E-01  0.51100000000E-03 0. -1.
</event>
<event>
 8    1  0.1084146E+005  0.1043930E+01  0.7957747E-01            NaN
         13   -1    0    0    0    0  0.00000000000E+00  0.00000000000E+00  0.74505805969E-08  0.10566000000E+00  0.10566000000E+00 0.  1.
     999900   -1    0    0    0    0 -0.00000000000E+00 -0.00000000000E+00 -0.74505805969E-08  0.93827000000E+00  0.93827000000E+00 0.  1.
     999902    2    1    2    0    0  0.15909476960E-02  0.19630360433E-01 -0.13993872139E-01  0.10197698961E+01  0.10194836587E+01 0.  0.
     999903    2    3    3    0    0  0.84800080198E-01  0.28776752157E-01 -0.95086593552E-01  0.13208557960E+00  0.19646500911E-01 0.  0.
         14    1    1    2    0    0 -0.15909476960E-02 -0.19630360433E-01  0.13993872139E-01  0.24160103948E-01  0.00000000000E+00 0.  1.
     999901    1    3    3    0    0 -0.83209132502E-01 -0.91463917232E-02  0.81092721413E-01  0.88768431645E+00  0.88000000000E+00 0. -1.
        -11    1    4    4    0    0  0.36092728471E-01  0.21843818406E-01 -0.38709684878E-01  0.57258521422E-01  0.51100000000E-03 0.  1.
         11    1    4    4    0    0  0.48707351726E-01  0.69329337509E-02 -0.56376908674E-01  0.74827058176E-01  0.51100000000E-03 0. -1.
</event>
<event>
 8    1  0.1084146E+005  0.1043930E+01  0.7957747E-01            NaN
         13   -1    0    0    0    0  0.00000000000E+00  0.00000000000E+00  0.74505805969E-08  0.10566000000E+00  0.10566000000E+00 0. -1.
     999900   -1    0    0    0    0 -0.00000000000E+00 -0.00000000000E+00 -0.74505805969E-08  0.93827000000E+00  0.93827000000E+00 0.  1.
     999902    2    1    2    0    0 -0.56067298484E-03 -0.17311893637E-01 -0.14837993655E-01  0.10211224997E+01  0.10208677570E+01 0.  0.
     999903    2    3    3    0    0 -0.45878884414E-01  0.10192790907E-02 -0.12347210491E+00  0.13309595598E+00  0.19059429168E-01 0.  0.
         14    1    1    2    0    0  0.56067298484E-03  0.17311893637E-01  0.14837993655E-01  0.22807500328E-01  0.00000000000E+00 0. -1.
     999901    1    3    3    0    0  0.45318211429E-01 -0.18331172728E-01  0.10863411126E+00  0.88802654370E+00  0.88000000000E+00 0. -1.
        -11    1    4    4    0    0 -0.48967158614E-02  0.60785426463E-02 -0.28067924648E-01  0.29137536306E-01  0.51100000000E-03 0. -1.
         11    1    4    4    0    0 -0.40982168552E-01 -0.50592635556E-02 -0.95404180266E-01  0.10395841967E+00  0.51100000000E-03 0.  1.
</event>
<event>
 8    1  0.1084146E+005  0.1043930E+01  0.7957747E-01            NaN
         13   -1    0    0    0    0  0.00000000000E+00  0.00000000000E+00  0.74505805969E-08  0.10566000000E+00  0.10566000000E+00 0. -1.
     999900   -1    0    0    0    0 -0.00000000000E+00 -0.00000000000E+00 -0.74505805969E-08  0.93827000000E+00  0.93827000000E+00 0. -1.
     999902    2    1    2    0    0  0.16454115517E-01  0.51814966534E-02  0.16770340306E-01  0.10198711110E+01  0.10195872954E+01 0.  0.
     999903    2    3    3    0    0  0.70398802831E-02 -0.58948949714E-01 -0.11211143739E+00  0.12812459177E+00  0.17955445829E-01 0.  0.
         14    1    1    2    0    0 -0.16454115517E-01 -0.51814966534E-02 -0.16770340306E-01  0.24058888981E-01  0.00000000000E+00 0.  1.
     999901    1    3    3    0    0  0.94142352340E-02  0.64130446367E-01  0.12888177770E+00  0.89174651925E+00  0.88000000000E+00 0.  1.
        -11    1    4    4    0    0  0.42039483029E-02 -0.53338012947E-01 -0.86196083751E-01  0.10145266276E+00  0.51100000000E-03 0.  1.
         11    1    4    4    0    0  0.28359319802E-02 -0.56109367669E-02 -0.25915353639E-01  0.26671929005E-01  0.51100000000E-03 0. -1.
</event>
<event>
 8    1  0.1084146E+005  0.1043930E+01  0.7957747E-01            NaN
         13   -1    0    0    0    0  0.00000000000E+00  0.00000000000E+00  0.74505805969E-08  0.10566000000E+00  0.10566000000E+00 0. -1.
     999900   -1    0    0    0    0 -0.00000000000E+00 -0.00000000000E+00 -0.74505805969E-08  0.93827000000E+00  0.93827000000E+00 0.  1.
     999902    2    1    2    0    0  0.17682299949E-01  0.15606291211E-02  0.14416901886E-01  0.10210619796E+01  0.10208058679E+01 0.  0.
     999903    2    3    3    0    0 -0.36881747042E-01 -0.10641184895E+00 -0.60771302000E-01  0.12960892017E+00  0.20532320404E-01 0.  0.
         14    1    1    2    0    0 -0.17682299949E-01 -0.15606291211E-02 -0.14416901886E-01  0.22868020350E-01  0.00000000000E+00 0. -1.
     999901    1    3    3    0    0  0.54564046992E-01  0.10797247807E+00  0.75188203886E-01  0.89145305948E+00  0.88000000000E+00 0. -1.
        -11    1    4    4    0    0 -0.17515450577E-01 -0.24182878828E-01 -0.13150097552E-01  0.32631102096E-01  0.51100000000E-03 0.  1.
         11    1    4    4    0    0 -0.19366296465E-01 -0.82228970117E-01 -0.47621204447E-01  0.96977818079E-01  0.51100000000E-03 0. -1.
</event>
<event>
 8    1  0.1084146E+005  0.1043930E+01  0.7957747E-01            NaN
         13   -1    0    0    0    0  0.00000000000E+00  0.00000000000E+00  0.74505805969E-08  0.10566000000E+00  0.10566000000E+00 0. -1.
     999900   -1    0    0    0    0 -0.00000000000E+00 -0.00000000000E+00 -0.74505805969E-08  0.93827000000E+00  0.93827000000E+00 0.  1.
     999902    2    1    2    0    0  0.16361508107E-01  0.16115991999E-01 -0.37336750946E-02  0.10206627596E+01  0.10203975227E+01 0.  0.
     999903    2    3    3    0    0 -0.12388656745E+00  0.14054062524E-01 -0.26003858398E-01  0.12927634771E+00  0.22153445757E-01 0.  0.
         14    1    1    2    0    0 -0.16361508107E-01 -0.16115991999E-01  0.37336750946E-02  0.23267240390E-01  0.00000000000E+00 0. -1.
     999901    1    3    3    0    0  0.14024807556E+00  0.20619294752E-02  0.22270183303E-01  0.89138641190E+00  0.88000000000E+00 0.  1.
        -11    1    4    4    0    0 -0.64759333859E-01 -0.13999593553E-02 -0.20359376201E-01  0.67900637172E-01  0.51100000000E-03 0. -1.
         11    1    4    4    0    0 -0.59127233590E-01  0.15454021879E-01 -0.56444821967E-02  0.61375710542E-01  0.51100000000E-03 0.  1.
</event>
<event>
 8    1  0.1084146E+005  0.1043930E+01  0.7957747E-01            NaN
         13   -1    0    0    0    0  0.00000000000E+00  0.00000000000E+00  0.74505805969E-08  0.10566000000E+00  0.10566000000E+00 0.  1.
     999900   -1    0    0    0    0 -0.00000000000E+00 -0.00000000000E+00 -0.74505805969E-08  0.93827000000E+00  0.93827000000E+00 0.  1.
     999902    2    1    2    0    0 -0.41598645430E-02  0.14011967750E-01  0.18628355572E-01  0.10202518382E+01  0.10199770380E+01 0.  0.
     999903    2    3    3    0    0  0.10793625485E+00  0.47048417996E-01 -0.51045824197E-01  0.12979609068E+00  0.19430909395E-01 0.  0.
         14    1    1    2    0    0  0.41598645430E-02 -0.14011967750E-01 -0.18628355572E-01  0.23678161765E-01  0.00000000000E+00 0. -1.
     999901    1    3    3    0    0 -0.11209611940E+00 -0.33036450246E-01  0.69674179770E-01  0.89045574756E+00  0.88000000000E+00 0.  1.
        -11    1    4    4    0    0  0.78714884395E-01  0.35440276690E-01 -0.27808164607E-01  0.90695101174E-01  0.51100000000E-03 0.  1.
         11    1    4    4    0    0  0.29221370458E-01  0.11608141306E-01 -0.23237659590E-01  0.39100989505E-01  0.51100000000E-03 0. -1.
</event>
<event>
 8    1  0.1084146E+005  0.1043930E+01  0.7957747E-01            NaN
         13   -1    0    0    0    0  0.00000000000E+00  0.00000000000E+00  0.74505805969E-08  0.10566000000E+00  0.10566000000E+00 0. -1.
     999900   -1    0    0    0    0 -0.00000000000E+00 -0.00000000000E+00 -0.74505805969E-08  0.93827000000E+00  0.93827000000E+00 0. -1.
     999902    2    1    2    0    0  0.21284067125E-01  0.83267459928E-02 -0.13461968253E-01  0.10174050909E+01  0.10170592649E+01 0.  0.
     999903    2    3    3    0    0 -0.51878615272E-01  0.10065323625E+00 -0.57405137481E-01  0.12846866968E+00  0.19656667790E-01 0.  0.
         14    1    1    2    0    0 -0.21284067125E-01 -0.83267459928E-02  0.13461968253E-01  0.26524909075E-01  0.00000000000E+00 0. -1.
     999901    1    3    3    0    0  0.73162682397E-01 -0.92326490260E-01  0.43943169228E-01  0.88893642125E+00  0.88000000000E+00 0.  1.
        -11    1    4    4    0    0 -0.23806345460E-01  0.33249703616E-01 -0.28932303479E-01  0.50096149356E-01  0.51100000000E-03 0. -1.
         11    1    4    4    0    0 -0.28072269812E-01  0.67403532637E-01 -0.28472834002E-01  0.78372520321E-01  0.51100000000E-03 0.  1.
</event>
<event>
 8    1  0.1084146E+005  0.1043930E+01  0.7957747E-01            NaN
         13   -1    0    0    0    0  0.00000000000E+00  0.00000000000E+00  0.74505805969E-08  0.10566000000E+00  0.10566000000E+00 0.  1.
     999900   -1    0    0    0    0 -0.00000000000E+00 -0.00000000000E+00 -0.74505805969E-08  0.93827000000E+00  0.93827000000E+00 0. -1.
     999902    2    1    2    0    0 -0.50954012844E-02 -0.21117081339E-02 -0.22442824722E-01  0.10208193356E+01  0.10205576972E+01 0.  0.
     999903    2    3    3    0    0 -0.15459652372E-02  0.66482344440E-01  0.10753463001E+00  0.12862435623E+00  0.23627023379E-01 0.  0.
         14    1    1    2    0    0  0.50954012844E-02  0.21117081339E-02  0.22442824722E-01  0.23110664357E-01  0.00000000000E+00 0.  1.
     999901    1    3    3    0    0 -0.35494360472E-02 -0.68594052574E-01 -0.12997745473E+00  0.89219497941E+00  0.88000000000E+00 0. -1.
        -11    1    4    4    0    0 -0.12390425976E-01  0.33226464466E-01  0.57952977634E-01  0.67943574637E-01  0.51100000000E-03 0.  1.
         11    1    4    4    0    0  0.10844460739E-01  0.33255879974E-01  0.49581652379E-01  0.60680781597E-01  0.51100000000E-03 0. -1.
</event>
<event>
 8    1  0.1084146E+005  0.1043930E+01  0.7957747E-01            NaN
         13   -1    0    0    0    0  0.00000000000E+00  0.00000000000E+00  0.74505805969E-08  0.10566000000E+00  0.10566000000E+00 0. -1.
     999900   -1    0    0    0    0 -0.00000000000E+00 -0.00000000000E+00 -0.74505805969E-08  0.93827000000E+00  0.93827000000E+00 0. -1.
     999902    2    1    2    0    0  0.13464628254E-01  0.18572483815E-01 -0.17639687737E-03  0.10209895448E+01  0.10207317895E+01 0.  0.
     999903    2    3    3    0    0 -0.69079651201E-02  0.11923850769E+00  0.55697598074E-01  0.13325614212E+00  0.19734114684E-01 0.  0.
         14    1    1    2    0    0 -0.13464628254E-01 -0.18572483815E-01  0.17639687737E-03  0.22940455203E-01  0.00000000000E+00 0. -1.
     999901    1    3    3    0    0  0.20372593374E-01 -0.10066602387E+00 -0.55873994951E-01  0.88773340268E+00  0.88000000000E+00 0. -1.
        -11    1    4    4    0    0  0.54527546632E-02  0.71435095505E-01  0.34538403767E-01  0.79535324599E-01  0.51100000000E-03 0. -1.
         11    1    4    4    0    0 -0.12360719783E-01  0.47803412185E-01  0.21159194306E-01  0.53720817518E-01  0.51100000000E-03 0.  1.
</event>
<event>
 8    1  0.1084146E+005  0.1043930E+01  0.7957747E-01            NaN
         13   -1    0    0    0    0  0.00000000000E+00  0.00000000000E+00  0.74505805969E-08  0.10566000000E+00  0.10566000000E+00 0.  1.
     999900   -1    0    0    0    0 -0.00000000000E+00 -0.00000000000E+00 -0.74505805969E-08  0.93827000000E+00  0.93827000000E+00 0.  1.
     999902    2    1    2    0    0  0.12472612689E-01  0.19322139203E-01 -0.77860871512E-03  0.10209187557E+01  0.10206593891E+01 0.  0.
     999903    2    3    3    0    0 -0.62012309795E-01 -0.17895864013E-01  0.11100092779E+00  0.12994858328E+00  0.19990993245E-01 0.  0.
         14    1    1    2    0    0 -0.12472612689E-01 -0.19322139203E-01  0.77860871512E-03  0.23011244256E-01  0.00000000000E+00 0.  1.
     999901    1    3    3    0    0  0.74484922484E-01  0.37218003216E-01 -0.11177953651E+00  0.89097017247E+00  0.88000000000E+00 0.  1.
        -11    1    4    4    0    0 -0.40942862779E-01 -0.41128720995E-02  0.56370440760E-01  0.69793419761E-01  0.51100000000E-03 0.  1.
         11    1    4    4    0    0 -0.21069447016E-01 -0.13782991914E-01  0.54630487031E-01  0.60155163518E-01  0.51100000000E-03 0. -1.
</event>
<event>
 8    1  0.1084146E+005  0.1043930E+01  0.7957747E-01            NaN
         13   -1    0    0    0    0  0.00000000000E+00  0.00000000000E+00  0.74505805969E-08  0.10566000000E+00  0.10566000000E+00 0. -1.
     999900   -1    0    0    0    0 -0.00000000000E+00 -0.00000000000E+00 -0.74505805969E-08  0.93827000000E+00  0.93827000000E+00 0.  1.
     999902    2    1    2    0    0 -0.64427117097E-02  0.17473038809E-01 -0.31502521615E-01  0.10073345838E+01  0.10066696276E+01 0.  0.
     999903    2    3    3    0    0  0.43734876372E-01  0.10964328252E+00 -0.21145034404E-01  0.12103868415E+00  0.16397004907E-01 0.  0.
         14    1    1    2    0    0  0.64427117097E-02 -0.17473038809E-01  0.31502521615E-01  0.36595416209E-01  0.00000000000E+00 0. -1.
     999901    1    3    3    0    0 -0.50177588082E-01 -0.92170243706E-01 -0.10357487211E-01  0.88629589964E+00  0.88000000000E+00 0.  1.
        -11    1    4    4    0    0  0.21084543991E-01  0.41418689165E-01 -0.15215792878E-01  0.48906515735E-01  0.51100000000E-03 0.  1.
         11    1    4    4    0    0  0.22650332381E-01  0.68224593351E-01 -0.59292415259E-02  0.72132168420E-01  0.51100000000E-03 0. -1.
</event>
<event>
 8    1  0.1084146E+005  0.1043930E+01  0.7957747E-01            NaN
         13   -1    0    0    0    0  0.00000000000E+00  0.00000000000E+00  0.74505805969E-08  0.10566000000E+00  0.10566000000E+00 0. -1.
     999900   -1    0    0    0    0 -0.00000000000E+00 -0.00000000000E+00 -0.74505805969E-08  0.93827000000E+00  0.93827000000E+00 0.  1.
     999902    2    1    2    0    0 -0.18135448738E-01  0.72376134162E-02  0.12421738572E-01  0.10207874604E+01  0.10205250914E+01 0.  0.
     999903    2    3    3    0    0 -0.10788390193E+00  0.35365174071E-01  0.67280109290E-01  0.13407703116E+00  0.23672882113E-01 0.  0.
         14    1    1    2    0    0  0.18135448738E-01 -0.72376134162E-02 -0.12421738572E-01  0.23142539576E-01  0.00000000000E+00 0.  1.
     999901    1    3    3    0    0  0.89748453190E-01 -0.28127560655E-01 -0.54858370719E-01  0.88671042926E+00  0.88000000000E+00 0.  1.
        -11    1    4    4    0    0 -0.56922291914E-01  0.13716165297E-01  0.22006045818E-01  0.62552439447E-01  0.51100000000E-03 0. -1.
         11    1    4    4    0    0 -0.50961610014E-01  0.21649008775E-01  0.45274063472E-01  0.71524591718E-01  0.51100000000E-03 0.  1.
</event>
<event>
 8    1  0.1084146E+005  0.1043930E+01  0.7957747E-01            NaN
         13   -1    0    0    0    0  0.00000000000E+00  0.00000000000E+00  0.74505805969E-08  0.10566000000E+00  0.10566000000E+00 0. -1.
     999900   -1    0    0    0    0 -0.00000000000E+00 -0.00000000000E+00 -0.74505805969E-08  0.93827000000E+00  0.93827000000E+00 0.  1.
     999902    2    1    2    0    0 -0.22614627467E-01  0.77185384508E-02  0.36502330557E-02  0.10197572589E+01  0.10194707184E+01 0.  0.
     999903    2    3    3    0    0 -0.25502413772E-01  0.21093429189E-01 -0.12436368787E+00  0.13038962346E+00  0.20971914131E-01 0.  0.
         14    1    1    2    0    0  0.22614627467E-01 -0.77185384508E-02 -0.36502330557E-02  0.24172741107E-01  0.00000000000E+00 0.  1.
     999901    1    3    3    0    0  0.28877863050E-02 -0.13374890738E-01  0.12801392092E+00  0.88936763544E+00  0.88000000000E+00 0. -1.
        -11    1    4    4    0    0 -0.61083813417E-02  0.16548497801E-01 -0.40262763665E-01  0.43960395369E-01  0.51100000000E-03 0. -1.
         11    1    4    4    0    0 -0.19394032430E-01  0.45449313872E-02 -0.84100924201E-01  0.86429228087E-01  0.51100000000E-03 0.  1.
</event>
<event>
 8    1  0.1084146E+005  0.1043930E+01  0.7957747E-01            NaN
         13   -1    0    0    0    0  0.00000000000E+00  0.00000000000E+00  0.74505805969E-08  0.10566000000E+00  0.10566000000E+00 0.  1.
     999900   -1    0    0    0    0 -0.00000000000E+00 -0.00000000000E+00 -0.74505805969E-08  0.93827000000E+00  0.93827000000E+00 0. -1.
     999902    2    1    2    0    0  0.10457338080E-01 -0.10649628018E-01  0.20542222837E-01  0.10185380049E+01  0.10182214464E+01 0.  0.
     999903    2    3    3    0    0 -0.48265709523E-01  0.11608893615E+00  0.59790144199E-02  0.12740213028E+00  0.19731557854E-01 0.  0.
         14    1    1    2    0    0 -0.10457338080E-01  0.10649628018E-01 -0.20542222837E-01  0.25391995111E-01  0.00000000000E+00 0. -1.
     999901    1    3    3    0    0  0.58723047602E-01 -0.12673856417E+00  0.14563208417E-01  0.89113587460E+00  0.88000000000E+00 0. -1.
        -11    1    4    4    0    0 -0.30207266972E-01  0.59369077011E-01 -0.52663264867E-02  0.66821864676E-01  0.51100000000E-03 0. -1.
         11    1    4    4    0    0 -0.18058442551E-01  0.56719859139E-01  0.11245340907E-01  0.60580265609E-01  0.51100000000E-03 0.  1.
</event>
<event>
 8    1  0.1084146E+005  0.1043930E+01  0.7957747E-01            NaN
         13   -1    0    0    0    0  0.00000000000E+00  0.00000000000E+00  0.74505805969E-08  0.10566000000E+00  0.10566000000E+00 0. -1.
     999900   -1    0    0    0    0 -0.00000000000E+00 -0.00000000000E+00 -0.74505805969E-08  0.93827000000E+00  0.93827000000E+00 0. -1.
     999902    2    1    2    0    0  0.17659657130E-01 -0.46677605297E-02 -0.14657654509E-01  0.10205099591E+01  0.10202411864E+01 0.  0.
     999903    2    3    3    0    0 -0.97591431161E-01  0.78466446713E-01 -0.22126415549E-01  0.12907858648E+00  0.22150226335E-01 0.  0.
         14    1    1    2    0    0 -0.17659657130E-01  0.46677605297E-02  0.14657654509E-01  0.23420040863E-01  0.00000000000E+00 0. -1.
     999901    1    3    3    0    0  0.11525108829E+00 -0.83134207243E-01  0.74687610394E-02  0.89143137266E+00  0.88000000000E+00 0.  1.
        -11    1    4    4    0    0 -0.30923837272E-01  0.28124268420E-01  0.28022315113E-02  0.41897157519E-01  0.51100000000E-03 0. -1.
         11    1    4    4    0    0 -0.66667593889E-01  0.50342178294E-01 -0.24928647060E-01  0.87181428960E-01  0.51100000000E-03 0.  1.
</event>
<event>
 8    1  0.1084146E+005  0.1043930E+01  0.7957747E-01            NaN
         13   -1    0    0    0    0  0.00000000000E+00  0.00000000000E+00  0.74505805969E-08  0.10566000000E+00  0.10566000000E+00 0.  1.
     999900   -1    0    0    0    0 -0.00000000000E+00 -0.00000000000E+00 -0.74505805969E-08  0.93827000000E+00  0.93827000000E+00 0.  1.
     999902    2    1    2    0    0  0.62836565170E-02 -0.41043732768E-03 -0.23185960978E-01  0.10199041476E+01  0.10196211202E+01 0.  0.
     999903    2    3    3    0    0  0.11383916981E+00  0.60165819226E-01 -0.15712094734E-01  0.13125712543E+00  0.20056935719E-01 0.  0.
         14    1    1    2    0    0 -0.62836565170E-02  0.41043732768E-03  0.23185960978E-01  0.24025852420E-01  0.00000000000E+00 0.  1.
     999901    1    3    3    0    0 -0.10755551329E+00 -0.60576256553E-01 -0.74738662443E-02  0.88864702215E+00  0.88000000000E+00 0.  1.
        -11    1    4    4    0    0  0.86315508992E-01  0.45875008845E-01 -0.20489056328E-01  0.99874651836E-01  0.51100000000E-03 0.  1.
         11    1    4    4    0    0  0.27523660813E-01  0.14290810380E-01  0.47769615940E-02  0.31382473595E-01  0.51100000000E-03 0. -1.
</event>
<event>
 8    1  0.1084146E+005  0.1043930E+01  0.7957747E-01            NaN
         13   -1    0    0    0    0  0.00000000000E+00  0.00000000000E+00  0.74505805969E-08  0.10566000000E+00  0.10566000000E+00 0.  1.
     999900   -1    0    0    0    0 -0.00000000000E+00 -0.00000000000E+00 -0.74505805969E-08  0.93827000000E+00  0.93827000000E+00 0. -1.
     999902    2    1    2    0    0  0.17862311934E-01 -0.55389746082E-02 -0.13313471455E-01  0.10209737166E+01  0.10207156014E+01 0.  0.
     999903    2    3    3    0    0  0.90648183184E-01  0.29023776716E-01  0.88380401245E-01  0.13146036051E+00  0.20279505242E-01 0.  0.
         14    1    1    2    0    0 -0.17862311934E-01  0.55389746082E-02  0.13313471455E-01  0.22956283443E-01  0.00000000000E+00 0.  1.
     999901    1    3    3    0    0 -0.72785871250E-01 -0.34562751324E-01 -0.10169387270E+00  0.88951335604E+00  0.88000000000E+00 0. -1.
        -11    1    4    4    0    0  0.30927020357E-01  0.30558208952E-02  0.38187587387E-01  0.49237907967E-01  0.51100000000E-03 0. -1.
         11    1    4    4    0    0  0.59721162827E-01  0.25967955821E-01  0.50192813858E-01  0.82222452548E-01  0.51100000000E-03 0.  1.
</event>
<event>
 8    1  0.1084146E+005  0.1043930E+01  0.7957747E-01            NaN
         13   -1    0    0    0    0  0.00000000000E+00  0.00000000000E+00  0.74505805969E-08  0.10566000000E+00  0.10566000000E+00 0.  1.
     999900   -1    0    0    0    0 -0.00000000000E+00 -0.00000000000E+00 -0.74505805969E-08  0.93827000000E+00  0.93827000000E+00 0. -1.
     999902    2    1    2    0    0 -0.69766258706E-02  0.12755525069E-01 -0.18850750115E-01  0.10201239607E+01  0.10198461490E+01 0.  0.
     999903    2    3    3    0    0  0.21738193607E-02  0.12310117004E+00  0.42043697227E-01  0.13109751240E+00  0.16132629266E-01 0.  0.
         14    1    1    2    0    0  0.69766258706E-02 -0.12755525069E-01  0.18850750115E-01  0.23806039323E-01  0.00000000000E+00 0.  1.
     999901    1    3    3    0    0 -0.91504452313E-02 -0.11034564497E+00 -0.60894447343E-01  0.88902644827E+00  0.88000000000E+00 0.  1.
        -11    1    4    4    0    0  0.51964099857E-02  0.11729680587E+00  0.38100595947E-01  0.12344010644E+00  0.51100000000E-03 0.  1.
         11    1    4    4    0    0 -0.30225906250E-02  0.58043641626E-02  0.39431012805E-02  0.76574059659E-02  0.51100000000E-03 0. -1.
</event>
<event>
 8    1  0.1084146E+005  0.1043930E+01  0.7957747E-01            NaN
         13   -1    0    0    0    0  0.00000000000E+00  0.00000000000E+00  0.74505805969E-08  0.10566000000E+00  0.10566000000E+00 0. -1.
     999900   -1    0    0    0    0 -0.00000000000E+00 -0.00000000000E+00 -0.74505805969E-08  0.93827000000E+00  0.93827000000E+00 0. -1.
     999902    2    1    2    0    0  0.15607325312E-01 -0.16735977397E-01  0.72693821366E-02  0.10199190554E+01  0.10196363833E+01 0.  0.
     999903    2    3    3    0    0  0.48879455400E-02  0.11161572021E+00  0.61142955662E-01  0.12891320510E+00  0.19954759133E-01 0.  0.
         14    1    1    2    0    0 -0.15607325312E-01  0.16735977397E-01 -0.72693821366E-02  0.24010944577E-01  0.00000000000E+00 0.  1.
     999901    1    3    3    0    0  0.10719379772E-01 -0.12835169761E+00 -0.53873573525E-01  0.89100585032E+00  0.88000000000E+00 0. -1.
        -11    1    4    4    0    0  0.46205813527E-02  0.19180271927E-01  0.36939640144E-02  0.20078323994E-01  0.51100000000E-03 0.  1.
         11    1    4    4    0    0  0.26736418725E-03  0.92435448286E-01  0.57448991647E-01  0.10883488111E+00  0.51100000000E-03 0. -1.
</event>
<event>
 8    1  0.1383519E+005  0.1043930E+01  0.7957747E-01            NaN
         13   -1    0    0    0    0  0.00000000000E+00  0.00000000000E+00  0.74505805969E-08  0.10566000000E+00  0.10566000000E+00 0.  1.
     999900   -1    0    0    0    0 -0.00000000000E+00 -0.00000000000E+00 -0.74505805969E-08  0.93827000000E+00  0.93827000000E+00 0. -1.
     999902    2    1    2    0    0 -0.21187340723E-01  0.10848413591E-01 -0.73478325625E-03  0.10201154794E+01  0.10198374674E+01 0.  0.
     999903    2    3    3    0    0  0.57410380080E-01 -0.14913380636E-01  0.11252262625E+00  0.12901025972E+00  0.21539383260E-01 0.  0.
         14    1    1    2    0    0  0.21187340723E-01 -0.10848413591E-01  0.73478325625E-03  0.23814520586E-01  0.00000000000E+00 0.  1.
     999901    1    3    3    0    0 -0.78597720802E-01  0.25761794227E-01 -0.11325740951E+00  0.89110521969E+00  0.88000000000E+00 0. -1.
        -11    1    4    4    0    0  0.39198538368E-01 -0.13799511358E-03  0.62784930791E-01  0.74018599745E-01  0.51100000000E-03 0. -1.
         11    1    4    4    0    0  0.18211841712E-01 -0.14775385522E-01  0.49737695462E-01  0.54991659974E-01  0.51100000000E-03 0.  1.
</event>
<event>
 8    1  0.1084146E+005  0.1043930E+01  0.7957747E-01            NaN
         13   -1    0    0    0    0  0.00000000000E+00  0.00000000000E+00  0.74505805969E-08  0.10566000000E+00  0.10566000000E+00 0. -1.
     999900   -1    0    0    0    0 -0.00000000000E+00 -0.00000000000E+00 -0.74505805969E-08  0.93827000000E+00  0.93827000000E+00 0. -1.
     999902    2    1    2    0    0  0.43954767319E-02 -0.92431853040E-03  0.23057467117E-01  0.10204391216E+01  0.10201687015E+01 0.  0.
     999903    2    3    3    0    0 -0.55445779992E-01  0.98743521900E-01 -0.58596538694E-01  0.12904581269E+00  0.19868311172E-01 0.  0.
         14    1    1    2    0    0 -0.43954767319E-02  0.92431853040E-03 -0.23057467117E-01  0.23490878449E-01  0.00000000000E+00 0.  1.
     999901    1    3    3    0    0  0.59841256724E-01 -0.99667840431E-01  0.81654005811E-01  0.89139330886E+00  0.88000000000E+00 0.  1.
        -11    1    4    4    0    0 -0.54780142657E-02  0.21677112174E-01 -0.58025333073E-02  0.23104898751E-01  0.51100000000E-03 0. -1.
         11    1    4    4    0    0 -0.49967765727E-01  0.77066409726E-01 -0.52794005387E-01  0.10594091394E+00  0.51100000000E-03 0.  1.
</event>
<event>
 8    1  0.1084146E+005  0.1043930E+01  0.7957747E-01            NaN
         13   -1    0    0    0    0  0.00000000000E+00  0.00000000000E+00  0.74505805969E-08  0.10566000000E+00  0.10566000000E+00 0. -1.
     999900   -1    0    0    0    0 -0.00000000000E+00 -0.00000000000E+00 -0.74505805969E-08  0.93827000000E+00  0.93827000000E+00 0.  1.
     999902    2    1    2    0    0 -0.10447819918E-01 -0.32052243912E-03 -0.20919648672E-01  0.10205442912E+01  0.10202763150E+01 0.  0.
     999903    2    3    3    0    0 -0.16753486657E-01 -0.10620034630E+00 -0.74929654258E-01  0.13253112731E+00  0.19770021457E-01 0.  0.
         14    1    1    2    0    0  0.10447819918E-01  0.32052243912E-03  0.20919648672E-01  0.23385708803E-01  0.00000000000E+00 0. -1.
     999901    1    3    3    0    0  0.63056667387E-02  0.10587982386E+00  0.54010005587E-01  0.88801316389E+00  0.88000000000E+00 0. -1.
        -11    1    4    4    0    0 -0.16733738916E-01 -0.10195236521E+00 -0.65917337053E-01  0.12255471935E+00  0.51100000000E-03 0.  1.
         11    1    4    4    0    0 -0.19747741281E-04 -0.42479810939E-02 -0.90123172052E-02  0.99764079585E-02  0.51100000000E-03 0. -1.
</event>
<event>
 8    1  0.1084146E+005  0.1043930E+01  0.7957747E-01            NaN
         13   -1    0    0    0    0  0.00000000000E+00  0.00000000000E+00  0.74505805969E-08  0.10566000000E+00  0.10566000000E+00 0. -1.
     999900   -1    0    0    0    0 -0.00000000000E+00 -0.00000000000E+00 -0.74505805969E-08  0.93827000000E+00  0.93827000000E+00 0. -1.
     999902    2    1    2    0    0  0.62982603821E-03 -0.43530666363E-02 -0.25926690019E-01  0.10176328685E+01  0.10172930335E+01 0.  0.
     999903    2    3    3    0    0 -0.10435051907E+00  0.69059433505E-01 -0.20327282339E-01  0.12834010377E+00  0.19993690039E-01 0.  0.
         14    1    1    2    0    0 -0.62982603821E-03  0.43530666363E-02  0.25926690019E-01  0.26297131504E-01  0.00000000000E+00 0. -1.
     999901    1    3    3    0    0  0.10498034511E+00 -0.73412500142E-01 -0.55994076805E-02  0.88929276473E+00  0.88000000000E+00 0.  1.
        -11    1    4    4    0    0 -0.40199596787E-01  0.34856496937E-01 -0.15766279160E-01  0.55496122748E-01  0.51100000000E-03 0. -1.
         11    1    4    4    0    0 -0.64150922281E-01  0.34202936569E-01 -0.45610031791E-02  0.72843981017E-01  0.51100000000E-03 0.  1.
</event>
<event>
 8    1  0.1084146E+005  0.1043930E+01  0.7957747E-01            NaN
         13   -1    0    0    0    0  0.00000000000E+00  0.00000000000E+00  0.74505805969E-08  0.10566000000E+00  0.10566000000E+00 0.  1.
     999900   -1    0    0    0    0 -0.00000000000E+00 -0.00000000000E+00 -0.74505805969E-08  0.93827000000E+00  0.93827000000E+00 0.  1.
     999902    2    1    2    0    0 -0.60674355562E-02 -0.19919830663E-01 -0.12927509712E-01  0.10194201258E+01  0.10191254382E+01 0.  0.
     999903    2    3    3    0    0 -0.89376449251E-01  0.87265946362E-01 -0.23991113600E-01  0.12894183524E+00  0.21140678035E-01 0.  0.
         14    1    1    2    0    0  0.60674355562E-02  0.19919830663E-01  0.12927509712E-01  0.24509874240E-01  0.00000000000E+00 0.  1.
     999901    1    3    3    0    0  0.83309013694E-01 -0.10718577703E+00  0.11063603888E-01  0.89047829052E+00  0.88000000000E+00 0.  1.
        -11    1    4    4    0    0 -0.29905464092E-01  0.17020291820E-01 -0.10051923522E-01  0.35851490955E-01  0.51100000000E-03 0.  1.
         11    1    4    4    0    0 -0.59470985158E-01  0.70245654543E-01 -0.13939190078E-01  0.93090344284E-01  0.51100000000E-03 0. -1.
</event>
<event>
 8    1  0.1084146E+005  0.1043930E+01  0.7957747E-01            NaN
         13   -1    0    0    0    0  0.00000000000E+00  0.00000000000E+00  0.74505805969E-08  0.10566000000E+00  0.10566000000E+00 0.  1.
     999900   -1    0    0    0    0 -0.00000000000E+00 -0.00000000000E+00 -0.74505805969E-08  0.93827000000E+00  0.93827000000E+00 0. -1.
     999902    2    1    2    0    0  0.21003208261E-01  0.44787118352E-02 -0.11029397245E-01  0.10197878953E+01  0.10195020893E+01 0.  0.
     999903    2    3    3    0    0 -0.77623855857E-01 -0.99437122762E-01 -0.14783706122E-01  0.12819387707E+00  0.17375493405E-01 0.  0.
         14    1    1    2    0    0 -0.21003208261E-01 -0.44787118352E-02  0.11029397245E-01  0.24142104725E-01  0.00000000000E+00 0.  1.
     999901    1    3    3    0    0  0.98627064119E-01  0.10391583460E+00  0.37543088765E-02  0.89159401820E+00  0.88000000000E+00 0. -1.
        -11    1    4    4    0    0 -0.16534563102E-01 -0.30715967620E-01 -0.91730070705E-02  0.36073087247E-01  0.51100000000E-03 0. -1.
         11    1    4    4    0    0 -0.61089292756E-01 -0.68721155142E-01 -0.56106990515E-02  0.92120789827E-01  0.51100000000E-03 0.  1.
</event>
<event>
 8    1  0.1084146E+005  0.1043930E+01  0.7957747E-01            NaN
         13   -1    0    0    0    0  0.00000000000E+00  0.00000000000E+00  0.74505805969E-08  0.10566000000E+00  0.10566000000E+00 0.  1.
     999900   -1    0    0    0    0 -0.00000000000E+00 -0.00000000000E+00 -0.74505805969E-08  0.93827000000E+00  0.93827000000E+00 0.  1.
     999902    2    1    2    0    0 -0.11875206830E-01 -0.91553712340E-02  0.20259703221E-01  0.10187249026E+01  0.10184130450E+01 0.  0.
     999903    2    3    3    0    0  0.75996478665E-01 -0.89211056196E-01  0.52647566520E-01  0.13014214367E+00  0.20763766054E-01 0.  0.
         14    1    1    2    0    0  0.11875206830E-01  0.91553712340E-02 -0.20259703221E-01  0.25205097387E-01  0.00000000000E+00 0. -1.
     999901    1    3    3    0    0 -0.87871685495E-01  0.80055684962E-01 -0.32387863298E-01  0.88858275895E+00  0.88000000000E+00 0.  1.
        -11    1    4    4    0    0  0.17282038282E-01 -0.24934391898E-01  0.45514801640E-02  0.30681750915E-01  0.51100000000E-03 0.  1.
         11    1    4    4    0    0  0.58714440382E-01 -0.64276664298E-01  0.48096086355E-01  0.99460392752E-01  0.51100000000E-03 0. -1.
</event>
<event>
 8    1  0.1084146E+005  0.1043930E+01  0.7957747E-01            NaN
         13   -1    0    0    0    0  0.00000000000E+00  0.00000000000E+00  0.74505805969E-08  0.10566000000E+00  0.10566000000E+00 0. -1.
     999900   -1    0    0    0    0 -0.00000000000E+00 -0.00000000000E+00 -0.74505805969E-08  0.93827000000E+00  0.93827000000E+00 0. -1.
     999902    2    1    2    0    0 -0.64453762631E-03  0.14181775795E-01  0.18703953929E-01  0.10204486013E+01  0.10201784019E+01 0.  0.
     999903    2    3    3    0    0  0.40744071917E-01 -0.10292254608E+00  0.66883579182E-01  0.13042179522E+00  0.16831566080E-01 0.  0.
         14    1    1    2    0    0  0.64453762631E-03 -0.14181775795E-01 -0.18703953929E-01  0.23481398724E-01  0.00000000000E+00 0.  1.
     999901    1    3    3    0    0 -0.41388609543E-01  0.11710432188E+00 -0.48179625253E-01  0.89002680605E+00  0.88000000000E+00 0. -1.
        -11    1    4    4    0    0  0.31494882823E-01 -0.73179620114E-01  0.39408124998E-01  0.88884452414E-01  0.51100000000E-03 0. -1.
         11    1    4    4    0    0  0.92491890931E-02 -0.29742925968E-01  0.27475454184E-01  0.41537342810E-01  0.51100000000E-03 0.  1.
</event>
<event>
 7    1  0.1084146E+005  0.1043930E+01  0.7957747E-01            NaN
         13   -1    0    0    0    0  0.00000000000E+00  0.00000000000E+00  0.74505805969E-08  0.10566000000E+00  0.10566000000E+00 0. -1.
     999900   -1    0    0    0    0 -0.00000000000E+00 -0.00000000000E+00 -0.74505805969E-08  0.93827000000E+00  0.93827000000E+00 0. -1.
     999903    2    1    2    0    0  0.17867524085E-01 -0.94277305807E-01  0.53107069742E-02  0.98201262050E-01  0.20194688719E-01 0.  0.
         14    1    1    2    0    0  0.32013809763E-01  0.53447428255E-01 -0.11473504712E-01  0.63349450771E-01  0.00000000000E+00 0.  1.
     999901    1    1    2    0    0 -0.49881333848E-01  0.40829877552E-01  0.61627977375E-02  0.88237928718E+00  0.88000000000E+00 0. -1.
        -11    1    3    3    0    0 -0.95110537337E-04 -0.34514338666E-01 -0.52266922716E-02  0.34911717985E-01  0.51100000000E-03 0. -1.
         11    1    3    3    0    0  0.17962634623E-01 -0.59762967141E-01  0.10537399246E-01  0.63289544065E-01  0.51100000000E-03 0.  1.
</event>
<event>
 8    1  0.1084146E+005  0.1043930E+01  0.7957747E-01            NaN
         13   -1    0    0    0    0  0.00000000000E+00  0.00000000000E+00  0.74505805969E-08  0.10566000000E+00  0.10566000000E+00 0.  1.
     999900   -1    0    0    0    0 -0.00000000000E+00 -0.00000000000E+00 -0.74505805969E-08  0.93827000000E+00  0.93827000000E+00 0. -1.
     999902    2    1    2    0    0 -0.16011711106E-01 -0.59271883174E-02 -0.17194082341E-01  0.10196989678E+01  0.10194110270E+01 0.  0.
     999903    2    3    3    0    0  0.73876043520E-01  0.89503457816E-01  0.49090149216E-01  0.12752162220E+00  0.19580158602E-01 0.  0.
         14    1    1    2    0    0  0.16011711106E-01  0.59271883174E-02  0.17194082341E-01  0.24231032199E-01  0.00000000000E+00 0.  1.
     999901    1    3    3    0    0 -0.89887754626E-01 -0.95430646134E-01 -0.66284231557E-01  0.89217734560E+00  0.88000000000E+00 0. -1.
        -11    1    4    4    0    0  0.38424639726E-01  0.43596147576E-01  0.14172803489E-01  0.59818111817E-01  0.51100000000E-03 0. -1.
         11    1    4    4    0    0  0.35451403794E-01  0.45907310240E-01  0.34917345727E-01  0.67703510382E-01  0.51100000000E-03 0.  1.
</event>
<event>
 8    1  0.1084146E+005  0.1043930E+01  0.7957747E-01            NaN
         13   -1    0    0    0    0  0.00000000000E+00  0.00000000000E+00  0.74505805969E-08  0.10566000000E+00  0.10566000000E+00 0.  1.
     999900   -1    0    0    0    0 -0.00000000000E+00 -0.00000000000E+00 -0.74505805969E-08  0.93827000000E+00  0.93827000000E+00 0.  1.
     999902    2    1    2    0    0 -0.36595346835E-02 -0.59856092421E-02  0.22903074122E-01  0.10199764926E+01  0.10196951873E+01 0.  0.
     999903    2    3    3    0    0 -0.19117599330E-01 -0.99442189411E-02 -0.12414540435E+00  0.12763245729E+00  0.20336977096E-01 0.  0.
         14    1    1    2    0    0  0.36595346835E-02  0.59856092421E-02 -0.22903074122E-01  0.23953507391E-01  0.00000000000E+00 0. -1.
     999901    1    3    3    0    0  0.15458064646E-01  0.39586096989E-02  0.14704847847E+00  0.89234403532E+00  0.88000000000E+00 0. -1.
        -11    1    4    4    0    0  0.23801836078E-02  0.27765062037E-02 -0.30069041019E-01  0.30294927125E-01  0.51100000000E-03 0. -1.
         11    1    4    4    0    0 -0.21497782938E-01 -0.12720725145E-01 -0.94076363331E-01  0.97337530162E-01  0.51100000000E-03 0.  1.
</event>
<event>
 8    1  0.1084146E+005  0.1043930E+01  0.7957747E-01            NaN
         13   -1    0    0    0    0  0.00000000000E+00  0.00000000000E+00  0.74505805969E-08  0.10566000000E+00  0.10566000000E+00 0.  1.
     999900   -1    0    0    0    0 -0.00000000000E+00 -0.00000000000E+00 -0.74505805969E-08  0.93827000000E+00  0.93827000000E+00 0.  1.
     999902    2    1    2    0    0  0.56089666118E-02  0.20715989369E-01 -0.99062056363E-02  0.10202921991E+01  0.10200183459E+01 0.  0.
     999903    2    3    3    0    0 -0.10022247887E+00  0.70074376216E-01 -0.45145221325E-01  0.13187881927E+00  0.19974195622E-01 0.  0.
         14    1    1    2    0    0 -0.56089666118E-02 -0.20715989369E-01  0.99062056363E-02  0.23637800915E-01  0.00000000000E+00 0.  1.
     999901    1    3    3    0    0  0.10583144548E+00 -0.49358386847E-01  0.35239015688E-01  0.88841337981E+00  0.88000000000E+00 0. -1.
        -11    1    4    4    0    0 -0.25010992601E-01  0.23940411272E-01 -0.20613544722E-01  0.40297300031E-01  0.51100000000E-03 0.  1.
         11    1    4    4    0    0 -0.75211486271E-01  0.46133964943E-01 -0.24531676603E-01  0.91581519241E-01  0.51100000000E-03 0. -1.
</event>
<event>
 8    1  0.1084146E+005  0.1043930E+01  0.7957747E-01            NaN
         13   -1    0    0    0    0  0.00000000000E+00  0.00000000000E+00  0.74505805969E-08  0.10566000000E+00  0.10566000000E+00 0. -1.
     999900   -1    0    0    0    0 -0.00000000000E+00 -0.00000000000E+00 -0.74505805969E-08  0.93827000000E+00  0.93827000000E+00 0. -1.
     999902    2    1    2    0    0  0.24863388653E-01 -0.21952248545E-02 -0.13860079646E-02  0.10189314375E+01  0.10186247328E+01 0.  0.
     999903    2    3    3    0    0  0.10707368707E+00 -0.74770334769E-01  0.15072704815E-02  0.13212026777E+00  0.19952841098E-01 0.  0.
         14    1    1    2    0    0 -0.24863388653E-01  0.21952248545E-02  0.13860079646E-02  0.24998562470E-01  0.00000000000E+00 0. -1.
     999901    1    3    3    0    0 -0.82210298418E-01  0.72575109914E-01 -0.28932784461E-02  0.88681116976E+00  0.88000000000E+00 0. -1.
        -11    1    4    4    0    0  0.45807275324E-01 -0.28225107671E-01  0.99344940659E-02  0.54716711058E-01  0.51100000000E-03 0.  1.
         11    1    4    4    0    0  0.61266411747E-01 -0.46545227097E-01 -0.84272235844E-02  0.77403556716E-01  0.51100000000E-03 0. -1.
</event>
<event>
 8    1  0.1084146E+005  0.1043930E+01  0.7957747E-01            NaN
         13   -1    0    0    0    0  0.00000000000E+00  0.00000000000E+00  0.74505805969E-08  0.10566000000E+00  0.10566000000E+00 0. -1.
     999900   -1    0    0    0    0 -0.00000000000E+00 -0.00000000000E+00 -0.74505805969E-08  0.93827000000E+00  0.93827000000E+00 0. -1.
     999902    2    1    2    0    0  0.97448948692E-02  0.49849948084E-02 -0.20998268108E-01  0.10202500420E+01  0.10199751996E+01 0.  0.
     999903    2    3    3    0    0  0.18308369478E-01  0.94152624855E-01 -0.89933710000E-01  0.13302048063E+00  0.20160925398E-01 0.  0.
         14    1    1    2    0    0 -0.97448948692E-02 -0.49849948084E-02  0.20998268108E-01  0.23679958040E-01  0.00000000000E+00 0. -1.
     999901    1    3    3    0    0 -0.85634746090E-02 -0.89167630047E-01  0.68935441892E-01  0.88722956133E+00  0.88000000000E+00 0.  1.
        -11    1    4    4    0    0 -0.38477313690E-02  0.20708463955E-01 -0.15764274333E-01  0.26313855329E-01  0.51100000000E-03 0. -1.
         11    1    4    4    0    0  0.22156100847E-01  0.73444160901E-01 -0.74169435668E-01  0.10670662530E+00  0.51100000000E-03 0.  1.
</event>
<event>
 8    1  0.1084146E+005  0.1043930E+01  0.7957747E-01            NaN
         13   -1    0    0    0    0  0.00000000000E+00  0.00000000000E+00  0.74505805969E-08  0.10566000000E+00  0.10566000000E+00 0.  1.
     999900   -1    0    0    0    0 -0.00000000000E+00 -0.00000000000E+00 -0.74505805969E-08  0.93827000000E+00  0.93827000000E+00 0.  1.
     999902    2    1    2    0    0 -0.18530885063E-02  0.19472653598E-01  0.14848277013E-01  0.10193721193E+01  0.10190762621E+01 0.  0.
     999903    2    3    3    0    0 -0.67902800500E-01 -0.10451989791E+00 -0.17484270685E-01  0.12764227739E+00  0.21252102958E-01 0.  0.
         14    1    1    2    0    0  0.18530885063E-02 -0.19472653598E-01 -0.14848277013E-01  0.24557880719E-01  0.00000000000E+00 0. -1.
     999901    1    3    3    0    0  0.66049711994E-01  0.12399255151E+00  0.32332547698E-01  0.89172984189E+00  0.88000000000E+00 0. -1.
        -11    1    4    4    0    0 -0.35071009079E-01 -0.53979457729E-01 -0.19730934049E-01  0.67329996391E-01  0.51100000000E-03 0.  1.
         11    1    4    4    0    0 -0.32831791422E-01 -0.50540440181E-01  0.22466633649E-02  0.60312280996E-01  0.51100000000E-03 0. -1.
</event>
<event>
 8    1  0.1084146E+005  0.1043930E+01  0.7957747E-01            NaN
         13   -1    0    0    0    0  0.00000000000E+00  0.00000000000E+00  0.74505805969E-08  0.10566000000E+00  0.10566000000E+00 0. -1.
     999900   -1    0    0    0    0 -0.00000000000E+00 -0.00000000000E+00 -0.74505805969E-08  0.93827000000E+00  0.93827000000E+00 0.  1.
     999902    2    1    2    0    0 -0.15023419128E-01 -0.59411570246E-03 -0.19108585062E-01  0.10196155163E+01  0.10193255647E+01 0.  0.
     999903    2    3    3    0    0  0.12368963181E+00  0.26603341913E-01  0.10663662983E-02  0.12810665997E+00  0.20082738233E-01 0.  0.
         14    1    1    2    0    0  0.15023419128E-01  0.59411570246E-03  0.19108585062E-01  0.24314483726E-01  0.00000000000E+00 0. -1.
     999901    1    3    3    0    0 -0.13871305094E+00 -0.27197457615E-01 -0.20174951361E-01  0.89150885630E+00  0.88000000000E+00 0. -1.
        -11    1    4    4    0    0  0.55513046986E-01  0.12169558812E-01  0.10455745129E-01  0.57787371237E-01  0.51100000000E-03 0. -1.
         11    1    4    4    0    0  0.68176584822E-01  0.14433783101E-01 -0.93893788306E-02  0.70319288736E-01  0.51100000000E-03 0.  1.
</event>
<event>
 8    1  0.1084146E+005  0.1043930E+01  0.7957747E-01            NaN
         13   -1    0    0    0    0  0.00000000000E+00  0.00000000000E+00  0.74505805969E-08  0.10566000000E+00  0.10566000000E+00 0. -1.
     999900   -1    0    0    0    0 -0.00000000000E+00 -0.00000000000E+00 -0.74505805969E-08  0.93827000000E+00  0.93827000000E+00 0. -1.
     999902    2    1    2    0    0 -0.20976852193E-01  0.10395266061E-01 -0.24683938556E-02  0.10203889114E+01  0.10201173205E+01 0.  0.
     999903    2    3    3    0    0  0.11620127877E+00 -0.34197465470E-01 -0.36187783255E-01  0.12800819189E+00  0.20108150127E-01 0.  0.
         14    1    1    2    0    0  0.20976852193E-01 -0.10395266061E-01  0.24683938556E-02  0.23541088604E-01  0.00000000000E+00 0.  1.
     999901    1    3    3    0    0 -0.13717813097E+00  0.44592731531E-01  0.33719389400E-01  0.89238071950E+00  0.88000000000E+00 0. -1.
        -11    1    4    4    0    0  0.88058819361E-01 -0.34149387362E-01 -0.24857805616E-01  0.97666309163E-01  0.51100000000E-03 0.  1.
         11    1    4    4    0    0  0.28142459412E-01 -0.48078108088E-04 -0.11329977639E-01  0.30341882730E-01  0.51100000000E-03 0. -1.
</event>
<event>
 8    1  0.1084146E+005  0.1043930E+01  0.7957747E-01            NaN
         13   -1    0    0    0    0  0.00000000000E+00  0.00000000000E+00  0.74505805969E-08  0.10566000000E+00  0.10566000000E+00 0. -1.
     999900   -1    0    0    0    0 -0.00000000000E+00 -0.00000000000E+00 -0.74505805969E-08  0.93827000000E+00  0.93827000000E+00 0. -1.
     999902    2    1    2    0    0 -0.20393424155E-01 -0.19441607379E-02 -0.10903988001E-01  0.10207229221E+01  0.10204590708E+01 0.  0.
     999903    2    3    3    0    0  0.72771475028E-01  0.77024003089E-02  0.10355641038E+00  0.12838109446E+00  0.20068899701E-01 0.  0.
         14    1    1    2    0    0  0.20393424155E-01  0.19441607379E-02  0.10903988001E-01  0.23207077888E-01  0.00000000000E+00 0. -1.
     999901    1    3    3    0    0 -0.93164899183E-01 -0.96465610467E-02 -0.11446039838E+00  0.89234182765E+00  0.88000000000E+00 0. -1.
        -11    1    4    4    0    0  0.37569595750E-01  0.52349875793E-02  0.70331442353E-01  0.79910277964E-01  0.51100000000E-03 0. -1.
         11    1    4    4    0    0  0.35201879278E-01  0.24674127295E-02  0.33224968029E-01  0.48470816496E-01  0.51100000000E-03 0.  1.
</event>
<event>
 8    1  0.1084146E+005  0.1043930E+01  0.7957747E-01            NaN
         13   -1    0    0    0    0  0.00000000000E+00  0.00000000000E+00  0.74505805969E-08  0.10566000000E+00  0.10566000000E+00 0. -1.
     999900   -1    0    0    0    0 -0.00000000000E+00 -0.00000000000E+00 -0.74505805969E-08  0.93827000000E+00  0.93827000000E+00 0. -1.
     999902    2    1    2    0    0  0.68231950442E-02  0.19356113328E-02  0.23487401694E-01  0.10193951142E+01  0.10190998176E+01 0.  0.
     999903    2    3    3    0    0  0.72395985283E-01  0.50592328139E-01 -0.90938620800E-01  0.12823823604E+00  0.19350712587E-01 0.  0.
         14    1    1    2    0    0 -0.68231950442E-02 -0.19356113328E-02 -0.23487401694E-01  0.24534885778E-01  0.00000000000E+00 0.  1.
     999901    1    3    3    0    0 -0.65572790239E-01 -0.48656716806E-01  0.11442602249E+00  0.89115687818E+00  0.88000000000E+00 0.  1.
        -11    1    4    4    0    0  0.26878496809E-01  0.19027331256E-01 -0.21166636199E-01  0.39150741173E-01  0.51100000000E-03 0.  1.
         11    1    4    4    0    0  0.45517488474E-01  0.31564996883E-01 -0.69771984600E-01  0.89087494865E-01  0.51100000000E-03 0. -1.
</event>
<event>
 8    1  0.1084146E+005  0.1043930E+01  0.7957747E-01            NaN
         13   -1    0    0    0    0  0.00000000000E+00  0.00000000000E+00  0.74505805969E-08  0.10566000000E+00  0.10566000000E+00 0. -1.
     999900   -1    0    0    0    0 -0.00000000000E+00 -0.00000000000E+00 -0.74505805969E-08  0.93827000000E+00  0.93827000000E+00 0. -1.
     999902    2    1    2    0    0  0.82897313901E-02  0.55756131457E-02  0.21450457047E-01  0.10202671765E+01  0.10199927364E+01 0.  0.
     999903    2    3    3    0    0  0.84174860228E-01  0.37734865362E-01 -0.88772715788E-01  0.12956974296E+00  0.19959861328E-01 0.  0.
         14    1    1    2    0    0 -0.82897313901E-02 -0.55756131457E-02 -0.21450457047E-01  0.23662823500E-01  0.00000000000E+00 0.  1.
     999901    1    3    3    0    0 -0.75885128838E-01 -0.32159252216E-01  0.11022317284E+00  0.89069743354E+00  0.88000000000E+00 0.  1.
        -11    1    4    4    0    0  0.36955246205E-01  0.26384746447E-01 -0.36930493310E-01  0.58531765087E-01  0.51100000000E-03 0.  1.
         11    1    4    4    0    0  0.47219614023E-01  0.11350118916E-01 -0.51842222479E-01  0.71037977874E-01  0.51100000000E-03 0. -1.
</event>
<event>
 8    1  0.1084146E+005  0.1043930E+01  0.7957747E-01            NaN
         13   -1    0    0    0    0  0.00000000000E+00  0.00000000000E+00  0.74505805969E-08  0.10566000000E+00  0.10566000000E+00 0.  1.
     999900   -1    0    0    0    0 -0.00000000000E+00 -0.00000000000E+00 -0.74505805969E-08  0.93827000000E+00  0.93827000000E+00 0. -1.
     999902    2    1    2    0    0 -0.14585078252E-01  0.70062012458E-02 -0.15691678101E-01  0.10213902545E+01  0.10211415240E+01 0.  0.
     999903    2    3    3    0    0 -0.11833404379E+00 -0.28591347070E-01  0.47831545142E-01  0.13230857484E+00  0.19932165417E-01 0.  0.
         14    1    1    2    0    0  0.14585078252E-01 -0.70062012458E-02  0.15691678101E-01  0.22539745454E-01  0.00000000000E+00 0.  1.
     999901    1    3    3    0    0  0.10374896554E+00  0.35597548316E-01 -0.63523223243E-01  0.88908167971E+00  0.88000000000E+00 0. -1.
        -11    1    4    4    0    0 -0.36414226360E-01 -0.82803422300E-02  0.50617486951E-02  0.37688756542E-01  0.51100000000E-03 0. -1.
         11    1    4    4    0    0 -0.81919817432E-01 -0.20311004840E-01  0.42769796447E-01  0.94619818298E-01  0.51100000000E-03 0.  1.
</event>
<event>
 8    1  0.1084146E+005  0.1043930E+01  0.7957747E-01            NaN
         13   -1    0    0    0    0  0.00000000000E+00  0.00000000000E+00  0.74505805969E-08  0.10566000000E+00  0.10566000000E+00 0.  1.
     999900   -1    0    0    0    0 -0.00000000000E+00 -0.00000000000E+00 -0.74505805969E-08  0.93827000000E+00  0.93827000000E+00 0. -1.
     999902    2    1    2    0    0  0.21316072619E-01 -0.39562842789E-02  0.75183591712E-02  0.10209832603E+01  0.10207253622E+01 0.  0.
     999903    2    3    3    0    0  0.80849427743E-01  0.15644698655E-01  0.10334050582E+00  0.13356548797E+00  0.19470307412E-01 0.  0.
         14    1    1    2    0    0 -0.21316072619E-01  0.39562842789E-02 -0.75183591712E-02  0.22946739677E-01  0.00000000000E+00 0.  1.
     999901    1    3    3    0    0 -0.59533355124E-01 -0.19600982934E-01 -0.95822146647E-01  0.88741777236E+00  0.88000000000E+00 0.  1.
        -11    1    4    4    0    0  0.44874677973E-01  0.17486686591E-01  0.65699070329E-01  0.81462567442E-01  0.51100000000E-03 0. -1.
         11    1    4    4    0    0  0.35974749770E-01 -0.18419879362E-02  0.37641435490E-01  0.52102920525E-01  0.51100000000E-03 0.  1.
</event>
<event>
 8    1  0.1084146E+005  0.1043930E+01  0.7957747E-01            NaN
         13   -1    0    0    0    0  0.00000000000E+00  0.00000000000E+00  0.74505805969E-08  0.10566000000E+00  0.10566000000E+00 0.  1.
     999900   -1    0    0    0    0 -0.00000000000E+00 -0.00000000000E+00 -0.74505805969E-08  0.93827000000E+00  0.93827000000E+00 0. -1.
     999902    2    1    2    0    0  0.10023385813E-01  0.16217451401E-01 -0.10475727649E-01  0.10221764977E+01  0.10219449973E+01 0.  0.
     999903    2    3    3    0    0  0.71007063620E-01 -0.84691347817E-01 -0.70638120288E-01  0.13227700437E+00  0.17112403928E-01 0.  0.
         14    1    1    2    0    0 -0.10023385813E-01 -0.16217451401E-01  0.10475727649E-01  0.21753502313E-01  0.00000000000E+00 0. -1.
     999901    1    3    3    0    0 -0.60983677807E-01  0.10090879922E+00  0.60162392639E-01  0.88989949332E+00  0.88000000000E+00 0.  1.
        -11    1    4    4    0    0  0.57430834046E-01 -0.69399532522E-01 -0.49186738600E-01  0.10263621285E+00  0.51100000000E-03 0. -1.
         11    1    4    4    0    0  0.13576229573E-01 -0.15291815295E-01 -0.21451381688E-01  0.29640791517E-01  0.51100000000E-03 0.  1.
</event>
<event>
 8    1  0.1084146E+005  0.1043930E+01  0.7957747E-01            NaN
         13   -1    0    0    0    0  0.00000000000E+00  0.00000000000E+00  0.74505805969E-08  0.10566000000E+00  0.10566000000E+00 0.  1.
     999900   -1    0    0    0    0 -0.00000000000E+00 -0.00000000000E+00 -0.74505805969E-08  0.93827000000E+00  0.93827000000E+00 0. -1.
     999902    2    1    2    0    0 -0.94441856100E-03 -0.14792740651E-01 -0.17073350482E-01  0.10213199049E+01  0.10210696018E+01 0.  0.
     999903    2    3    3    0    0 -0.65434254271E-01 -0.10084597392E+00  0.51010571612E-01  0.13216327176E+00  0.20334696889E-01 0.  0.
         14    1    1    2    0    0  0.94441856100E-03  0.14792740651E-01  0.17073350482E-01  0.22610095070E-01  0.00000000000E+00 0.  1.
     999901    1    3    3    0    0  0.64489835710E-01  0.86053233271E-01 -0.68083922094E-01  0.88915663317E+00  0.88000000000E+00 0. -1.
        -11    1    4    4    0    0 -0.32249979878E-01 -0.46824219883E-01  0.13295524629E-01  0.58391787658E-01  0.51100000000E-03 0.  1.
         11    1    4    4    0    0 -0.33184274393E-01 -0.54021754038E-01  0.37715046983E-01  0.73771484100E-01  0.51100000000E-03 0. -1.
</event>
<event>
 8    1  0.1084146E+005  0.1043930E+01  0.7957747E-01            NaN
         13   -1    0    0    0    0  0.00000000000E+00  0.00000000000E+00  0.74505805969E-08  0.10566000000E+00  0.10566000000E+00 0.  1.
     999900   -1    0    0    0    0 -0.00000000000E+00 -0.00000000000E+00 -0.74505805969E-08  0.93827000000E+00  0.93827000000E+00 0.  1.
     999902    2    1    2    0    0 -0.18258632082E-01 -0.15895039128E-01 -0.10322437402E-02  0.10196999476E+01  0.10194120303E+01 0.  0.
     999903    2    3    3    0    0 -0.11430871884E+00 -0.65032807232E-01 -0.16080057246E-02  0.13311071295E+00  0.20496999746E-01 0.  0.
         14    1    1    2    0    0  0.18258632082E-01  0.15895039128E-01  0.10322437402E-02  0.24230052446E-01  0.00000000000E+00 0. -1.
     999901    1    3    3    0    0  0.96050086761E-01  0.49137768104E-01  0.57576198439E-03  0.88658923461E+00  0.88000000000E+00 0.  1.
        -11    1    4    4    0    0 -0.93093750164E-01 -0.56568166456E-01 -0.84492893737E-02  0.10926140850E+00  0.51100000000E-03 0.  1.
         11    1    4    4    0    0 -0.21214968680E-01 -0.84646407755E-02  0.68412836491E-02  0.23849304445E-01  0.51100000000E-03 0. -1.
</event>
<event>
 8    1  0.1149074E+005  0.1043930E+01  0.7957747E-01            NaN
         13   -1    0    0    0    0  0.00000000000E+00  0.00000000000E+00  0.74505805969E-08  0.10566000000E+00  0.10566000000E+00 0.  1.
     999900   -1    0    0    0    0 -0.00000000000E+00 -0.00000000000E+00 -0.74505805969E-08  0.93827000000E+00  0.93827000000E+00 0. -1.
     999902    2    1    2    0    0  0.13833643045E-01  0.14363000881E-01 -0.13377491085E-01  0.10199170297E+01  0.10196343093E+01 0.  0.
     999903    2    3    3    0    0  0.36029808991E-01 -0.33094016261E-01  0.11715078650E+00  0.12874787096E+00  0.21409027317E-01 0.  0.
         14    1    1    2    0    0 -0.13833643045E-01 -0.14363000881E-01  0.13377491085E-01  0.24012970286E-01  0.00000000000E+00 0.  1.
     999901    1    3    3    0    0 -0.22196165945E-01  0.47457017143E-01 -0.13052827759E+00  0.89116915875E+00  0.88000000000E+00 0. -1.
        -11    1    4    4    0    0  0.96007856063E-02 -0.13018693506E-01  0.64564142099E-01  0.66561633325E-01  0.51100000000E-03 0. -1.
         11    1    4    4    0    0  0.26429023384E-01 -0.20075322755E-01  0.52586644405E-01  0.62186237638E-01  0.51100000000E-03 0.  1.
</event>
<event>
 8    1  0.1084146E+005  0.1043930E+01  0.7957747E-01            NaN
         13   -1    0    0    0    0  0.00000000000E+00  0.00000000000E+00  0.74505805969E-08  0.10566000000E+00  0.10566000000E+00 0. -1.
     999900   -1    0    0    0    0 -0.00000000000E+00 -0.00000000000E+00 -0.74505805969E-08  0.93827000000E+00  0.93827000000E+00 0. -1.
     999902    2    1    2    0    0  0.51090578689E-02 -0.32868840713E-02 -0.21651080840E-01  0.10214427729E+01  0.10211952130E+01 0.  0.
     999903    2    3    3    0    0 -0.27127925886E-01 -0.56986393413E-01 -0.11429500575E+00  0.13436568652E+00  0.31739816911E-01 0.  0.
         14    1    1    2    0    0 -0.51090578689E-02  0.32868840713E-02  0.21651080840E-01  0.22487227058E-01  0.00000000000E+00 0. -1.
     999901    1    3    3    0    0  0.32236983755E-01  0.53699509341E-01  0.92643924914E-01  0.88707708642E+00  0.88000000000E+00 0.  1.
        -11    1    4    4    0    0 -0.33572300936E-01 -0.47793017609E-01 -0.10314406171E+00  0.11853366825E+00  0.51100000000E-03 0.  1.
         11    1    4    4    0    0  0.64443750500E-02 -0.91933758037E-02 -0.11150944042E-01  0.15832018269E-01  0.51100000000E-03 0. -1.
</event>
<event>
 8    1  0.1084146E+005  0.1043930E+01  0.7957747E-01            NaN
         13   -1    0    0    0    0  0.00000000000E+00  0.00000000000E+00  0.74505805969E-08  0.10566000000E+00  0.10566000000E+00 0. -1.
     999900   -1    0    0    0    0 -0.00000000000E+00 -0.00000000000E+00 -0.74505805969E-08  0.93827000000E+00  0.93827000000E+00 0. -1.
     999902    2    1    2    0    0  0.24586406567E-01 -0.12597306229E-01  0.15387343996E-01  0.10123079528E+01  0.10118139342E+01 0.  0.
     999903    2    3    3    0    0 -0.16913750395E-01 -0.70226579785E-01  0.10054686577E+00  0.12534936284E+00  0.19619966589E-01 0.  0.
         14    1    1    2    0    0 -0.24586406567E-01  0.12597306229E-01 -0.15387343996E-01  0.31622047172E-01  0.00000000000E+00 0.  1.
     999901    1    3    3    0    0  0.41500156962E-01  0.57629273556E-01 -0.85159521771E-01  0.88695858998E+00  0.88000000000E+00 0. -1.
        -11    1    4    4    0    0 -0.18213898316E-01 -0.34662905670E-01  0.55909634728E-01  0.68259882052E-01  0.51100000000E-03 0. -1.
         11    1    4    4    0    0  0.13001479210E-02 -0.35563674115E-01  0.44637231039E-01  0.57089480791E-01  0.51100000000E-03 0.  1.
</event>
<event>
 8    1  0.1084146E+005  0.1043930E+01  0.7957747E-01            NaN
         13   -1    0    0    0    0  0.00000000000E+00  0.00000000000E+00  0.74505805969E-08  0.10566000000E+00  0.10566000000E+00 0.  1.
     999900   -1    0    0    0    0 -0.00000000000E+00 -0.00000000000E+00 -0.74505805969E-08  0.93827000000E+00  0.93827000000E+00 0.  1.
     999902    2    1    2    0    0 -0.20252362442E-01 -0.14943618207E-01  0.12539474901E-02  0.10187299545E+01  0.10184182235E+01 0.  0.
     999903    2    3    3    0    0  0.18511708654E-01 -0.67059127912E-01  0.10807087293E+00  0.12989446064E+00  0.18805513419E-01 0.  0.
         14    1    1    2    0    0  0.20252362442E-01  0.14943618207E-01 -0.12539474901E-02  0.25200045514E-01  0.00000000000E+00 0. -1.
     999901    1    3    3    0    0 -0.38764071095E-01  0.52115509705E-01 -0.10681692544E+00  0.88883549385E+00  0.88000000000E+00 0.  1.
        -11    1    4    4    0    0  0.11869519060E-01 -0.36318973518E-01  0.75475764293E-01  0.84597904447E-01  0.51100000000E-03 0.  1.
         11    1    4    4    0    0  0.66421895933E-02 -0.30740154394E-01  0.32595108639E-01  0.45296556193E-01  0.51100000000E-03 0. -1.
</event>
<event>
 8    1  0.1084146E+005  0.1043930E+01  0.7957747E-01            NaN
         13   -1    0    0    0    0  0.00000000000E+00  0.00000000000E+00  0.74505805969E-08  0.10566000000E+00  0.10566000000E+00 0.  1.
     999900   -1    0    0    0    0 -0.00000000000E+00 -0.00000000000E+00 -0.74505805969E-08  0.93827000000E+00  0.93827000000E+00 0.  1.
     999902    2    1    2    0    0  0.64315602034E-02 -0.19774584440E-01  0.11393441354E-01  0.10202190392E+01  0.10199434682E+01 0.  0.
     999903    2    3    3    0    0  0.94934320516E-01 -0.54280462563E-01  0.73262641397E-01  0.13294727016E+00  0.18672658924E-01 0.  0.
         14    1    1    2    0    0 -0.64315602034E-02  0.19774584440E-01 -0.11393441354E-01  0.23710960805E-01  0.00000000000E+00 0.  1.
     999901    1    3    3    0    0 -0.88502760312E-01  0.34505878123E-01 -0.61869200043E-01  0.88727176903E+00  0.88000000000E+00 0.  1.
        -11    1    4    4    0    0  0.23591481367E-01 -0.10278374246E-01  0.26590481184E-01  0.37006996377E-01  0.51100000000E-03 0.  1.
         11    1    4    4    0    0  0.71342839149E-01 -0.44002088318E-01  0.46672160213E-01  0.95940273786E-01  0.51100000000E-03 0. -1.
</event>
<event>
 8    1  0.1084146E+005  0.1043930E+01  0.7957747E-01            NaN
         13   -1    0    0    0    0  0.00000000000E+00  0.00000000000E+00  0.74505805969E-08  0.10566000000E+00  0.10566000000E+00 0. -1.
     999900   -1    0    0    0    0 -0.00000000000E+00 -0.00000000000E+00 -0.74505805969E-08  0.93827000000E+00  0.93827000000E+00 0.  1.
     999902    2    1    2    0    0  0.17497285743E-01 -0.15854285513E-01  0.36342200926E-03  0.10203154822E+01  0.10200421745E+01 0.  0.
     999903    2    3    3    0    0 -0.67661711325E-01  0.13209459693E-02  0.10866127974E+00  0.12943082669E+00  0.19110549533E-01 0.  0.
         14    1    1    2    0    0 -0.17497285743E-01  0.15854285513E-01 -0.36342200926E-03  0.23614517845E-01  0.00000000000E+00 0. -1.
     999901    1    3    3    0    0  0.85158997068E-01 -0.17175231483E-01 -0.10829785773E+00  0.89088465547E+00  0.88000000000E+00 0.  1.
        -11    1    4    4    0    0 -0.27139955389E-01  0.43430801849E-02  0.60244799806E-01  0.66220363549E-01  0.51100000000E-03 0.  1.
         11    1    4    4    0    0 -0.40521755936E-01 -0.30221342156E-02  0.48416479939E-01  0.63210463137E-01  0.51100000000E-03 0. -1.
</event>
<event>
 8    1  0.1084146E+005  0.1043930E+01  0.7957747E-01            NaN
         13   -1    0    0    0    0  0.00000000000E+00  0.00000000000E+00  0.74505805969E-08  0.10566000000E+00  0.10566000000E+00 0. -1.
     999900   -1    0    0    0    0 -0.00000000000E+00 -0.00000000000E+00 -0.74505805969E-08  0.93827000000E+00  0.93827000000E+00 0. -1.
     999902    2    1    2    0    0 -0.20559183019E-01  0.16625987753E-03 -0.12912365416E-01  0.10196516798E+01  0.10193626005E+01 0.  0.
     999903    2    3    3    0    0 -0.11824707291E+00  0.25056470506E-01  0.47386093603E-01  0.13184632360E+00  0.22974207615E-01 0.  0.
         14    1    1    2    0    0  0.20559183019E-01 -0.16625987753E-03  0.12912365416E-01  0.24278320152E-01  0.00000000000E+00 0.  1.
     999901    1    3    3    0    0  0.97687889888E-01 -0.24890210628E-01 -0.60298459019E-01  0.88780535624E+00  0.88000000000E+00 0. -1.
        -11    1    4    4    0    0 -0.47882416438E-01  0.10353065122E-01  0.31441836639E-01  0.58213073906E-01  0.51100000000E-03 0.  1.
         11    1    4    4    0    0 -0.70364656470E-01  0.14703405384E-01  0.15944256965E-01  0.73633249698E-01  0.51100000000E-03 0. -1.
</event>
<event>
 8    1  0.1084146E+005  0.1043930E+01  0.7957747E-01            NaN
         13   -1    0    0    0    0  0.00000000000E+00  0.00000000000E+00  0.74505805969E-08  0.10566000000E+00  0.10566000000E+00 0. -1.
     999900   -1    0    0    0    0 -0.00000000000E+00 -0.00000000000E+00 -0.74505805969E-08  0.93827000000E+00  0.93827000000E+00 0. -1.
     999902    2    1    2    0    0  0.10116480957E-01 -0.68912642488E-02  0.23011818481E-01  0.10178651482E+01  0.10175313673E+01 0.  0.
     999903    2    3    3    0    0  0.51143912399E-01 -0.94619332424E-01  0.72388521740E-01  0.13117606915E+00  0.19963596699E-01 0.  0.
         14    1    1    2    0    0 -0.10116480957E-01  0.68912642488E-02 -0.23011818481E-01  0.26064851806E-01  0.00000000000E+00 0.  1.
     999901    1    3    3    0    0 -0.41027431442E-01  0.87728068176E-01 -0.49376703259E-01  0.88668907905E+00  0.88000000000E+00 0. -1.
        -11    1    4    4    0    0  0.10855590173E-01 -0.30133669151E-01  0.31119214392E-01  0.44660368111E-01  0.51100000000E-03 0.  1.
         11    1    4    4    0    0  0.40288322226E-01 -0.64485663274E-01  0.41269307348E-01  0.86515701035E-01  0.51100000000E-03 0. -1.
</event>
<event>
 8    1  0.1084146E+005  0.1043930E+01  0.7957747E-01            NaN
         13   -1    0    0    0    0  0.00000000000E+00  0.00000000000E+00  0.74505805969E-08  0.10566000000E+00  0.10566000000E+00 0. -1.
     999900   -1    0    0    0    0 -0.00000000000E+00 -0.00000000000E+00 -0.74505805969E-08  0.93827000000E+00  0.93827000000E+00 0.  1.
     999902    2    1    2    0    0 -0.52295946417E-02 -0.59174805057E-02 -0.22529923719E-01  0.10200561084E+01  0.10197766921E+01 0.  0.
     999903    2    3    3    0    0  0.30704752558E-01  0.12100464074E+00  0.25145735028E-01  0.12894810678E+00  0.20258364793E-01 0.  0.
         14    1    1    2    0    0  0.52295946417E-02  0.59174805057E-02  0.22529923719E-01  0.23873891564E-01  0.00000000000E+00 0. -1.
     999901    1    3    3    0    0 -0.35934347200E-01 -0.12692212124E+00 -0.47675658747E-01  0.89110800165E+00  0.88000000000E+00 0.  1.
        -11    1    4    4    0    0  0.33570089524E-02  0.51975694868E-01  0.74351426047E-02  0.52614492611E-01  0.51100000000E-03 0.  1.
         11    1    4    4    0    0  0.27347743606E-01  0.69028945867E-01  0.17710592423E-01  0.76333614174E-01  0.51100000000E-03 0. -1.
</event>
<event>
 8    1  0.1084146E+005  0.1043930E+01  0.7957747E-01            NaN
         13   -1    0    0    0    0  0.00000000000E+00  0.00000000000E+00  0.74505805969E-08  0.10566000000E+00  0.10566000000E+00 0. -1.
     999900   -1    0    0    0    0 -0.00000000000E+00 -0.00000000000E+00 -0.74505805969E-08  0.93827000000E+00  0.93827000000E+00 0. -1.
     999902    2    1    2    0    0 -0.18378014469E-01 -0.10425858204E-01  0.13787970831E-01  0.10186998974E+01  0.10183874130E+01 0.  0.
     999903    2    3    3    0    0 -0.83661670388E-01  0.87710003000E-01 -0.40099951311E-01  0.12920762028E+00  0.19856568830E-01 0.  0.
         14    1    1    2    0    0  0.18378014469E-01  0.10425858204E-01 -0.13787970831E-01  0.25230102551E-01  0.00000000000E+00 0.  1.
     999901    1    3    3    0    0  0.65283655918E-01 -0.98135861204E-01  0.53887922142E-01  0.88949227717E+00  0.88000000000E+00 0. -1.
        -11    1    4    4    0    0 -0.48863183115E-01  0.36919308356E-01 -0.20924963013E-01  0.64720639611E-01  0.51100000000E-03 0.  1.
         11    1    4    4    0    0 -0.34798487273E-01  0.50790694645E-01 -0.19174988298E-01  0.64486980672E-01  0.51100000000E-03 0. -1.
</event>
<event>
 8    1  0.1084146E+005  0.1043930E+01  0.7957747E-01            NaN
         13   -1    0    0    0    0  0.00000000000E+00  0.00000000000E+00  0.74505805969E-08  0.10566000000E+00  0.10566000000E+00 0.  1.
     999900   -1    0    0    0    0 -0.00000000000E+00 -0.00000000000E+00 -0.74505805969E-08  0.93827000000E+00  0.93827000000E+00 0.  1.
     999902    2    1    2    0    0  0.65322176307E-02  0.23313958126E-01 -0.56028728012E-02  0.10190783865E+01  0.10187753212E+01 0.  0.
     999903    2    3    3    0    0 -0.42434005102E-01  0.12074401847E+00  0.25936869449E-01  0.13178753058E+00  0.17761453640E-01 0.  0.
         14    1    1    2    0    0 -0.65322176307E-02 -0.23313958126E-01  0.56028728012E-02  0.24851613515E-01  0.00000000000E+00 0. -1.
     999901    1    3    3    0    0  0.48966222733E-01 -0.97430060343E-01 -0.31539742250E-01  0.88729085590E+00  0.88000000000E+00 0.  1.
        -11    1    4    4    0    0 -0.43434022417E-02  0.34355168738E-01  0.99058635622E-02  0.36021243954E-01  0.51100000000E-03 0. -1.
         11    1    4    4    0    0 -0.38090602861E-01  0.86388849730E-01  0.16031005887E-01  0.95766286629E-01  0.51100000000E-03 0.  1.
</event>
<event>
 8    1  0.1084146E+005  0.1043930E+01  0.7957747E-01            NaN
         13   -1    0    0    0    0  0.00000000000E+00  0.00000000000E+00  0.74505805969E-08  0.10566000000E+00  0.10566000000E+00 0. -1.
     999900   -1    0    0    0    0 -0.00000000000E+00 -0.00000000000E+00 -0.74505805969E-08  0.93827000000E+00  0.93827000000E+00 0.  1.
     999902    2    1    2    0    0 -0.65128811750E-02 -0.41159566454E-02  0.24410720673E-01  0.10183323047E+01  0.10180105308E+01 0.  0.
     999903    2    3    3    0    0 -0.71324033189E-01  0.47790173067E-01  0.97333822492E-01  0.13142052189E+00  0.20650961749E-01 0.  0.
         14    1    1    2    0    0  0.65128811750E-02  0.41159566454E-02 -0.24410720673E-01  0.25597695288E-01  0.00000000000E+00 0.  1.
     999901    1    3    3    0    0  0.64811152014E-01 -0.51906129712E-01 -0.72923101819E-01  0.88691178282E+00  0.88000000000E+00 0.  1.
        -11    1    4    4    0    0 -0.43789683722E-01  0.40885575032E-01  0.66104719269E-01  0.89214694287E-01  0.51100000000E-03 0.  1.
         11    1    4    4    0    0 -0.27534349467E-01  0.69045980343E-02  0.31229103223E-01  0.42205827604E-01  0.51100000000E-03 0. -1.
</event>
<event>
 8    1  0.1084146E+005  0.1043930E+01  0.7957747E-01            NaN
         13   -1    0    0    0    0  0.00000000000E+00  0.00000000000E+00  0.74505805969E-08  0.10566000000E+00  0.10566000000E+00 0.  1.
     999900   -1    0    0    0    0 -0.00000000000E+00 -0.00000000000E+00 -0.74505805969E-08  0.93827000000E+00  0.93827000000E+00 0.  1.
     999902    2    1    2    0    0  0.21049181592E-01 -0.83023447189E-02  0.10459932282E-01  0.10190019604E+01  0.10186970051E+01 0.  0.
     999903    2    3    3    0    0  0.10394121642E+00  0.77336057551E-01  0.40490590022E-02  0.13094445966E+00  0.18585326702E-01 0.  0.
         14    1    1    2    0    0 -0.21049181592E-01  0.83023447189E-02 -0.10459932282E-01  0.24928039571E-01  0.00000000000E+00 0.  1.
     999901    1    3    3    0    0 -0.82892034823E-01 -0.85638402270E-01  0.64108732796E-02  0.88805750077E+00  0.88000000000E+00 0. -1.
        -11    1    4    4    0    0  0.31289308486E-01  0.13178695685E-01  0.11438919168E-02  0.33974526563E-01  0.51100000000E-03 0. -1.
         11    1    4    4    0    0  0.72651907929E-01  0.64157361866E-01  0.29051670854E-02  0.96969933094E-01  0.51100000000E-03 0.  1.
</event>
<event>
 8    1  0.1084146E+005  0.1043930E+01  0.7957747E-01            NaN
         13   -1    0    0    0    0  0.00000000000E+00  0.00000000000E+00  0.74505805969E-08  0.10566000000E+00  0.10566000000E+00 0.  1.
     999900   -1    0    0    0    0 -0.00000000000E+00 -0.00000000000E+00 -0.74505805969E-08  0.93827000000E+00  0.93827000000E+00 0. -1.
     999902    2    1    2    0    0 -0.17526388988E-01 -0.24589289228E-02  0.30510259735E-01  0.10086582465E+01  0.10080413492E+01 0.  0.
     999903    2    3    3    0    0  0.11638242424E-01  0.46191465683E-01 -0.10437402721E+00  0.11657573496E+00  0.20660693013E-01 0.  0.
         14    1    1    2    0    0  0.17526388988E-01  0.24589289228E-02 -0.30510259735E-01  0.35271753450E-01  0.00000000000E+00 0. -1.
     999901    1    3    3    0    0 -0.29164631412E-01 -0.48650394606E-01  0.13488428695E+00  0.89208251159E+00  0.88000000000E+00 0. -1.
        -11    1    4    4    0    0 -0.41104789959E-02  0.30724431230E-02 -0.18443204175E-01  0.19150687861E-01  0.51100000000E-03 0. -1.
         11    1    4    4    0    0  0.15748721420E-01  0.43119022560E-01 -0.85930823038E-01  0.97425047097E-01  0.51100000000E-03 0.  1.
</event>
<event>
 8    1  0.1084146E+005  0.1043930E+01  0.7957747E-01            NaN
         13   -1    0    0    0    0  0.00000000000E+00  0.00000000000E+00  0.74505805969E-08  0.10566000000E+00  0.10566000000E+00 0. -1.
     999900   -1    0    0    0    0 -0.00000000000E+00 -0.00000000000E+00 -0.74505805969E-08  0.93827000000E+00  0.93827000000E+00 0. -1.
     999902    2    1    2    0    0 -0.18841441198E-01  0.14218925307E-01  0.10814854104E-01  0.10179658167E+01  0.10176346423E+01 0.  0.
     999903    2    3    3    0    0  0.32343280999E-01  0.73444102440E-01  0.10039605242E+00  0.12996114981E+00  0.19246015394E-01 0.  0.
         14    1    1    2    0    0  0.18841441198E-01 -0.14218925307E-01 -0.10814854104E-01  0.25964183265E-01  0.00000000000E+00 0.  1.
     999901    1    3    3    0    0 -0.51184722197E-01 -0.59225177133E-01 -0.89581198318E-01  0.88800466693E+00  0.88000000000E+00 0. -1.
        -11    1    4    4    0    0  0.32152400810E-01  0.52756865313E-01  0.73275527500E-01  0.95846897534E-01  0.51100000000E-03 0.  1.
         11    1    4    4    0    0  0.19088018987E-03  0.20687237127E-01  0.27120524922E-01  0.34114252274E-01  0.51100000000E-03 0. -1.
</event>
<event>
 8    1  0.1084146E+005  0.1043930E+01  0.7957747E-01            NaN
         13   -1    0    0    0    0  0.00000000000E+00  0.00000000000E+00  0.74505805969E-08  0.10566000000E+00  0.10566000000E+00 0.  1.
     999900   -1    0    0    0    0 -0.00000000000E+00 -0.00000000000E+00 -0.74505805969E-08  0.93827000000E+00  0.93827000000E+00 0.  1.
     999902    2    1    2    0    0 -0.16990510900E-01 -0.43862199670E-02  0.17852465613E-01  0.10188974829E+01  0.10185899340E+01 0.  0.
     999903    2    3    3    0    0 -0.10066217790E+00  0.50356203983E-01  0.64541358614E-01  0.13200541864E+00  0.24315061954E-01 0.  0.
         14    1    1    2    0    0  0.16990510900E-01  0.43862199670E-02 -0.17852465613E-01  0.25032517147E-01  0.00000000000E+00 0. -1.
     999901    1    3    3    0    0  0.83671667004E-01 -0.54742423950E-01 -0.46688893001E-01  0.88689206422E+00  0.88000000000E+00 0.  1.
        -11    1    4    4    0    0 -0.51924268269E-01  0.16119097293E-01  0.40390444987E-01  0.67731854397E-01  0.51100000000E-03 0. -1.
         11    1    4    4    0    0 -0.48737909636E-01  0.34237106690E-01  0.24150913628E-01  0.64273564241E-01  0.51100000000E-03 0.  1.
</event>
<event>
 8    1  0.1084146E+005  0.1043930E+01  0.7957747E-01            NaN
         13   -1    0    0    0    0  0.00000000000E+00  0.00000000000E+00  0.74505805969E-08  0.10566000000E+00  0.10566000000E+00 0.  1.
     999900   -1    0    0    0    0 -0.00000000000E+00 -0.00000000000E+00 -0.74505805969E-08  0.93827000000E+00  0.93827000000E+00 0.  1.
     999902    2    1    2    0    0  0.62738368774E-02  0.17156316382E-02  0.32301338695E-01  0.10109803277E+01  0.10104432404E+01 0.  0.
     999903    2    3    3    0    0  0.47759001056E-01 -0.53544833800E-01  0.10106634640E+00  0.12559715409E+00  0.20304367324E-01 0.  0.
         14    1    1    2    0    0 -0.62738368774E-02 -0.17156316382E-02 -0.32301338695E-01  0.32949672268E-01  0.00000000000E+00 0. -1.
     999901    1    3    3    0    0 -0.41485164178E-01  0.55260465438E-01 -0.68765007702E-01  0.88538317364E+00  0.88000000000E+00 0.  1.
        -11    1    4    4    0    0  0.13295185101E-01 -0.22709817631E-01  0.23471616779E-01  0.35265786237E-01  0.51100000000E-03 0.  1.
         11    1    4    4    0    0  0.34463815954E-01 -0.30835016169E-01  0.77594729618E-01  0.90331367851E-01  0.51100000000E-03 0. -1.
</event>
<event>
 8    1  0.1084146E+005  0.1043930E+01  0.7957747E-01            NaN
         13   -1    0    0    0    0  0.00000000000E+00  0.00000000000E+00  0.74505805969E-08  0.10566000000E+00  0.10566000000E+00 0.  1.
     999900   -1    0    0    0    0 -0.00000000000E+00 -0.00000000000E+00 -0.74505805969E-08  0.93827000000E+00  0.93827000000E+00 0. -1.
     999902    2    1    2    0    0  0.12200627174E-01 -0.20512798390E-01 -0.33455417621E-02  0.10198297334E+01  0.10195449290E+01 0.  0.
     999903    2    3    3    0    0  0.12040550824E+00  0.30198821535E-01  0.36276450678E-01  0.13086974162E+00  0.20036296064E-01 0.  0.
         14    1    1    2    0    0 -0.12200627174E-01  0.20512798390E-01  0.33455417621E-02  0.24100266615E-01  0.00000000000E+00 0.  1.
     999901    1    3    3    0    0 -0.10820488107E+00 -0.50711619925E-01 -0.39621992440E-01  0.88895999177E+00  0.88000000000E+00 0. -1.
        -11    1    4    4    0    0  0.26685389795E-01 -0.10789348512E-02  0.45419186407E-02  0.27095465947E-01  0.51100000000E-03 0. -1.
         11    1    4    4    0    0  0.93720118445E-01  0.31277756386E-01  0.31734532038E-01  0.10377427567E+00  0.51100000000E-03 0.  1.
</event>
<event>
 8    1  0.1084146E+005  0.1043930E+01  0.7957747E-01            NaN
         13   -1    0    0    0    0  0.00000000000E+00  0.00000000000E+00  0.74505805969E-08  0.10566000000E+00  0.10566000000E+00 0.  1.
     999900   -1    0    0    0    0 -0.00000000000E+00 -0.00000000000E+00 -0.74505805969E-08  0.93827000000E+00  0.93827000000E+00 0. -1.
     999902    2    1    2    0    0  0.14392336643E-01 -0.11286434556E-01 -0.15233715487E-01  0.10201268690E+01  0.10198491260E+01 0.  0.
     999903    2    3    3    0    0  0.12197733549E+00 -0.37631767305E-01  0.25932523722E-01  0.13222863844E+00  0.22744158654E-01 0.  0.
         14    1    1    2    0    0 -0.14392336643E-01  0.11286434556E-01  0.15233715487E-01  0.23803131024E-01  0.00000000000E+00 0.  1.
     999901    1    3    3    0    0 -0.10758499885E+00  0.26345332749E-01 -0.41166239209E-01  0.88789823053E+00  0.88000000000E+00 0.  1.
        -11    1    4    4    0    0  0.10427304735E+00 -0.36719955773E-01  0.15444519181E-01  0.11162445005E+00  0.51100000000E-03 0.  1.
         11    1    4    4    0    0  0.17704288142E-01 -0.91181153200E-03  0.10488004541E-01  0.20604188388E-01  0.51100000000E-03 0. -1.
</event>
<event>
 8    1  0.1084146E+005  0.1043930E+01  0.7957747E-01            NaN
         13   -1    0    0    0    0  0.00000000000E+00  0.00000000000E+00  0.74505805969E-08  0.10566000000E+00  0.10566000000E+00 0.  1.
     999900   -1    0    0    0    0 -0.00000000000E+00 -0.00000000000E+00 -0.74505805969E-08  0.93827000000E+00  0.93827000000E+00 0.  1.
     999902    2    1    2    0    0  0.84035601326E-02  0.11767901486E-02 -0.22958982745E-01  0.10194530813E+01  0.10191591954E+01 0.  0.
     999903    2    3    3    0    0  0.37214309280E-02  0.11115077462E+00 -0.67274162288E-01  0.13148909856E+00  0.19880301344E-01 0.  0.
         14    1    1    2    0    0 -0.84035601326E-02 -0.11767901486E-02  0.22958982745E-01  0.24476918651E-01  0.00000000000E+00 0.  1.
     999901    1    3    3    0    0  0.46821292046E-02 -0.10997398447E+00  0.44315179543E-01  0.88796398279E+00  0.88000000000E+00 0. -1.
        -11    1    4    4    0    0  0.40113501932E-02  0.17365164601E-01 -0.37685046496E-02  0.18223682951E-01  0.51100000000E-03 0.  1.
         11    1    4    4    0    0 -0.28991926520E-03  0.93785610019E-01 -0.63505657638E-01  0.11326541561E+00  0.51100000000E-03 0. -1.
</event>
<event>
 8    1  0.1084146E+005  0.1043930E+01  0.7957747E-01            NaN
         13   -1    0    0    0    0  0.00000000000E+00  0.00000000000E+00  0.74505805969E-08  0.10566000000E+00  0.10566000000E+00 0.  1.
     999900   -1    0    0    0    0 -0.00000000000E+00 -0.00000000000E+00 -0.74505805969E-08  0.93827000000E+00  0.93827000000E+00 0.  1.
     999902    2    1    2    0    0 -0.85425358096E-02  0.26898225519E-02  0.24298979886E-01  0.10180330796E+01  0.10177036409E+01 0.  0.
     999903    2    3    3    0    0 -0.11517272896E+00 -0.40762577781E-01 -0.34594640322E-01  0.12858011979E+00  0.20241364182E-01 0.  0.
         14    1    1    2    0    0  0.85425358096E-02 -0.26898225519E-02 -0.24298979886E-01  0.25896920414E-01  0.00000000000E+00 0. -1.
     999901    1    3    3    0    0  0.10663019315E+00  0.43452400333E-01  0.58893620208E-01  0.88945295979E+00  0.88000000000E+00 0. -1.
        -11    1    4    4    0    0 -0.22661943429E-01 -0.13875537789E-01 -0.14093150568E-01  0.30082756570E-01  0.51100000000E-03 0. -1.
         11    1    4    4    0    0 -0.92510785528E-01 -0.26887039992E-01 -0.20501489754E-01  0.98497363222E-01  0.51100000000E-03 0.  1.
</event>
<event>
 8    1  0.1084146E+005  0.1043930E+01  0.7957747E-01            NaN
         13   -1    0    0    0    0  0.00000000000E+00  0.00000000000E+00  0.74505805969E-08  0.10566000000E+00  0.10566000000E+00 0.  1.
     999900   -1    0    0    0    0 -0.00000000000E+00 -0.00000000000E+00 -0.74505805969E-08  0.93827000000E+00  0.93827000000E+00 0. -1.
     999902    2    1    2    0    0  0.55289427968E-02 -0.22382373803E-01 -0.32120276500E-02  0.10206521782E+01  0.10203866972E+01 0.  0.
     999903    2    3    3    0    0  0.49049045625E-01  0.40491199403E-01 -0.11203938457E+00  0.13065752701E+00  0.21753610343E-01 0.  0.
         14    1    1    2    0    0 -0.55289427968E-02  0.22382373803E-01  0.32120276500E-02  0.23277821787E-01  0.00000000000E+00 0.  1.
     999901    1    3    3    0    0 -0.43520102829E-01 -0.62873573206E-01  0.10882735692E+00  0.88999465120E+00  0.88000000000E+00 0.  1.
        -11    1    4    4    0    0  0.28346782630E-01  0.36200998092E-01 -0.73541589004E-01  0.86733377558E-01  0.51100000000E-03 0. -1.
         11    1    4    4    0    0  0.20702262995E-01  0.42902013106E-02 -0.38497795568E-01  0.43924149451E-01  0.51100000000E-03 0.  1.
</event>
<event>
 8    1  0.1084146E+005  0.1043930E+01  0.7957747E-01            NaN
         13   -1    0    0    0    0  0.00000000000E+00  0.00000000000E+00  0.74505805969E-08  0.10566000000E+00  0.10566000000E+00 0. -1.
     999900   -1    0    0    0    0 -0.00000000000E+00 -0.00000000000E+00 -0.74505805969E-08  0.93827000000E+00  0.93827000000E+00 0. -1.
     999902    2    1    2    0    0  0.18933304812E-02 -0.21085659034E-02 -0.23026418592E-01  0.10207298555E+01  0.10204661637E+01 0.  0.
     999903    2    3    3    0    0 -0.12192517116E+00  0.29874076779E-01 -0.33821914573E-01  0.13142088024E+00  0.19217649009E-01 0.  0.
         14    1    1    2    0    0 -0.18933304812E-02  0.21085659034E-02  0.23026418592E-01  0.23200144475E-01  0.00000000000E+00 0. -1.
     999901    1    3    3    0    0  0.12381850164E+00 -0.31982642683E-01  0.10795495981E-01  0.88930897528E+00  0.88000000000E+00 0. -1.
        -11    1    4    4    0    0 -0.79859163195E-01  0.27695465023E-01 -0.18000203764E-01  0.86422179940E-01  0.51100000000E-03 0. -1.
         11    1    4    4    0    0 -0.42066007964E-01  0.21786117562E-02 -0.15821710808E-01  0.44998700305E-01  0.51100000000E-03 0.  1.
</event>
<event>
 8    1  0.1084146E+005  0.1043930E+01  0.7957747E-01            NaN
         13   -1    0    0    0    0  0.00000000000E+00  0.00000000000E+00  0.74505805969E-08  0.10566000000E+00  0.10566000000E+00 0.  1.
     999900   -1    0    0    0    0 -0.00000000000E+00 -0.00000000000E+00 -0.74505805969E-08  0.93827000000E+00  0.93827000000E+00 0. -1.
     999902    2    1    2    0    0  0.38424464983E-02 -0.22642146034E-01  0.70924572432E-02  0.10198938996E+01  0.10196106278E+01 0.  0.
     999903    2    3    3    0    0 -0.11064050762E+00 -0.24646402679E-01  0.61402447123E-01  0.13081575972E+00  0.22220157231E-01 0.  0.
         14    1    1    2    0    0 -0.38424464983E-02  0.22642146034E-01 -0.70924572432E-02  0.24036100388E-01  0.00000000000E+00 0.  1.
     999901    1    3    3    0    0  0.11448295412E+00  0.20042566454E-02 -0.54309989880E-01  0.88907813989E+00  0.88000000000E+00 0. -1.
        -11    1    4    4    0    0 -0.11709979504E-01 -0.47377780985E-02  0.15359036912E-01  0.19892996184E-01  0.51100000000E-03 0. -1.
         11    1    4    4    0    0 -0.98930528116E-01 -0.19908624581E-01  0.46043410211E-01  0.11092276354E+00  0.51100000000E-03 0.  1.
</event>
<event>
 8    1  0.1084146E+005  0.1043930E+01  0.7957747E-01            NaN
         13   -1    0    0    0    0  0.00000000000E+00  0.00000000000E+00  0.74505805969E-08  0.10566000000E+00  0.10566000000E+00 0. -1.
     999900   -1    0    0    0    0 -0.00000000000E+00 -0.00000000000E+00 -0.74505805969E-08  0.93827000000E+00  0.93827000000E+00 0.  1.
     999902    2    1    2    0    0 -0.65980670124E-02  0.72738984258E-02  0.21930311094E-01  0.10199012124E+01  0.10196181150E+01 0.  0.
     999903    2    3    3    0    0  0.47664794580E-01 -0.11742849825E+00 -0.11808108342E-01  0.12881567961E+00  0.19815727271E-01 0.  0.
         14    1    1    2    0    0  0.65980670124E-02 -0.72738984258E-02 -0.21930311094E-01  0.24028787554E-01  0.00000000000E+00 0.  1.
     999901    1    3    3    0    0 -0.54262861592E-01  0.12470239667E+00  0.33738419437E-01  0.89108553284E+00  0.88000000000E+00 0.  1.
        -11    1    4    4    0    0  0.14535465238E-02 -0.87992570234E-03  0.20085335196E-02  0.26799989996E-02  0.51100000000E-03 0.  1.
         11    1    4    4    0    0  0.46211248056E-01 -0.11654857255E+00 -0.13816641862E-01  0.12613568061E+00  0.51100000000E-03 0. -1.
</event>
<event>
 8    1  0.1084146E+005  0.1043930E+01  0.7957747E-01            NaN
         13   -1    0    0    0    0  0.00000000000E+00  0.00000000000E+00  0.74505805969E-08  0.10566000000E+00  0.10566000000E+00 0.  1.
     999900   -1    0    0    0    0 -0.00000000000E+00 -0.00000000000E+00 -0.74505805969E-08  0.93827000000E+00  0.93827000000E+00 0.  1.
     999902    2    1    2    0    0 -0.21046797739E-01  0.50141994643E-03  0.10153643312E-01  0.10205566051E+01  0.10202889143E+01 0.  0.
     999903    2    3    3    0    0  0.11056107483E+00  0.24571656505E-01 -0.55955647008E-01  0.12799263166E+00  0.20580616006E-01 0.  0.
         14    1    1    2    0    0  0.21046797739E-01 -0.50141994643E-03 -0.10153643312E-01  0.23373394908E-01  0.00000000000E+00 0. -1.
     999901    1    3    3    0    0 -0.13160787257E+00 -0.24070236559E-01  0.66109290320E-01  0.89256397344E+00  0.88000000000E+00 0.  1.
        -11    1    4    4    0    0  0.38944781443E-01  0.18724951685E-01 -0.22682335994E-01  0.48806447365E-01  0.51100000000E-03 0.  1.
         11    1    4    4    0    0  0.71616293387E-01  0.58467048200E-02 -0.33273311014E-01  0.79186184291E-01  0.51100000000E-03 0. -1.
</event>
<event>
 8    1  0.1084146E+005  0.1043930E+01  0.7957747E-01            NaN
         13   -1    0    0    0    0  0.00000000000E+00  0.00000000000E+00  0.74505805969E-08  0.10566000000E+00  0.10566000000E+00 0.  1.
     999900   -1    0    0    0    0 -0.00000000000E+00 -0.00000000000E+00 -0.74505805969E-08  0.93827000000E+00  0.93827000000E+00 0. -1.
     999902    2    1    2    0    0  0.21605986764E-01  0.40699292577E-02 -0.88197389324E-02  0.10202409565E+01  0.10199659007E+01 0.  0.
     999903    2    3    3    0    0 -0.61758689342E-01 -0.40809321522E-01  0.10271277167E+00  0.12816286724E+00  0.19906547738E-01 0.  0.
         14    1    1    2    0    0 -0.21605986764E-01 -0.40699292577E-02  0.88197389324E-02  0.23689043523E-01  0.00000000000E+00 0.  1.
     999901    1    3    3    0    0  0.83364676107E-01  0.44879250779E-01 -0.11153251060E+00  0.89207808924E+00  0.88000000000E+00 0.  1.
        -11    1    4    4    0    0 -0.43481014241E-01 -0.38632093560E-01  0.80365933810E-01  0.99206762322E-01  0.51100000000E-03 0.  1.
         11    1    4    4    0    0 -0.18277675102E-01 -0.21772279617E-02  0.22346837860E-01  0.28956104919E-01  0.51100000000E-03 0. -1.
</event>
<event>
 8    1  0.1084146E+005  0.1043930E+01  0.7957747E-01            NaN
         13   -1    0    0    0    0  0.00000000000E+00  0.00000000000E+00  0.74505805969E-08  0.10566000000E+00  0.10566000000E+00 0.  1.
     999900   -1    0    0    0    0 -0.00000000000E+00 -0.00000000000E+00 -0.74505805969E-08  0.93827000000E+00  0.93827000000E+00 0.  1.
     999902    2    1    2    0    0  0.33696489299E-01  0.17175093573E-01  0.73764497179E-03  0.10061016859E+01  0.10053902829E+01 0.  0.
     999903    2    3    3    0    0 -0.93769184314E-01 -0.17703129845E-01  0.59604048899E-01  0.11428935026E+00  0.20083630274E-01 0.  0.
         14    1    1    2    0    0 -0.33696489299E-01 -0.17175093573E-01 -0.73764497179E-03  0.37828314137E-01  0.00000000000E+00 0.  1.
     999901    1    3    3    0    0  0.12746567361E+00  0.34878223419E-01 -0.58866403927E-01  0.89181233560E+00  0.88000000000E+00 0.  1.
        -11    1    4    4    0    0 -0.45418081055E-01 -0.14708700797E-01  0.38983650862E-01  0.61637116426E-01  0.51100000000E-03 0. -1.
         11    1    4    4    0    0 -0.48351103260E-01 -0.29944290485E-02  0.20620398037E-01  0.52652233836E-01  0.51100000000E-03 0.  1.
</event>
<event>
 8    1  0.1084146E+005  0.1043930E+01  0.7957747E-01            NaN
         13   -1    0    0    0    0  0.00000000000E+00  0.00000000000E+00  0.74505805969E-08  0.10566000000E+00  0.10566000000E+00 0.  1.
     999900   -1    0    0    0    0 -0.00000000000E+00 -0.00000000000E+00 -0.74505805969E-08  0.93827000000E+00  0.93827000000E+00 0.  1.
     999902    2    1    2    0    0  0.92716493342E-03  0.86144070689E-02 -0.23582813605E-01  0.10188059728E+01  0.10184961431E+01 0.  0.
     999903    2    3    3    0    0  0.76090474641E-01 -0.83631271484E-01  0.54802500738E-01  0.12734478699E+00  0.20722711851E-01 0.  0.
         14    1    1    2    0    0 -0.92716493342E-03 -0.86144070689E-02  0.23582813605E-01  0.25124027175E-01  0.00000000000E+00 0.  1.
     999901    1    3    3    0    0 -0.75163309707E-01  0.92245678553E-01 -0.78385314343E-01  0.89146118583E+00  0.88000000000E+00 0.  1.
        -11    1    4    4    0    0  0.55243018150E-01 -0.55867843058E-01  0.47658499127E-01  0.91894508009E-01  0.51100000000E-03 0. -1.
         11    1    4    4    0    0  0.20847456491E-01 -0.27763428426E-01  0.71440016113E-02  0.35450278985E-01  0.51100000000E-03 0.  1.
</event>
<event>
 8    1  0.1084146E+005  0.1043930E+01  0.7957747E-01            NaN
         13   -1    0    0    0    0  0.00000000000E+00  0.00000000000E+00  0.74505805969E-08  0.10566000000E+00  0.10566000000E+00 0. -1.
     999900   -1    0    0    0    0 -0.00000000000E+00 -0.00000000000E+00 -0.74505805969E-08  0.93827000000E+00  0.93827000000E+00 0.  1.
     999902    2    1    2    0    0 -0.16368470585E-01  0.15401417220E-01  0.10120818143E-03  0.10214546641E+01  0.10212073688E+01 0.  0.
     999903    2    3    3    0    0 -0.10213729383E+00  0.53752094392E-01  0.65610799479E-01  0.13403223252E+00  0.18399671295E-01 0.  0.
         14    1    1    2    0    0  0.16368470585E-01 -0.15401417220E-01 -0.10120818143E-03  0.22475335921E-01  0.00000000000E+00 0. -1.
     999901    1    3    3    0    0  0.85768823245E-01 -0.38350677173E-01 -0.65509591298E-01  0.88742243156E+00  0.88000000000E+00 0.  1.
        -11    1    4    4    0    0 -0.21301595318E-01  0.10810190832E-01  0.54804182368E-02  0.24513553271E-01  0.51100000000E-03 0.  1.
         11    1    4    4    0    0 -0.80835698512E-01  0.42941903560E-01  0.60130381242E-01  0.10951867925E+00  0.51100000000E-03 0. -1.
</event>
<event>
 8    1  0.1084146E+005  0.1043930E+01  0.7957747E-01            NaN
         13   -1    0    0    0    0  0.00000000000E+00  0.00000000000E+00  0.74505805969E-08  0.10566000000E+00  0.10566000000E+00 0.  1.
     999900   -1    0    0    0    0 -0.00000000000E+00 -0.00000000000E+00 -0.74505805969E-08  0.93827000000E+00  0.93827000000E+00 0. -1.
     999902    2    1    2    0    0 -0.14297470853E-02 -0.23811900319E-01 -0.35820191639E-03  0.10200725257E+01  0.10197934980E+01 0.  0.
     999903    2    3    3    0    0 -0.11964316833E+00 -0.38672409454E-01 -0.32403596679E-01  0.13146566375E+00  0.20571453213E-01 0.  0.
         14    1    1    2    0    0  0.14297470853E-02  0.23811900319E-01  0.35820191639E-03  0.23857474346E-01  0.00000000000E+00 0.  1.
     999901    1    3    3    0    0  0.11821342124E+00  0.14860509135E-01  0.32045394763E-01  0.88860686190E+00  0.88000000000E+00 0.  1.
        -11    1    4    4    0    0 -0.62606338628E-01 -0.11155028417E-01 -0.21967886925E-01  0.67281776673E-01  0.51100000000E-03 0. -1.
         11    1    4    4    0    0 -0.57036829701E-01 -0.27517381037E-01 -0.10435709755E-01  0.64183887079E-01  0.51100000000E-03 0.  1.
</event>
<event>
 8    1  0.1084146E+005  0.1043930E+01  0.7957747E-01            NaN
         13   -1    0    0    0    0  0.00000000000E+00  0.00000000000E+00  0.74505805969E-08  0.10566000000E+00  0.10566000000E+00 0. -1.
     999900   -1    0    0    0    0 -0.00000000000E+00 -0.00000000000E+00 -0.74505805969E-08  0.93827000000E+00  0.93827000000E+00 0. -1.
     999902    2    1    2    0    0  0.71193567731E-02 -0.20501708188E-01  0.97698546744E-02  0.10201296777E+01  0.10198520011E+01 0.  0.
     999903    2    3    3    0    0 -0.36410167827E-01  0.73555135576E-01 -0.95868361643E-01  0.12777271882E+00  0.19976651894E-01 0.  0.
         14    1    1    2    0    0 -0.71193567731E-02  0.20501708188E-01 -0.97698546744E-02  0.23800322264E-01  0.00000000000E+00 0. -1.
     999901    1    3    3    0    0  0.43529524600E-01 -0.94056843764E-01  0.10563821632E+00  0.89235695891E+00  0.88000000000E+00 0.  1.
        -11    1    4    4    0    0 -0.58704163092E-02  0.28223539746E-01 -0.42665573524E-01  0.51494099356E-01  0.51100000000E-03 0.  1.
         11    1    4    4    0    0 -0.30539751518E-01  0.45331595830E-01 -0.53202788120E-01  0.76278619469E-01  0.51100000000E-03 0. -1.
</event>
<event>
 8    1  0.1084146E+005  0.1043930E+01  0.7957747E-01            NaN
         13   -1    0    0    0    0  0.00000000000E+00  0.00000000000E+00  0.74505805969E-08  0.10566000000E+00  0.10566000000E+00 0. -1.
     999900   -1    0    0    0    0 -0.00000000000E+00 -0.00000000000E+00 -0.74505805969E-08  0.93827000000E+00  0.93827000000E+00 0. -1.
     999902    2    1    2    0    0 -0.19919153745E-01  0.43920927636E-02  0.11767275829E-01  0.10203814980E+01  0.10201097341E+01 0.  0.
     999903    2    3    3    0    0 -0.11322827118E+00 -0.45463195820E-01 -0.46764343947E-01  0.13211459461E+00  0.19488937226E-01 0.  0.
         14    1    1    2    0    0  0.19919153745E-01 -0.43920927636E-02 -0.11767275829E-01  0.23548501974E-01  0.00000000000E+00 0.  1.
     999901    1    3    3    0    0  0.93309117437E-01  0.49855288583E-01  0.58531619776E-01  0.88826690342E+00  0.88000000000E+00 0.  1.
        -11    1    4    4    0    0 -0.53109088356E-01 -0.11722743549E-01 -0.24628149905E-01  0.59705986895E-01  0.51100000000E-03 0. -1.
         11    1    4    4    0    0 -0.60119182826E-01 -0.33740452271E-01 -0.22136194043E-01  0.72408607712E-01  0.51100000000E-03 0.  1.
</event>
<event>
 8    1  0.1084146E+005  0.1043930E+01  0.7957747E-01            NaN
         13   -1    0    0    0    0  0.00000000000E+00  0.00000000000E+00  0.74505805969E-08  0.10566000000E+00  0.10566000000E+00 0.  1.
     999900   -1    0    0    0    0 -0.00000000000E+00 -0.00000000000E+00 -0.74505805969E-08  0.93827000000E+00  0.93827000000E+00 0.  1.
     999902    2    1    2    0    0 -0.44421515621E-02 -0.19811570381E-01  0.18659439671E-01  0.10163545450E+01  0.10159803912E+01 0.  0.
     999903    2    3    3    0    0  0.79110394091E-02 -0.12748060002E+00  0.80180101017E-02  0.12964238124E+00  0.20711605515E-01 0.  0.
         14    1    1    2    0    0  0.44421515621E-02  0.19811570381E-01 -0.18659439671E-01  0.27575455033E-01  0.00000000000E+00 0. -1.
     999901    1    3    3    0    0 -0.12353190971E-01  0.10766902964E+00  0.10641429570E-01  0.88671216372E+00  0.88000000000E+00 0. -1.
        -11    1    4    4    0    0  0.11334003182E-01 -0.54847234228E-01  0.10026993814E-01  0.56898861646E-01  0.51100000000E-03 0. -1.
         11    1    4    4    0    0 -0.34229637728E-02 -0.72633365790E-01 -0.20089837123E-02  0.72743519598E-01  0.51100000000E-03 0.  1.
</event>
<event>
 8    1  0.1084146E+005  0.1043930E+01  0.7957747E-01            NaN
         13   -1    0    0    0    0  0.00000000000E+00  0.00000000000E+00  0.74505805969E-08  0.10566000000E+00  0.10566000000E+00 0.  1.
     999900   -1    0    0    0    0 -0.00000000000E+00 -0.00000000000E+00 -0.74505805969E-08  0.93827000000E+00  0.93827000000E+00 0.  1.
     999902    2    1    2    0    0  0.11293634151E-01  0.23587272366E-02  0.19804324996E-01  0.10210101166E+01  0.10207528286E+01 0.  0.
     999903    2    3    3    0    0  0.50351527866E-01 -0.70312140908E-01 -0.94620949658E-01  0.12977517697E+00  0.20233608817E-01 0.  0.
         14    1    1    2    0    0 -0.11293634151E-01 -0.23587272366E-02 -0.19804324996E-01  0.22919883400E-01  0.00000000000E+00 0. -1.
     999901    1    3    3    0    0 -0.39057893715E-01  0.72670868145E-01  0.11442527465E+00  0.89123493963E+00  0.88000000000E+00 0. -1.
        -11    1    4    4    0    0  0.45514942476E-01 -0.50204128006E-01 -0.77252200650E-01  0.10276297039E+00  0.51100000000E-03 0. -1.
         11    1    4    4    0    0  0.48365853900E-02 -0.20108012903E-01 -0.17368749009E-01  0.27012206579E-01  0.51100000000E-03 0.  1.
</event>
<event>
 8    1  0.1084146E+005  0.1043930E+01  0.7957747E-01            NaN
         13   -1    0    0    0    0  0.00000000000E+00  0.00000000000E+00  0.74505805969E-08  0.10566000000E+00  0.10566000000E+00 0.  1.
     999900   -1    0    0    0    0 -0.00000000000E+00 -0.00000000000E+00 -0.74505805969E-08  0.93827000000E+00  0.93827000000E+00 0. -1.
     999902    2    1    2    0    0 -0.13793207335E-01 -0.12277942345E-01 -0.15255599466E-01  0.10199772600E+01  0.10196959729E+01 0.  0.
     999903    2    3    3    0    0  0.19339811412E-01 -0.71754634911E-01 -0.10797016583E+00  0.13249133637E+00  0.19329810306E-01 0.  0.
         14    1    1    2    0    0  0.13793207335E-01  0.12277942345E-01  0.15255599466E-01  0.23952739966E-01  0.00000000000E+00 0.  1.
     999901    1    3    3    0    0 -0.33133018747E-01  0.59476692566E-01  0.92714566364E-01  0.88748592367E+00  0.88000000000E+00 0.  1.
        -11    1    4    4    0    0  0.22782474755E-02 -0.56699085304E-02 -0.21341913988E-01  0.22205330170E-01  0.51100000000E-03 0.  1.
         11    1    4    4    0    0  0.17061563937E-01 -0.66084726381E-01 -0.86628251842E-01  0.11028600620E+00  0.51100000000E-03 0. -1.
</event>
<event>
 8    1  0.1084146E+005  0.1043930E+01  0.7957747E-01            NaN
         13   -1    0    0    0    0  0.00000000000E+00  0.00000000000E+00  0.74505805969E-08  0.10566000000E+00  0.10566000000E+00 0.  1.
     999900   -1    0    0    0    0 -0.00000000000E+00 -0.00000000000E+00 -0.74505805969E-08  0.93827000000E+00  0.93827000000E+00 0.  1.
     999902    2    1    2    0    0 -0.20316174925E-02  0.18108201554E-01 -0.14763865082E-01  0.10204777902E+01  0.10202082700E+01 0.  0.
     999903    2    3    3    0    0 -0.12363476820E+00  0.35098223615E-01  0.18295749205E-01  0.13133836062E+00  0.19939641942E-01 0.  0.
         14    1    1    2    0    0  0.20316174925E-02 -0.18108201554E-01  0.14763865082E-01  0.23452209817E-01  0.00000000000E+00 0.  1.
     999901    1    3    3    0    0  0.12160315071E+00 -0.16990022061E-01 -0.33059614287E-01  0.88913942957E+00  0.88000000000E+00 0.  1.
        -11    1    4    4    0    0 -0.11488949869E+00  0.33609570620E-01  0.22001474274E-01  0.12171082999E+00  0.51100000000E-03 0.  1.
         11    1    4    4    0    0 -0.87452695142E-02  0.14886529950E-02 -0.37057250693E-02  0.96275306234E-02  0.51100000000E-03 0. -1.
</event>
<event>
 8    1  0.1084146E+005  0.1043930E+01  0.7957747E-01            NaN
         13   -1    0    0    0    0  0.00000000000E+00  0.00000000000E+00  0.74505805969E-08  0.10566000000E+00  0.10566000000E+00 0. -1.
     999900   -1    0    0    0    0 -0.00000000000E+00 -0.00000000000E+00 -0.74505805969E-08  0.93827000000E+00  0.93827000000E+00 0. -1.
     999902    2    1    2    0    0  0.25284704704E-01 -0.13099301683E-01 -0.74326175544E-02  0.10144995430E+01  0.10140725669E+01 0.  0.
     999903    2    3    3    0    0  0.10025761328E+00 -0.78313356927E-01  0.50898000761E-02  0.12881866311E+00  0.19590074220E-01 0.  0.
         14    1    1    2    0    0 -0.25284704704E-01  0.13099301683E-01  0.74326175544E-02  0.29430457018E-01  0.00000000000E+00 0.  1.
     999901    1    3    3    0    0 -0.74972908575E-01  0.65214055243E-01 -0.12522417631E-01  0.88568087987E+00  0.88000000000E+00 0.  1.
        -11    1    4    4    0    0  0.38666235894E-02 -0.31074410758E-02  0.42562588324E-02  0.65562053255E-02  0.51100000000E-03 0. -1.
         11    1    4    4    0    0  0.96390989690E-01 -0.75205915851E-01  0.83354124377E-03  0.12226245779E+00  0.51100000000E-03 0.  1.
</event>
<event>
 8    1  0.1084146E+005  0.1043930E+01  0.7957747E-01            NaN
         13   -1    0    0    0    0  0.00000000000E+00  0.00000000000E+00  0.74505805969E-08  0.10566000000E+00  0.10566000000E+00 0. -1.
     999900   -1    0    0    0    0 -0.00000000000E+00 -0.00000000000E+00 -0.74505805969E-08  0.93827000000E+00  0.93827000000E+00 0. -1.
     999902    2    1    2    0    0 -0.76606937176E-02 -0.10656476040E-01 -0.15222035127E-01  0.10238313169E+01  0.10236340207E+01 0.  0.
     999903    2    3    3    0    0 -0.10619835921E+00 -0.69256246275E-01  0.40688152171E-01  0.13463530157E+00  0.19915309587E-01 0.  0.
         14    1    1    2    0    0  0.76606937176E-02  0.10656476040E-01  0.15222035127E-01  0.20098683122E-01  0.00000000000E+00 0. -1.
     999901    1    3    3    0    0  0.98537665490E-01  0.58599770235E-01 -0.55910187298E-01  0.88919601531E+00  0.88000000000E+00 0. -1.
        -11    1    4    4    0    0 -0.18477509851E-01 -0.17303762712E-01  0.13466294020E-02  0.25355731227E-01  0.51100000000E-03 0. -1.
         11    1    4    4    0    0 -0.87720849357E-01 -0.51952483563E-01  0.39341522769E-01  0.10927957035E+00  0.51100000000E-03 0.  1.
</event>
<event>
 8    1  0.1084146E+005  0.1043930E+01  0.7957747E-01            NaN
         13   -1    0    0    0    0  0.00000000000E+00  0.00000000000E+00  0.74505805969E-08  0.10566000000E+00  0.10566000000E+00 0. -1.
     999900   -1    0    0    0    0 -0.00000000000E+00 -0.00000000000E+00 -0.74505805969E-08  0.93827000000E+00  0.93827000000E+00 0. -1.
     999902    2    1    2    0    0  0.13054456439E-01  0.12639135014E-01 -0.15578376552E-01  0.10199956652E+01  0.10197148153E+01 0.  0.
     999903    2    3    3    0    0 -0.93921280183E-01  0.78321888383E-01  0.37999439861E-01  0.12947412433E+00  0.19080523347E-01 0.  0.
         14    1    1    2    0    0 -0.13054456439E-01 -0.12639135014E-01  0.15578376552E-01  0.23934334810E-01  0.00000000000E+00 0. -1.
     999901    1    3    3    0    0  0.10697573662E+00 -0.65682753369E-01 -0.53577816413E-01  0.89052154086E+00  0.88000000000E+00 0.  1.
        -11    1    4    4    0    0 -0.51533460653E-01  0.50854633156E-01  0.14848048134E-01  0.73909518566E-01  0.51100000000E-03 0. -1.
         11    1    4    4    0    0 -0.42387819530E-01  0.27467255227E-01  0.23151391727E-01  0.55564605768E-01  0.51100000000E-03 0.  1.
</event>
<event>
 8    1  0.1084146E+005  0.1043930E+01  0.7957747E-01            NaN
         13   -1    0    0    0    0  0.00000000000E+00  0.00000000000E+00  0.74505805969E-08  0.10566000000E+00  0.10566000000E+00 0.  1.
     999900   -1    0    0    0    0 -0.00000000000E+00 -0.00000000000E+00 -0.74505805969E-08  0.93827000000E+00  0.93827000000E+00 0.  1.
     999902    2    1    2    0    0 -0.20096418821E-01  0.12369956231E-01  0.34338468454E-02  0.10200831308E+01  0.10198043541E+01 0.  0.
     999903    2    3    3    0    0 -0.27671229548E-01 -0.94943530608E-01  0.82012450565E-01  0.13005607549E+00  0.20213108999E-01 0.  0.
         14    1    1    2    0    0  0.20096418821E-01 -0.12369956231E-01 -0.34338468454E-02  0.23846869202E-01  0.00000000000E+00 0.  1.
     999901    1    3    3    0    0  0.75748107263E-02  0.10731348684E+00 -0.78578603720E-01  0.89002705531E+00  0.88000000000E+00 0.  1.
        -11    1    4    4    0    0 -0.21343354151E-01 -0.68622453313E-01  0.70373383141E-01  0.10058456164E+00  0.51100000000E-03 0. -1.
         11    1    4    4    0    0 -0.63278753970E-02 -0.26321077295E-01  0.11639067424E-01  0.29471513848E-01  0.51100000000E-03 0.  1.
</event>
<event>
 8    1  0.1084146E+005  0.1043930E+01  0.7957747E-01            NaN
         13   -1    0    0    0    0  0.00000000000E+00  0.00000000000E+00  0.74505805969E-08  0.10566000000E+00  0.10566000000E+00 0. -1.
     999900   -1    0    0    0    0 -0.00000000000E+00 -0.00000000000E+00 -0.74505805969E-08  0.93827000000E+00  0.93827000000E+00 0. -1.
     999902    2    1    2    0    0  0.22354246305E-01  0.61874442626E-02 -0.16102249218E-02  0.10206794168E+01  0.10204145639E+01 0.  0.
     999903    2    3    3    0    0 -0.76698030294E-01 -0.98069009288E-01  0.25227231169E-01  0.12860262042E+00  0.20052489946E-01 0.  0.
         14    1    1    2    0    0 -0.22354246305E-01 -0.61874442626E-02  0.16102249218E-02  0.23250583190E-01  0.00000000000E+00 0.  1.
     999901    1    3    3    0    0  0.99052276599E-01  0.10425645355E+00 -0.26837456090E-01  0.89207679639E+00  0.88000000000E+00 0.  1.
        -11    1    4    4    0    0 -0.60985102266E-01 -0.64006077461E-01  0.14565788779E-01  0.89601249846E-01  0.51100000000E-03 0.  1.
         11    1    4    4    0    0 -0.15712928028E-01 -0.34062931827E-01  0.10661442389E-01  0.39001370575E-01  0.51100000000E-03 0. -1.
</event>
<event>
 8    1  0.1084146E+005  0.1043930E+01  0.7957747E-01            NaN
         13   -1    0    0    0    0  0.00000000000E+00  0.00000000000E+00  0.74505805969E-08  0.10566000000E+00  0.10566000000E+00 0. -1.
     999900   -1    0    0    0    0 -0.00000000000E+00 -0.00000000000E+00 -0.74505805969E-08  0.93827000000E+00  0.93827000000E+00 0.  1.
     999902    2    1    2    0    0 -0.30673242928E-02  0.23726644181E-01  0.89684575253E-02  0.10183801399E+01  0.10180595827E+01 0.  0.
     999903    2    3    3    0    0 -0.18187709300E-01 -0.11800604248E+00  0.36923509689E-01  0.12647304524E+00  0.19387283753E-01 0.  0.
         14    1    1    2    0    0  0.30673242928E-02 -0.23726644181E-01 -0.89684575253E-02  0.25549860132E-01  0.00000000000E+00 0. -1.
     999901    1    3    3    0    0  0.15120385007E-01  0.14173268666E+00 -0.27955052164E-01  0.89190709463E+00  0.88000000000E+00 0.  1.
        -11    1    4    4    0    0 -0.19071338759E-01 -0.75324815648E-01  0.17929221408E-01  0.79744980505E-01  0.51100000000E-03 0. -1.
         11    1    4    4    0    0  0.88362945845E-03 -0.42681226836E-01  0.18994288281E-01  0.46728064731E-01  0.51100000000E-03 0.  1.
</event>
<event>
 8    1  0.1084146E+005  0.1043930E+01  0.7957747E-01            NaN
         13   -1    0    0    0    0  0.00000000000E+00  0.00000000000E+00  0.74505805969E-08  0.10566000000E+00  0.10566000000E+00 0.  1.
     999900   -1    0    0    0    0 -0.00000000000E+00 -0.00000000000E+00 -0.74505805969E-08  0.93827000000E+00  0.93827000000E+00 0. -1.
     999902    2    1    2    0    0 -0.30505448408E-02  0.32810450969E-02 -0.28519726809E-01  0.10150605369E+01  0.10146499139E+01 0.  0.
     999903    2    3    3    0    0 -0.12031781262E+00 -0.13030618396E-01 -0.32798263607E-01  0.12712135639E+00  0.20927018541E-01 0.  0.
         14    1    1    2    0    0  0.30505448408E-02 -0.32810450969E-02  0.28519726809E-01  0.28869463071E-01  0.00000000000E+00 0.  1.
     999901    1    3    3    0    0  0.11726726778E+00  0.16311663493E-01  0.42785367981E-02  0.88793918054E+00  0.88000000000E+00 0. -1.
        -11    1    4    4    0    0 -0.97487851688E-01 -0.88919968154E-02 -0.34637127508E-01  0.10384093873E+00  0.51100000000E-03 0.  1.
         11    1    4    4    0    0 -0.22829960933E-01 -0.41386215805E-02  0.18388639008E-02  0.23280417656E-01  0.51100000000E-03 0. -1.
</event>
<event>
 8    1  0.1084146E+005  0.1043930E+01  0.7957747E-01            NaN
         13   -1    0    0    0    0  0.00000000000E+00  0.00000000000E+00  0.74505805969E-08  0.10566000000E+00  0.10566000000E+00 0. -1.
     999900   -1    0    0    0    0 -0.00000000000E+00 -0.00000000000E+00 -0.74505805969E-08  0.93827000000E+00  0.93827000000E+00 0.  1.
     999902    2    1    2    0    0 -0.16193292985E-02 -0.22640618539E-01  0.93861743331E-02  0.10193674247E+01  0.10190714531E+01 0.  0.
     999903    2    3    3    0    0 -0.80775165182E-01  0.31611724201E-01 -0.91642383759E-01  0.12840405141E+00  0.23776995196E-01 0.  0.
         14    1    1    2    0    0  0.16193292985E-02  0.22640618539E-01 -0.93861743331E-02  0.24562575269E-01  0.00000000000E+00 0. -1.
     999901    1    3    3    0    0  0.79155835884E-01 -0.54252342740E-01  0.10102855809E+00  0.89096337332E+00  0.88000000000E+00 0. -1.
        -11    1    4    4    0    0 -0.26556395009E-01  0.22268093984E-01 -0.30734121194E-01  0.46324480052E-01  0.51100000000E-03 0. -1.
         11    1    4    4    0    0 -0.54218770173E-01  0.93436302169E-02 -0.60908262566E-01  0.82079571359E-01  0.51100000000E-03 0.  1.
</event>
<event>
 8    1  0.1084146E+005  0.1043930E+01  0.7957747E-01            NaN
         13   -1    0    0    0    0  0.00000000000E+00  0.00000000000E+00  0.74505805969E-08  0.10566000000E+00  0.10566000000E+00 0. -1.
     999900   -1    0    0    0    0 -0.00000000000E+00 -0.00000000000E+00 -0.74505805969E-08  0.93827000000E+00  0.93827000000E+00 0.  1.
     999902    2    1    2    0    0  0.14081112205E-01 -0.19831163958E-01  0.32351336745E-02  0.10193939271E+01  0.10190986015E+01 0.  0.
     999903    2    3    3    0    0  0.78369506338E-01  0.28185701910E-01  0.98519592018E-01  0.13062075858E+00  0.20480704206E-01 0.  0.
         14    1    1    2    0    0 -0.14081112205E-01  0.19831163958E-01 -0.32351336745E-02  0.24536072929E-01  0.00000000000E+00 0. -1.
     999901    1    3    3    0    0 -0.64288394133E-01 -0.48016865868E-01 -0.95284458343E-01  0.88877316849E+00  0.88000000000E+00 0.  1.
        -11    1    4    4    0    0  0.25308217471E-01  0.19274304526E-01  0.40284763207E-01  0.51333497389E-01  0.51100000000E-03 0.  1.
         11    1    4    4    0    0  0.53061288867E-01  0.89113973841E-02  0.58234828811E-01  0.79287261191E-01  0.51100000000E-03 0. -1.
</event>
<event>
 8    1  0.1084146E+005  0.1043930E+01  0.7957747E-01            NaN
         13   -1    0    0    0    0  0.00000000000E+00  0.00000000000E+00  0.74505805969E-08  0.10566000000E+00  0.10566000000E+00 0. -1.
     999900   -1    0    0    0    0 -0.00000000000E+00 -0.00000000000E+00 -0.74505805969E-08  0.93827000000E+00  0.93827000000E+00 0. -1.
     999902    2    1    2    0    0 -0.14298075022E-01  0.26238003632E-01 -0.56494468881E-02  0.10135197380E+01  0.10130634113E+01 0.  0.
     999903    2    3    3    0    0  0.85478352416E-01  0.85904131117E-01  0.26158066306E-01  0.12530405467E+00  0.18187721394E-01 0.  0.
         14    1    1    2    0    0  0.14298075022E-01 -0.26238003632E-01  0.56494468881E-02  0.30410261986E-01  0.00000000000E+00 0.  1.
     999901    1    3    3    0    0 -0.99776427438E-01 -0.59666127485E-01 -0.31807513194E-01  0.88821568334E+00  0.88000000000E+00 0.  1.
        -11    1    4    4    0    0  0.34715778637E-01  0.41996757206E-01  0.40611568779E-02  0.54641257475E-01  0.51100000000E-03 0.  1.
         11    1    4    4    0    0  0.50762573779E-01  0.43907373910E-01  0.22096909428E-01  0.70662797196E-01  0.51100000000E-03 0. -1.
</event>
<event>
 8    1  0.1084146E+005  0.1043930E+01  0.7957747E-01            NaN
         13   -1    0    0    0    0  0.00000000000E+00  0.00000000000E+00  0.74505805969E-08  0.10566000000E+00  0.10566000000E+00 0.  1.
     999900   -1    0    0    0    0 -0.00000000000E+00 -0.00000000000E+00 -0.74505805969E-08  0.93827000000E+00  0.93827000000E+00 0.  1.
     999902    2    1    2    0    0 -0.11386905233E-01  0.17226187370E-01 -0.67453077662E-02  0.10222066872E+01  0.10219758358E+01 0.  0.
     999903    2    3    3    0    0 -0.25797125161E-01  0.12199689681E+00  0.45795821834E-01  0.13431867270E+00  0.19887534778E-01 0.  0.
         14    1    1    2    0    0  0.11386905233E-01 -0.17226187370E-01  0.67453077662E-02  0.21723312799E-01  0.00000000000E+00 0. -1.
     999901    1    3    3    0    0  0.14410219928E-01 -0.10477070944E+00 -0.52541129600E-01  0.88788801450E+00  0.88000000000E+00 0.  1.
        -11    1    4    4    0    0 -0.15326057185E-01  0.68850423477E-01  0.15385412953E-01  0.72195850951E-01  0.51100000000E-03 0.  1.
         11    1    4    4    0    0 -0.10471067976E-01  0.53146473336E-01  0.30410408881E-01  0.62122821748E-01  0.51100000000E-03 0. -1.
</event>
<event>
 8    1  0.1084146E+005  0.1043930E+01  0.7957747E-01            NaN
         13   -1    0    0    0    0  0.00000000000E+00  0.00000000000E+00  0.74505805969E-08  0.10566000000E+00  0.10566000000E+00 0. -1.
     999900   -1    0    0    0    0 -0.00000000000E+00 -0.00000000000E+00 -0.74505805969E-08  0.93827000000E+00  0.93827000000E+00 0. -1.
     999902    2    1    2    0    0  0.17095197552E-01  0.11604705226E-01  0.12398462335E-01  0.10198335930E+01  0.10195488809E+01 0.  0.
     999903    2    3    3    0    0 -0.73940406049E-01 -0.44654763162E-01  0.94448700149E-01  0.12956124677E+00  0.20107913505E-01 0.  0.
         14    1    1    2    0    0 -0.17095197552E-01 -0.11604705226E-01 -0.12398462335E-01  0.24096407015E-01  0.00000000000E+00 0.  1.
     999901    1    3    3    0    0  0.91035603601E-01  0.56259468389E-01 -0.82050237814E-01  0.89027234621E+00  0.88000000000E+00 0. -1.
        -11    1    4    4    0    0 -0.35908030282E-01 -0.10827993694E-01  0.35050490916E-01  0.51336440475E-01  0.51100000000E-03 0. -1.
         11    1    4    4    0    0 -0.38032375767E-01 -0.33826769469E-01  0.59398209233E-01  0.78224806298E-01  0.51100000000E-03 0.  1.
</event>
<event>
 8    1  0.1084146E+005  0.1043930E+01  0.7957747E-01            NaN
         13   -1    0    0    0    0  0.00000000000E+00  0.00000000000E+00  0.74505805969E-08  0.10566000000E+00  0.10566000000E+00 0.  1.
     999900   -1    0    0    0    0 -0.00000000000E+00 -0.00000000000E+00 -0.74505805969E-08  0.93827000000E+00  0.93827000000E+00 0.  1.
     999902    2    1    2    0    0  0.17000925364E-01  0.27599679458E-02 -0.17029504702E-01  0.10197090810E+01  0.10194213834E+01 0.  0.
     999903    2    3    3    0    0  0.12443685419E+00 -0.36297469725E-01 -0.17946317464E-01  0.13231469136E+00  0.19572180535E-01 0.  0.
         14    1    1    2    0    0 -0.17000925364E-01 -0.27599679458E-02  0.17029504702E-01  0.24220918989E-01  0.00000000000E+00 0.  1.
     999901    1    3    3    0    0 -0.10743592882E+00  0.39057437671E-01  0.91681276267E-03  0.88739438965E+00  0.88000000000E+00 0.  1.
        -11    1    4    4    0    0  0.40358972629E-01 -0.45373551565E-02 -0.11463609000E-01  0.42203195564E-01  0.51100000000E-03 0. -1.
         11    1    4    4    0    0  0.84077881557E-01 -0.31760114568E-01 -0.64827084640E-02  0.90111495796E-01  0.51100000000E-03 0.  1.
</event>
<event>
 8    1  0.1084146E+005  0.1043930E+01  0.7957747E-01            NaN
         13   -1    0    0    0    0  0.00000000000E+00  0.00000000000E+00  0.74505805969E-08  0.10566000000E+00  0.10566000000E+00 0. -1.
     999900   -1    0    0    0    0 -0.00000000000E+00 -0.00000000000E+00 -0.74505805969E-08  0.93827000000E+00  0.93827000000E+00 0.  1.
     999902    2    1    2    0    0  0.68927931365E-02  0.25882281294E-01  0.55619782216E-02  0.10165742203E+01  0.10162060847E+01 0.  0.
     999903    2    3    3    0    0 -0.70076626360E-01 -0.55075337723E-01 -0.84872852567E-01  0.12491459563E+00  0.21359511024E-01 0.  0.
         14    1    1    2    0    0 -0.68927931365E-02 -0.25882281294E-01 -0.55619782216E-02  0.27355779718E-01  0.00000000000E+00 0.  1.
     999901    1    3    3    0    0  0.76969419497E-01  0.80957619017E-01  0.90434830789E-01  0.89165962465E+00  0.88000000000E+00 0. -1.
        -11    1    4    4    0    0 -0.10971307255E-01 -0.18537637126E-01 -0.14221977084E-01  0.25817422921E-01  0.51100000000E-03 0.  1.
         11    1    4    4    0    0 -0.59105319105E-01 -0.36537700597E-01 -0.70650875483E-01  0.99097172709E-01  0.51100000000E-03 0. -1.
</event>
<event>
 8    1  0.1084146E+005  0.1043930E+01  0.7957747E-01            NaN
         13   -1    0    0    0    0  0.00000000000E+00  0.00000000000E+00  0.74505805969E-08  0.10566000000E+00  0.10566000000E+00 0.  1.
     999900   -1    0    0    0    0 -0.00000000000E+00 -0.00000000000E+00 -0.74505805969E-08  0.93827000000E+00  0.93827000000E+00 0.  1.
     999902    2    1    2    0    0 -0.13500721196E-01 -0.86407032355E-02  0.18348974901E-01  0.10195657618E+01  0.10192746080E+01 0.  0.
     999903    2    3    3    0    0  0.83006478325E-01 -0.52755311257E-01  0.83497352647E-01  0.13080029814E+00  0.21533968147E-01 0.  0.
         14    1    1    2    0    0  0.13500721196E-01  0.86407032355E-02 -0.18348974901E-01  0.24364238242E-01  0.00000000000E+00 0. -1.
     999901    1    3    3    0    0 -0.96507199521E-01  0.44114608022E-01 -0.65148377746E-01  0.88876546362E+00  0.88000000000E+00 0.  1.
        -11    1    4    4    0    0  0.32857295583E-01 -0.33089034335E-01  0.42632493729E-01  0.63184465724E-01  0.51100000000E-03 0.  1.
         11    1    4    4    0    0  0.50149182742E-01 -0.19666276922E-01  0.40864858918E-01  0.67615832414E-01  0.51100000000E-03 0. -1.
</event>
<event>
 8    1  0.1084146E+005  0.1043930E+01  0.7957747E-01            NaN
         13   -1    0    0    0    0  0.00000000000E+00  0.00000000000E+00  0.74505805969E-08  0.10566000000E+00  0.10566000000E+00 0.  1.
     999900   -1    0    0    0    0 -0.00000000000E+00 -0.00000000000E+00 -0.74505805969E-08  0.93827000000E+00  0.93827000000E+00 0. -1.
     999902    2    1    2    0    0 -0.22187125800E-01 -0.12758763159E-01  0.31213109858E-02  0.10181463391E+01  0.10178198124E+01 0.  0.
     999903    2    3    3    0    0  0.56953691508E-02  0.97126893231E-01  0.79908860663E-01  0.12755742224E+00  0.20479241599E-01 0.  0.
         14    1    1    2    0    0  0.22187125800E-01  0.12758763159E-01 -0.31213109858E-02  0.25783660929E-01  0.00000000000E+00 0. -1.
     999901    1    3    3    0    0 -0.27882494951E-01 -0.10988565639E+00 -0.76787549678E-01  0.89058891684E+00  0.88000000000E+00 0. -1.
        -11    1    4    4    0    0 -0.47653000355E-02  0.10419564049E-01  0.50629830781E-02  0.12536758674E-01  0.51100000000E-03 0. -1.
         11    1    4    4    0    0  0.10460669186E-01  0.86707329182E-01  0.74845877585E-01  0.11502066356E+00  0.51100000000E-03 0.  1.
</event>
<event>
 8    1  0.1084146E+005  0.1043930E+01  0.7957747E-01            NaN
         13   -1    0    0    0    0  0.00000000000E+00  0.00000000000E+00  0.74505805969E-08  0.10566000000E+00  0.10566000000E+00 0.  1.
     999900   -1    0    0    0    0 -0.00000000000E+00 -0.00000000000E+00 -0.74505805969E-08  0.93827000000E+00  0.93827000000E+00 0. -1.
     999902    2    1    2    0    0  0.12399188488E-01 -0.19325168290E-01 -0.48525157544E-03  0.10209639931E+01  0.10207056567E+01 0.  0.
     999903    2    3    3    0    0  0.25164519442E-01  0.89046456777E-01  0.88725272457E-01  0.12974803699E+00  0.19996365352E-01 0.  0.
         14    1    1    2    0    0 -0.12399188488E-01  0.19325168290E-01  0.48525157544E-03  0.22966006917E-01  0.00000000000E+00 0. -1.
     999901    1    3    3    0    0 -0.12765330954E-01 -0.10837162507E+00 -0.89210524033E-01  0.89121595609E+00  0.88000000000E+00 0.  1.
        -11    1    4    4    0    0  0.20487068204E-01  0.41805158789E-01  0.36424601541E-01  0.59113483939E-01  0.51100000000E-03 0. -1.
         11    1    4    4    0    0  0.46774512375E-02  0.47241297988E-01  0.52300670916E-01  0.70634553052E-01  0.51100000000E-03 0.  1.
</event>
<event>
 8    1  0.1084146E+005  0.1043930E+01  0.7957747E-01            NaN
         13   -1    0    0    0    0  0.00000000000E+00  0.00000000000E+00  0.74505805969E-08  0.10566000000E+00  0.10566000000E+00 0.  1.
     999900   -1    0    0    0    0 -0.00000000000E+00 -0.00000000000E+00 -0.74505805969E-08  0.93827000000E+00  0.93827000000E+00 0.  1.
     999902    2    1    2    0    0 -0.23423515946E-01 -0.44935347092E-02  0.72142480792E-03  0.10200684534E+01  0.10197893293E+01 0.  0.
     999903    2    3    3    0    0 -0.89654831843E-01 -0.82250649072E-03 -0.95342792009E-01  0.13235881763E+00  0.19746980163E-01 0.  0.
         14    1    1    2    0    0  0.23423515946E-01  0.44935347092E-02 -0.72142480792E-03  0.23861546622E-01  0.00000000000E+00 0. -1.
     999901    1    3    3    0    0  0.66231315897E-01 -0.36710282185E-02  0.96064216817E-01  0.88770963575E+00  0.88000000000E+00 0. -1.
        -11    1    4    4    0    0 -0.80745949504E-01 -0.62647493662E-02 -0.87926768192E-01  0.11954301791E+00  0.51100000000E-03 0. -1.
         11    1    4    4    0    0 -0.89088823388E-02  0.54422428755E-02 -0.74160238172E-02  0.12815799714E-01  0.51100000000E-03 0.  1.
</event>
<event>
 8    1  0.1084146E+005  0.1043930E+01  0.7957747E-01            NaN
         13   -1    0    0    0    0  0.00000000000E+00  0.00000000000E+00  0.74505805969E-08  0.10566000000E+00  0.10566000000E+00 0.  1.
     999900   -1    0    0    0    0 -0.00000000000E+00 -0.00000000000E+00 -0.74505805969E-08  0.93827000000E+00  0.93827000000E+00 0. -1.
     999902    2    1    2    0    0 -0.87618253223E-02  0.18316254123E-01 -0.13018221931E-01  0.10198109442E+01  0.10195256903E+01 0.  0.
     999903    2    3    3    0    0 -0.10707912177E+00  0.18422458491E-01 -0.72788436025E-01  0.13232078624E+00  0.20132281463E-01 0.  0.
         14    1    1    2    0    0  0.87618253223E-02 -0.18316254123E-01  0.13018221931E-01  0.24119055752E-01  0.00000000000E+00 0.  1.
     999901    1    3    3    0    0  0.98317296451E-01 -0.10620436780E-03  0.59770214093E-01  0.88749015800E+00  0.88000000000E+00 0.  1.
        -11    1    4    4    0    0 -0.40856715880E-01 -0.31855248282E-03 -0.35013962802E-01  0.53810885704E-01  0.51100000000E-03 0. -1.
         11    1    4    4    0    0 -0.66222405893E-01  0.18741010974E-01 -0.37774473223E-01  0.78509900541E-01  0.51100000000E-03 0.  1.
</event>
<event>
 8    1  0.1084146E+005  0.1043930E+01  0.7957747E-01            NaN
         13   -1    0    0    0    0  0.00000000000E+00  0.00000000000E+00  0.74505805969E-08  0.10566000000E+00  0.10566000000E+00 0. -1.
     999900   -1    0    0    0    0 -0.00000000000E+00 -0.00000000000E+00 -0.74505805969E-08  0.93827000000E+00  0.93827000000E+00 0.  1.
     999902    2    1    2    0    0 -0.41245760248E-02  0.87510563947E-02 -0.21492489942E-01  0.10203605231E+01  0.10200882692E+01 0.  0.
     999903    2    3    3    0    0 -0.56389913130E-01  0.47234201645E-01  0.10401268669E+00  0.12908942673E+00  0.20845838773E-01 0.  0.
         14    1    1    2    0    0  0.41245760248E-02 -0.87510563947E-02  0.21492489942E-01  0.23569476857E-01  0.00000000000E+00 0. -1.
     999901    1    3    3    0    0  0.52265337105E-01 -0.38483145251E-01 -0.12550517663E+00  0.89127109641E+00  0.88000000000E+00 0.  1.
        -11    1    4    4    0    0 -0.11193712548E-01  0.27358779876E-02  0.26720064753E-01  0.29103388297E-01  0.51100000000E-03 0.  1.
         11    1    4    4    0    0 -0.45196200582E-01  0.44498323658E-01  0.77292621938E-01  0.99986038437E-01  0.51100000000E-03 0. -1.
</event>
<event>
 8    1  0.1084146E+005  0.1043930E+01  0.7957747E-01            NaN
         13   -1    0    0    0    0  0.00000000000E+00  0.00000000000E+00  0.74505805969E-08  0.10566000000E+00  0.10566000000E+00 0. -1.
     999900   -1    0    0    0    0 -0.00000000000E+00 -0.00000000000E+00 -0.74505805969E-08  0.93827000000E+00  0.93827000000E+00 0. -1.
     999902    2    1    2    0    0  0.38658582960E-02 -0.16769674101E-01  0.15743873818E-01  0.10206054123E+01  0.10203388512E+01 0.  0.
     999903    2    3    3    0    0 -0.52073271924E-01 -0.47460272428E-01  0.11120433366E+00  0.13314623095E+00  0.19935192135E-01 0.  0.
         14    1    1    2    0    0 -0.38658582960E-02  0.16769674101E-01 -0.15743873818E-01  0.23324587726E-01  0.00000000000E+00 0. -1.
     999901    1    3    3    0    0  0.55939130220E-01  0.30690598327E-01 -0.95460459839E-01  0.88745918132E+00  0.88000000000E+00 0.  1.
        -11    1    4    4    0    0 -0.74944341802E-02 -0.11100266211E-01  0.99593986797E-02  0.16698299216E-01  0.51100000000E-03 0. -1.
         11    1    4    4    0    0 -0.44578837743E-01 -0.36360006217E-01  0.10124493498E+00  0.11644793174E+00  0.51100000000E-03 0.  1.
</event>
<event>
 8    1  0.1084146E+005  0.1043930E+01  0.7957747E-01            NaN
         13   -1    0    0    0    0  0.00000000000E+00  0.00000000000E+00  0.74505805969E-08  0.10566000000E+00  0.10566000000E+00 0. -1.
     999900   -1    0    0    0    0 -0.00000000000E+00 -0.00000000000E+00 -0.74505805969E-08  0.93827000000E+00  0.93827000000E+00 0.  1.
     999902    2    1    2    0    0  0.23027400211E-02 -0.19984430824E-01 -0.11741960668E-01  0.10206372173E+01  0.10203713910E+01 0.  0.
     999903    2    3    3    0    0  0.10496856084E+00 -0.38362757905E-01 -0.69372495620E-01  0.13260607354E+00  0.16784744031E-01 0.  0.
         14    1    1    2    0    0 -0.23027400211E-02  0.19984430824E-01  0.11741960668E-01  0.23292782730E-01  0.00000000000E+00 0. -1.
     999901    1    3    3    0    0 -0.10266582082E+00  0.18378327081E-01  0.57630534952E-01  0.88803114373E+00  0.88000000000E+00 0. -1.
        -11    1    4    4    0    0  0.64962487630E-01 -0.15674365224E-01 -0.44838870824E-01  0.80477301036E-01  0.51100000000E-03 0. -1.
         11    1    4    4    0    0  0.40006073213E-01 -0.22688392681E-01 -0.24533624796E-01  0.52128772506E-01  0.51100000000E-03 0.  1.
</event>
<event>
 8    1  0.1084146E+005  0.1043930E+01  0.7957747E-01            NaN
         13   -1    0    0    0    0  0.00000000000E+00  0.00000000000E+00  0.74505805969E-08  0.10566000000E+00  0.10566000000E+00 0. -1.
     999900   -1    0    0    0    0 -0.00000000000E+00 -0.00000000000E+00 -0.74505805969E-08  0.93827000000E+00  0.93827000000E+00 0. -1.
     999902    2    1    2    0    0  0.12065503495E-01  0.21001366938E-01 -0.10852750794E-02  0.10196851735E+01  0.10193969009E+01 0.  0.
     999903    2    3    3    0    0 -0.59711486094E-01  0.48992436006E-01  0.10313978336E+00  0.13019189140E+00  0.18611644647E-01 0.  0.
         14    1    1    2    0    0 -0.12065503495E-01 -0.21001366938E-01  0.10852750794E-02  0.24244826455E-01  0.00000000000E+00 0. -1.
     999901    1    3    3    0    0  0.71776989589E-01 -0.27991069067E-01 -0.10422505844E+00  0.88949328215E+00  0.88000000000E+00 0. -1.
        -11    1    4    4    0    0 -0.33139825515E-01  0.22678916093E-01  0.39216542792E-01  0.56131805778E-01  0.51100000000E-03 0.  1.
         11    1    4    4    0    0 -0.26571660579E-01  0.26313519913E-01  0.63923240567E-01  0.74060085618E-01  0.51100000000E-03 0. -1.
</event>
<event>
 8    1  0.1084146E+005  0.1043930E+01  0.7957747E-01            NaN
         13   -1    0    0    0    0  0.00000000000E+00  0.00000000000E+00  0.74505805969E-08  0.10566000000E+00  0.10566000000E+00 0.  1.
     999900   -1    0    0    0    0 -0.00000000000E+00 -0.00000000000E+00 -0.74505805969E-08  0.93827000000E+00  0.93827000000E+00 0. -1.
     999902    2    1    2    0    0  0.86614526991E-02  0.21481738378E-01  0.71606831138E-02  0.10196862126E+01  0.10193979649E+01 0.  0.
     999903    2    3    3    0    0 -0.21137998646E-01 -0.10747517392E+00 -0.61444365895E-01  0.12714795272E+00  0.19835921596E-01 0.  0.
         14    1    1    2    0    0 -0.86614526991E-02 -0.21481738378E-01 -0.71606831138E-02  0.24243787437E-01  0.00000000000E+00 0. -1.
     999901    1    3    3    0    0  0.29799451345E-01  0.12895691230E+00  0.68605049009E-01  0.89253825984E+00  0.88000000000E+00 0.  1.
        -11    1    4    4    0    0 -0.21244497188E-01 -0.64113218341E-01 -0.42674817384E-01  0.79895147454E-01  0.51100000000E-03 0.  1.
         11    1    4    4    0    0  0.10649854271E-03 -0.43361955578E-01 -0.18769548511E-01  0.47252805269E-01  0.51100000000E-03 0. -1.
</event>
<event>
 8    1  0.1084146E+005  0.1043930E+01  0.7957747E-01            NaN
         13   -1    0    0    0    0  0.00000000000E+00  0.00000000000E+00  0.74505805969E-08  0.10566000000E+00  0.10566000000E+00 0.  1.
     999900   -1    0    0    0    0 -0.00000000000E+00 -0.00000000000E+00 -0.74505805969E-08  0.93827000000E+00  0.93827000000E+00 0.  1.
     999902    2    1    2    0    0 -0.75766625835E-03 -0.50124855829E-02  0.21151425902E-01  0.10221795543E+01  0.10219481197E+01 0.  0.
     999903    2    3    3    0    0  0.11019686837E+00 -0.69821915698E-01 -0.97390809377E-02  0.13231136497E+00  0.19824174469E-01 0.  0.
         14    1    1    2    0    0  0.75766625835E-03  0.50124855829E-02 -0.21151425902E-01  0.21750445687E-01  0.00000000000E+00 0. -1.
     999901    1    3    3    0    0 -0.11095453463E+00  0.64809430115E-01  0.30890506840E-01  0.88986818934E+00  0.88000000000E+00 0.  1.
        -11    1    4    4    0    0  0.45299446384E-01 -0.30551104334E-01 -0.13765565210E-01  0.56348573409E-01  0.51100000000E-03 0. -1.
         11    1    4    4    0    0  0.64897421986E-01 -0.39270811364E-01  0.40264842726E-02  0.75962791564E-01  0.51100000000E-03 0.  1.
</event>
<event>
 8    1  0.1471027E+005  0.1043930E+01  0.7957747E-01            NaN
         13   -1    0    0    0    0  0.00000000000E+00  0.00000000000E+00  0.74505805969E-08  0.10566000000E+00  0.10566000000E+00 0.  1.
     999900   -1    0    0    0    0 -0.00000000000E+00 -0.00000000000E+00 -0.74505805969E-08  0.93827000000E+00  0.93827000000E+00 0. -1.
     999902    2    1    2    0    0  0.22503894336E-01 -0.89489426731E-02 -0.34632611284E-02  0.10194656788E+01  0.10191720989E+01 0.  0.
     999903    2    3    3    0    0 -0.17943063090E-02 -0.10550076303E+00 -0.74890281680E-01  0.13097568118E+00  0.20308723153E-01 0.  0.
         14    1    1    2    0    0 -0.22503894336E-01  0.89489426731E-02  0.34632611284E-02  0.24464321223E-01  0.00000000000E+00 0.  1.
     999901    1    3    3    0    0  0.24298200645E-01  0.96551820352E-01  0.71427020552E-01  0.88848999760E+00  0.88000000000E+00 0.  1.
        -11    1    4    4    0    0 -0.11035976155E-01 -0.54475324546E-01 -0.39646850457E-01  0.68275087889E-01  0.51100000000E-03 0. -1.
         11    1    4    4    0    0  0.92416698455E-02 -0.51025438479E-01 -0.35243431223E-01  0.62700593290E-01  0.51100000000E-03 0.  1.
</event>
<event>
 8    1  0.1084146E+005  0.1043930E+01  0.7957747E-01            NaN
         13   -1    0    0    0    0  0.00000000000E+00  0.00000000000E+00  0.74505805969E-08  0.10566000000E+00  0.10566000000E+00 0.  1.
     999900   -1    0    0    0    0 -0.00000000000E+00 -0.00000000000E+00 -0.74505805969E-08  0.93827000000E+00  0.93827000000E+00 0. -1.
     999902    2    1    2    0    0  0.30114333183E-01 -0.41788037855E-02  0.10308126719E-01  0.10118271506E+01  0.10113177491E+01 0.  0.
     999903    2    3    3    0    0 -0.38755372289E-01 -0.11397419572E+00 -0.45649924176E-02  0.12220966307E+00  0.20549122114E-01 0.  0.
         14    1    1    2    0    0 -0.30114333183E-01  0.41788037855E-02 -0.10308126719E-01  0.32102849415E-01  0.00000000000E+00 0.  1.
     999901    1    3    3    0    0  0.68869705472E-01  0.10979539194E+00  0.14873119136E-01  0.88961748752E+00  0.88000000000E+00 0. -1.
        -11    1    4    4    0    0 -0.19185418083E-01 -0.73817266616E-01  0.53121139896E-02  0.76456188721E-01  0.51100000000E-03 0. -1.
         11    1    4    4    0    0 -0.19569954206E-01 -0.40156929106E-01 -0.98771064072E-02  0.45753474347E-01  0.51100000000E-03 0.  1.
</event>
<event>
 8    1  0.1084146E+005  0.1043930E+01  0.7957747E-01            NaN
         13   -1    0    0    0    0  0.00000000000E+00  0.00000000000E+00  0.74505805969E-08  0.10566000000E+00  0.10566000000E+00 0. -1.
     999900   -1    0    0    0    0 -0.00000000000E+00 -0.00000000000E+00 -0.74505805969E-08  0.93827000000E+00  0.93827000000E+00 0.  1.
     999902    2    1    2    0    0  0.20535642957E-01  0.90207545538E-02  0.83582402865E-02  0.10199936923E+01  0.10197127956E+01 0.  0.
     999903    2    3    3    0    0  0.53806655671E-01 -0.11339325700E+00  0.29755840282E-01  0.13063999002E+00  0.20693236468E-01 0.  0.
         14    1    1    2    0    0 -0.20535642957E-01 -0.90207545538E-02 -0.83582402865E-02  0.23936307674E-01  0.00000000000E+00 0.  1.
     999901    1    3    3    0    0 -0.33271012715E-01  0.12241401155E+00 -0.21397599995E-01  0.88935370230E+00  0.88000000000E+00 0. -1.
        -11    1    4    4    0    0  0.39945746047E-01 -0.69227348751E-01  0.10951942755E-01  0.80674002092E-01  0.51100000000E-03 0.  1.
         11    1    4    4    0    0  0.13860909624E-01 -0.44165908248E-01  0.18803897527E-01  0.49965987933E-01  0.51100000000E-03 0. -1.
</event>
<event>
 8    1  0.1084146E+005  0.1043930E+01  0.7957747E-01            NaN
         13   -1    0    0    0    0  0.00000000000E+00  0.00000000000E+00  0.74505805969E-08  0.10566000000E+00  0.10566000000E+00 0. -1.
     999900   -1    0    0    0    0 -0.00000000000E+00 -0.00000000000E+00 -0.74505805969E-08  0.93827000000E+00  0.93827000000E+00 0. -1.
     999902    2    1    2    0    0 -0.17719299338E-01  0.14142637059E-01 -0.49838602874E-02  0.10207173609E+01  0.10204533817E+01 0.  0.
     999903    2    3    3    0    0 -0.13336339302E-01  0.12073482857E+00 -0.49855323977E-01  0.13313944661E+00  0.22040919661E-01 0.  0.
         14    1    1    2    0    0  0.17719299338E-01 -0.14142637059E-01  0.49838602874E-02  0.23212639130E-01  0.00000000000E+00 0.  1.
     999901    1    3    3    0    0 -0.43829600364E-02 -0.10659219151E+00  0.44871463689E-01  0.88757791426E+00  0.88000000000E+00 0.  1.
        -11    1    4    4    0    0 -0.13366819386E-01  0.79813083620E-01 -0.43011074621E-01  0.91646133789E-01  0.51100000000E-03 0.  1.
         11    1    4    4    0    0  0.30480084151E-04  0.40921744948E-01 -0.68442493557E-02  0.41493312821E-01  0.51100000000E-03 0. -1.
</event>
<event>
 8    1  0.1084146E+005  0.1043930E+01  0.7957747E-01            NaN
         13   -1    0    0    0    0  0.00000000000E+00  0.00000000000E+00  0.74505805969E-08  0.10566000000E+00  0.10566000000E+00 0. -1.
     999900   -1    0    0    0    0 -0.00000000000E+00 -0.00000000000E+00 -0.74505805969E-08  0.93827000000E+00  0.93827000000E+00 0. -1.
     999902    2    1    2    0    0 -0.11284995994E-01  0.17628145445E-01  0.10616053075E-01  0.10204608025E+01  0.10201908872E+01 0.  0.
     999903    2    3    3    0    0 -0.54177283242E-01 -0.14205347099E-01 -0.11401358679E+00  0.13007567986E+00  0.27993117248E-01 0.  0.
         14    1    1    2    0    0  0.11284995994E-01 -0.17628145445E-01 -0.10616053075E-01  0.23469197458E-01  0.00000000000E+00 0.  1.
     999901    1    3    3    0    0  0.42892287247E-01  0.31833492544E-01  0.12462963987E+00  0.89038512268E+00  0.88000000000E+00 0.  1.
        -11    1    4    4    0    0 -0.36892418627E-01  0.28431006786E-02 -0.55308219594E-01  0.66546179825E-01  0.51100000000E-03 0.  1.
         11    1    4    4    0    0 -0.17284864614E-01 -0.17048447777E-01 -0.58705367199E-01  0.63529500040E-01  0.51100000000E-03 0. -1.
</event>
<event>
 8    1  0.1084146E+005  0.1043930E+01  0.7957747E-01            NaN
         13   -1    0    0    0    0  0.00000000000E+00  0.00000000000E+00  0.74505805969E-08  0.10566000000E+00  0.10566000000E+00 0. -1.
     999900   -1    0    0    0    0 -0.00000000000E+00 -0.00000000000E+00 -0.74505805969E-08  0.93827000000E+00  0.93827000000E+00 0. -1.
     999902    2    1    2    0    0  0.15599804658E-01 -0.11786006343E-01 -0.10651493815E-01  0.10216652707E+01  0.10214226389E+01 0.  0.
     999903    2    3    3    0    0  0.94450104211E-01  0.54465327214E-01  0.71766447166E-01  0.13183420474E+00  0.18507850910E-01 0.  0.
         14    1    1    2    0    0 -0.15599804658E-01  0.11786006343E-01  0.10651493815E-01  0.22264729313E-01  0.00000000000E+00 0.  1.
     999901    1    3    3    0    0 -0.78850299553E-01 -0.66251333557E-01 -0.82417940981E-01  0.88983106595E+00  0.88000000000E+00 0. -1.
        -11    1    4    4    0    0  0.31302974635E-01  0.22903017812E-01  0.16396312935E-01  0.42113235981E-01  0.51100000000E-03 0.  1.
         11    1    4    4    0    0  0.63147129576E-01  0.31562309402E-01  0.55370134231E-01  0.89720968755E-01  0.51100000000E-03 0. -1.
</event>
<event>
 8    1  0.1084146E+005  0.1043930E+01  0.7957747E-01            NaN
         13   -1    0    0    0    0  0.00000000000E+00  0.00000000000E+00  0.74505805969E-08  0.10566000000E+00  0.10566000000E+00 0.  1.
     999900   -1    0    0    0    0 -0.00000000000E+00 -0.00000000000E+00 -0.74505805969E-08  0.93827000000E+00  0.93827000000E+00 0.  1.
     999902    2    1    2    0    0 -0.22877789477E-03 -0.10778640606E-01 -0.18369053332E-01  0.10226308556E+01  0.10224090244E+01 0.  0.
     999903    2    3    3    0    0  0.10168016346E+00 -0.85198500154E-02  0.80130765150E-01  0.13128762837E+00  0.20101202802E-01 0.  0.
         14    1    1    2    0    0  0.22877789477E-03  0.10778640606E-01  0.18369053332E-01  0.21299144418E-01  0.00000000000E+00 0. -1.
     999901    1    3    3    0    0 -0.10190894135E+00 -0.22587905901E-02 -0.98499818481E-01  0.89134322722E+00  0.88000000000E+00 0. -1.
        -11    1    4    4    0    0  0.23924354359E-01 -0.68874213149E-02  0.28938143976E-01  0.38177069055E-01  0.51100000000E-03 0.  1.
         11    1    4    4    0    0  0.77755809096E-01 -0.16324287006E-02  0.51192621174E-01  0.93110559312E-01  0.51100000000E-03 0. -1.
</event>
<event>
 8    1  0.1084146E+005  0.1043930E+01  0.7957747E-01            NaN
         13   -1    0    0    0    0  0.00000000000E+00  0.00000000000E+00  0.74505805969E-08  0.10566000000E+00  0.10566000000E+00 0. -1.
     999900   -1    0    0    0    0 -0.00000000000E+00 -0.00000000000E+00 -0.74505805969E-08  0.93827000000E+00  0.93827000000E+00 0.  1.
     999902    2    1    2    0    0 -0.13543358508E-01  0.13386502767E-01 -0.14337232605E-01  0.10200935310E+01  0.10198150002E+01 0.  0.
     999903    2    3    3    0    0  0.38355565517E-01  0.77509209619E-01 -0.98229856785E-01  0.13226292089E+00  0.19119322569E-01 0.  0.
         14    1    1    2    0    0  0.13543358508E-01 -0.13386502767E-01  0.14337232605E-01  0.23836469008E-01  0.00000000000E+00 0. -1.
     999901    1    3    3    0    0 -0.51898924025E-01 -0.64122706852E-01  0.83892624180E-01  0.88783061011E+00  0.88000000000E+00 0. -1.
        -11    1    4    4    0    0  0.11782481807E-01  0.39178514511E-01 -0.55910900959E-01  0.69282558006E-01  0.51100000000E-03 0.  1.
         11    1    4    4    0    0  0.26573083710E-01  0.38330695108E-01 -0.42318955825E-01  0.62980362880E-01  0.51100000000E-03 0. -1.
</event>
<event>
 8    1  0.1084146E+005  0.1043930E+01  0.7957747E-01            NaN
         13   -1    0    0    0    0  0.00000000000E+00  0.00000000000E+00  0.74505805969E-08  0.10566000000E+00  0.10566000000E+00 0.  1.
     999900   -1    0    0    0    0 -0.00000000000E+00 -0.00000000000E+00 -0.74505805969E-08  0.93827000000E+00  0.93827000000E+00 0.  1.
     999902    2    1    2    0    0 -0.18305513505E-02  0.55902069502E-02 -0.23430222932E-01  0.10197726682E+01  0.10194864973E+01 0.  0.
     999903    2    3    3    0    0  0.63327989605E-02  0.66587291297E-01  0.10651216836E+00  0.12810439490E+00  0.24329452924E-01 0.  0.
         14    1    1    2    0    0  0.18305513505E-02 -0.55902069502E-02  0.23430222932E-01  0.24157331778E-01  0.00000000000E+00 0.  1.
     999901    1    3    3    0    0 -0.81633503110E-02 -0.60997084346E-01 -0.12994239129E+00  0.89166827332E+00  0.88000000000E+00 0.  1.
        -11    1    4    4    0    0  0.15338075204E-01  0.40289265698E-01  0.59327768088E-01  0.73338439231E-01  0.51100000000E-03 0. -1.
         11    1    4    4    0    0 -0.90052762434E-02  0.26298025598E-01  0.47184400274E-01  0.54765955673E-01  0.51100000000E-03 0.  1.
</event>
<event>
 8    1  0.1084146E+005  0.1043930E+01  0.7957747E-01            NaN
         13   -1    0    0    0    0  0.00000000000E+00  0.00000000000E+00  0.74505805969E-08  0.10566000000E+00  0.10566000000E+00 0.  1.
     999900   -1    0    0    0    0 -0.00000000000E+00 -0.00000000000E+00 -0.74505805969E-08  0.93827000000E+00  0.93827000000E+00 0. -1.
     999902    2    1    2    0    0 -0.65808178522E-02 -0.21524461477E-01 -0.11212149341E-01  0.10187839884E+01  0.10184736095E+01 0.  0.
     999903    2    3    3    0    0 -0.68657654245E-01  0.27089670799E-01  0.10248519244E+00  0.12797314823E+00  0.20644327268E-01 0.  0.
         14    1    1    2    0    0  0.65808178522E-02  0.21524461477E-01  0.11212149341E-01  0.25146011578E-01  0.00000000000E+00 0. -1.
     999901    1    3    3    0    0  0.62076836393E-01 -0.48614132276E-01 -0.11369734178E+00  0.89081084019E+00  0.88000000000E+00 0. -1.
        -11    1    4    4    0    0 -0.43534214528E-01  0.63046037350E-02  0.56822196992E-01  0.71860970316E-01  0.51100000000E-03 0.  1.
         11    1    4    4    0    0 -0.25123439717E-01  0.20785067064E-01  0.45662995447E-01  0.56112177914E-01  0.51100000000E-03 0. -1.
</event>
<event>
 8    1  0.1084146E+005  0.1043930E+01  0.7957747E-01            NaN
         13   -1    0    0    0    0  0.00000000000E+00  0.00000000000E+00  0.74505805969E-08  0.10566000000E+00  0.10566000000E+00 0.  1.
     999900   -1    0    0    0    0 -0.00000000000E+00 -0.00000000000E+00 -0.74505805969E-08  0.93827000000E+00  0.93827000000E+00 0. -1.
     999902    2    1    2    0    0 -0.11581927159E-01  0.18084175960E-02 -0.20073279411E-01  0.10206846143E+01  0.10204198812E+01 0.  0.
     999903    2    3    3    0    0 -0.91356964165E-01  0.88322262783E-01  0.27556656781E-01  0.13157420901E+00  0.20136686404E-01 0.  0.
         14    1    1    2    0    0  0.11581927159E-01 -0.18084175960E-02  0.20073279411E-01  0.23245385719E-01  0.00000000000E+00 0.  1.
     999901    1    3    3    0    0  0.79775037006E-01 -0.86513845187E-01 -0.47629936191E-01  0.88911040527E+00  0.88000000000E+00 0.  1.
        -11    1    4    4    0    0 -0.96601129850E-02  0.21950998245E-02  0.14420103171E-02  0.10023809699E-01  0.51100000000E-03 0. -1.
         11    1    4    4    0    0 -0.81696851180E-01  0.86127162958E-01  0.26114646464E-01  0.12155039931E+00  0.51100000000E-03 0.  1.
</event>
<event>
 8    1  0.1109110E+005  0.1043930E+01  0.7957747E-01            NaN
         13   -1    0    0    0    0  0.00000000000E+00  0.00000000000E+00  0.74505805969E-08  0.10566000000E+00  0.10566000000E+00 0.  1.
     999900   -1    0    0    0    0 -0.00000000000E+00 -0.00000000000E+00 -0.74505805969E-08  0.93827000000E+00  0.93827000000E+00 0. -1.
     999902    2    1    2    0    0 -0.19965512290E-02 -0.38248592633E-02 -0.24528404033E-01  0.10190250132E+01  0.10187206286E+01 0.  0.
     999903    2    3    3    0    0  0.47519174774E-01 -0.94887157496E-01 -0.74804760834E-01  0.13151621808E+00  0.20955160383E-01 0.  0.
         14    1    1    2    0    0  0.19965512290E-02  0.38248592633E-02  0.24528404033E-01  0.24904986842E-01  0.00000000000E+00 0.  1.
     999901    1    3    3    0    0 -0.49515726003E-01  0.91062298233E-01  0.50276356801E-01  0.88750879507E+00  0.88000000000E+00 0.  1.
        -11    1    4    4    0    0  0.54823249907E-02 -0.32010083937E-01 -0.20593787786E-01  0.38458634626E-01  0.51100000000E-03 0. -1.
         11    1    4    4    0    0  0.42036849784E-01 -0.62877073559E-01 -0.54210973048E-01  0.93057583458E-01  0.51100000000E-03 0.  1.
</event>
<event>
 8    1  0.1084146E+005  0.1043930E+01  0.7957747E-01            NaN
         13   -1    0    0    0    0  0.00000000000E+00  0.00000000000E+00  0.74505805969E-08  0.10566000000E+00  0.10566000000E+00 0.  1.
     999900   -1    0    0    0    0 -0.00000000000E+00 -0.00000000000E+00 -0.74505805969E-08  0.93827000000E+00  0.93827000000E+00 0. -1.
     999902    2    1    2    0    0  0.22328321393E-01  0.71329792137E-02  0.10942889197E-01  0.10180614834E+01  0.10177327762E+01 0.  0.
     999903    2    3    3    0    0  0.12508241567E+00  0.16766849272E-01 -0.29333143091E-01  0.13111538911E+00  0.20101592793E-01 0.  0.
         14    1    1    2    0    0 -0.22328321393E-01 -0.71329792137E-02 -0.10942889197E-01  0.25868516631E-01  0.00000000000E+00 0. -1.
     999901    1    3    3    0    0 -0.10275409428E+00 -0.96338700584E-02  0.40276032289E-01  0.88694609426E+00  0.88000000000E+00 0.  1.
        -11    1    4    4    0    0  0.10425689865E+00  0.11877550811E-01 -0.16661881192E-01  0.10624714837E+00  0.51100000000E-03 0. -1.
         11    1    4    4    0    0  0.20825517018E-01  0.48892984612E-02 -0.12671261899E-01  0.24868240743E-01  0.51100000000E-03 0.  1.
</event>
<event>
 8    1  0.1084146E+005  0.1043930E+01  0.7957747E-01            NaN
         13   -1    0    0    0    0  0.00000000000E+00  0.00000000000E+00  0.74505805969E-08  0.10566000000E+00  0.10566000000E+00 0. -1.
     999900   -1    0    0    0    0 -0.00000000000E+00 -0.00000000000E+00 -0.74505805969E-08  0.93827000000E+00  0.93827000000E+00 0. -1.
     999902    2    1    2    0    0 -0.17386239590E-01  0.10578009275E-01  0.11203881065E-01  0.10206985007E+01  0.10204340875E+01 0.  0.
     999903    2    3    3    0    0  0.12229060342E+00  0.22480028832E-01  0.29439914984E-01  0.12941637285E+00  0.20531575391E-01 0.  0.
         14    1    1    2    0    0  0.17386239590E-01 -0.10578009275E-01 -0.11203881065E-01  0.23231499268E-01  0.00000000000E+00 0. -1.
     999901    1    3    3    0    0 -0.13967684301E+00 -0.11902019557E-01 -0.18236033920E-01  0.89128212788E+00  0.88000000000E+00 0. -1.
        -11    1    4    4    0    0  0.98481392332E-01  0.19276436371E-01  0.31805126173E-01  0.10527104448E+00  0.51100000000E-03 0.  1.
         11    1    4    4    0    0  0.23809211085E-01  0.32035924610E-02 -0.23652111884E-02  0.24145328370E-01  0.51100000000E-03 0. -1.
</event>
<event>
 8    1  0.1084146E+005  0.1043930E+01  0.7957747E-01            NaN
         13   -1    0    0    0    0  0.00000000000E+00  0.00000000000E+00  0.74505805969E-08  0.10566000000E+00  0.10566000000E+00 0. -1.
     999900   -1    0    0    0    0 -0.00000000000E+00 -0.00000000000E+00 -0.74505805969E-08  0.93827000000E+00  0.93827000000E+00 0.  1.
     999902    2    1    2    0    0 -0.13162525760E-01  0.69625808099E-02  0.19501038958E-01  0.10193939014E+01  0.10190985752E+01 0.  0.
     999903    2    3    3    0    0 -0.52134278996E-01  0.11752963123E+00 -0.14354677278E-01  0.13097391075E+00  0.20418405311E-01 0.  0.
         14    1    1    2    0    0  0.13162525760E-01 -0.69625808099E-02 -0.19501038958E-01  0.24536098638E-01  0.00000000000E+00 0. -1.
     999901    1    3    3    0    0  0.38971753236E-01 -0.11056705042E+00  0.33855716236E-01  0.88841999061E+00  0.88000000000E+00 0.  1.
        -11    1    4    4    0    0 -0.22888887554E-01  0.71780905586E-01 -0.14219281585E-01  0.76673650429E-01  0.51100000000E-03 0. -1.
         11    1    4    4    0    0 -0.29245391442E-01  0.45748725642E-01 -0.13539569259E-03  0.54300260326E-01  0.51100000000E-03 0.  1.
</event>
<event>
 8    1  0.1084146E+005  0.1043930E+01  0.7957747E-01            NaN
         13   -1    0    0    0    0  0.00000000000E+00  0.00000000000E+00  0.74505805969E-08  0.10566000000E+00  0.10566000000E+00 0.  1.
     999900   -1    0    0    0    0 -0.00000000000E+00 -0.00000000000E+00 -0.74505805969E-08  0.93827000000E+00  0.93827000000E+00 0.  1.
     999902    2    1    2    0    0 -0.77958595249E-02 -0.18863127804E-01  0.11225265759E-01  0.10206362324E+01  0.10203703834E+01 0.  0.
     999903    2    3    3    0    0 -0.64757210572E-01  0.10098860754E+00 -0.34841719614E-01  0.12949583882E+00  0.34103250165E-01 0.  0.
         14    1    1    2    0    0  0.77958595249E-02  0.18863127804E-01 -0.11225265759E-01  0.23293767571E-01  0.00000000000E+00 0. -1.
     999901    1    3    3    0    0  0.56961351047E-01 -0.11985173535E+00  0.46066985373E-01  0.89114039361E+00  0.88000000000E+00 0. -1.
        -11    1    4    4    0    0 -0.24676832998E-02  0.21044568404E-01 -0.15651586355E-01  0.26347610833E-01  0.51100000000E-03 0.  1.
         11    1    4    4    0    0 -0.62289527272E-01  0.79944039138E-01 -0.19190133260E-01  0.10314822799E+00  0.51100000000E-03 0. -1.
</event>
<event>
 8    1  0.1084146E+005  0.1043930E+01  0.7957747E-01            NaN
         13   -1    0    0    0    0  0.00000000000E+00  0.00000000000E+00  0.74505805969E-08  0.10566000000E+00  0.10566000000E+00 0. -1.
     999900   -1    0    0    0    0 -0.00000000000E+00 -0.00000000000E+00 -0.74505805969E-08  0.93827000000E+00  0.93827000000E+00 0.  1.
     999902    2    1    2    0    0 -0.88202387702E-02 -0.54512308070E-02 -0.21140669862E-01  0.10203834408E+01  0.10201117222E+01 0.  0.
     999903    2    3    3    0    0  0.12462127457E+00 -0.30362734757E-01 -0.41526237514E-02  0.12981294147E+00  0.19539645671E-01 0.  0.
         14    1    1    2    0    0  0.88202387702E-02  0.54512308070E-02  0.21140669862E-01  0.23546559229E-01  0.00000000000E+00 0. -1.
     999901    1    3    3    0    0 -0.13344151334E+00  0.24911503950E-01 -0.16988046111E-01  0.89057049930E+00  0.88000000000E+00 0.  1.
        -11    1    4    4    0    0  0.10920984568E+00 -0.19950914517E-01 -0.15770193197E-02  0.11102962440E+00  0.51100000000E-03 0.  1.
         11    1    4    4    0    0  0.15411428890E-01 -0.10411820240E-01 -0.25756044317E-02  0.18783317075E-01  0.51100000000E-03 0. -1.
</event>
<event>
 8    1  0.1084146E+005  0.1043930E+01  0.7957747E-01            NaN
         13   -1    0    0    0    0  0.00000000000E+00  0.00000000000E+00  0.74505805969E-08  0.10566000000E+00  0.10566000000E+00 0. -1.
     999900   -1    0    0    0    0 -0.00000000000E+00 -0.00000000000E+00 -0.74505805969E-08  0.93827000000E+00  0.93827000000E+00 0. -1.
     999902    2    1    2    0    0 -0.10246467389E-01  0.42763458693E-02  0.20219565849E-01  0.10208625322E+01  0.10206018820E+01 0.  0.
     999903    2    3    3    0    0  0.19477592937E-02  0.70339274289E-01 -0.10651973500E+00  0.12924834430E+00  0.20181012970E-01 0.  0.
         14    1    1    2    0    0  0.10246467389E-01 -0.42763458693E-02 -0.20219565849E-01  0.23067467808E-01  0.00000000000E+00 0.  1.
     999901    1    3    3    0    0 -0.12194226682E-01 -0.66062928420E-01  0.12673930085E+00  0.89161418790E+00  0.88000000000E+00 0.  1.
        -11    1    4    4    0    0  0.73246987239E-02  0.22729720457E-01 -0.48001268228E-01  0.53615988995E-01  0.51100000000E-03 0.  1.
         11    1    4    4    0    0 -0.53769394302E-02  0.47609553832E-01 -0.58518466775E-01  0.75632355302E-01  0.51100000000E-03 0. -1.
</event>
<event>
 8    1  0.1084146E+005  0.1043930E+01  0.7957747E-01            NaN
         13   -1    0    0    0    0  0.00000000000E+00  0.00000000000E+00  0.74505805969E-08  0.10566000000E+00  0.10566000000E+00 0.  1.
     999900   -1    0    0    0    0 -0.00000000000E+00 -0.00000000000E+00 -0.74505805969E-08  0.93827000000E+00  0.93827000000E+00 0.  1.
     999902    2    1    2    0    0  0.61008571850E-02  0.83277559519E-02 -0.23108693427E-01  0.10186202452E+01  0.10183057597E+01 0.  0.
     999903    2    3    3    0    0 -0.33501022077E-01  0.98072187214E-02 -0.12578776021E+00  0.13176428821E+00  0.17909969556E-01 0.  0.
         14    1    1    2    0    0 -0.61008571850E-02 -0.83277559519E-02  0.23108693427E-01  0.25309754828E-01  0.00000000000E+00 0.  1.
     999901    1    3    3    0    0  0.39601879262E-01 -0.14794627695E-02  0.10267906678E+00  0.88685595697E+00  0.88000000000E+00 0. -1.
        -11    1    4    4    0    0 -0.21006330388E-01  0.54823215007E-02 -0.45776222320E-01  0.50666018359E-01  0.51100000000E-03 0. -1.
         11    1    4    4    0    0 -0.12494691689E-01  0.43248972207E-02 -0.80011537886E-01  0.81098269847E-01  0.51100000000E-03 0.  1.
</event>
<event>
 7    1  0.1084146E+005  0.1043930E+01  0.7957747E-01            NaN
         13   -1    0    0    0    0  0.00000000000E+00  0.00000000000E+00  0.74505805969E-08  0.10566000000E+00  0.10566000000E+00 0.  1.
     999900   -1    0    0    0    0 -0.00000000000E+00 -0.00000000000E+00 -0.74505805969E-08  0.93827000000E+00  0.93827000000E+00 0. -1.
     999902    2    1    2    0    0 -0.74000049512E-02  0.22723242639E-01  0.58070842848E-02  0.10193367477E+01  0.10190400273E+01 0.  0.
         14    1    1    2    0    0  0.74000049512E-02 -0.22723242639E-01 -0.58070842848E-02  0.24593252270E-01  0.00000000000E+00 0.  1.
     999901    1    3    3    0    0  0.26736715630E-01 -0.33417733903E-02 -0.10725028470E+00  0.88692087752E+00  0.88000000000E+00 0. -1.
        -11    1    3    3    0    0 -0.38881442503E-01  0.99345985546E-02  0.37223048367E-01  0.54738279753E-01  0.51100000000E-03 0.  1.
         11    1    3    3    0    0  0.47447219222E-02  0.16130417475E-01  0.75834320622E-01  0.77677590457E-01  0.51100000000E-03 0. -1.
</event>
<event>
 8    1  0.1084146E+005  0.1043930E+01  0.7957747E-01            NaN
         13   -1    0    0    0    0  0.00000000000E+00  0.00000000000E+00  0.74505805969E-08  0.10566000000E+00  0.10566000000E+00 0. -1.
     999900   -1    0    0    0    0 -0.00000000000E+00 -0.00000000000E+00 -0.74505805969E-08  0.93827000000E+00  0.93827000000E+00 0. -1.
     999902    2    1    2    0    0 -0.64206947261E-02 -0.12272034347E-02  0.22891144786E-01  0.10201237853E+01  0.10198459695E+01 0.  0.
     999903    2    3    3    0    0 -0.12475779051E+00  0.35100709981E-01  0.12151881589E-01  0.13139507680E+00  0.17900610251E-01 0.  0.
         14    1    1    2    0    0  0.64206947261E-02  0.12272034347E-02 -0.22891144786E-01  0.23806214707E-01  0.00000000000E+00 0.  1.
     999901    1    3    3    0    0  0.11833709578E+00 -0.36327913416E-01  0.10739263198E-01  0.88872870850E+00  0.88000000000E+00 0.  1.
        -11    1    4    4    0    0 -0.11473740338E+00  0.27446935519E-01  0.86172747592E-02  0.11829000190E+00  0.51100000000E-03 0. -1.
         11    1    4    4    0    0 -0.10020387124E-01  0.76537744620E-02  0.35346068296E-02  0.13105074898E-01  0.51100000000E-03 0.  1.
</event>
<event>
 8    1  0.1084146E+005  0.1043930E+01  0.7957747E-01            NaN
         13   -1    0    0    0    0  0.00000000000E+00  0.00000000000E+00  0.74505805969E-08  0.10566000000E+00  0.10566000000E+00 0.  1.
     999900   -1    0    0    0    0 -0.00000000000E+00 -0.00000000000E+00 -0.74505805969E-08  0.93827000000E+00  0.93827000000E+00 0. -1.
     999902    2    1    2    0    0  0.14158464090E-01 -0.66064999331E-02  0.18410349977E-01  0.10197835938E+01  0.10194976848E+01 0.  0.
     999903    2    3    3    0    0  0.95443720666E-01 -0.34273303421E-01 -0.79230965911E-01  0.13022945180E+00  0.19949962801E-01 0.  0.
         14    1    1    2    0    0 -0.14158464090E-01  0.66064999331E-02 -0.18410349977E-01  0.24146406213E-01  0.00000000000E+00 0. -1.
     999901    1    3    3    0    0 -0.81285256576E-01  0.27666803488E-01  0.97641315888E-01  0.88955414198E+00  0.88000000000E+00 0.  1.
        -11    1    4    4    0    0  0.67061565826E-01 -0.31020967546E-01 -0.64505943906E-01  0.98085839747E-01  0.51100000000E-03 0. -1.
         11    1    4    4    0    0  0.28382154840E-01 -0.32523358747E-02 -0.14725022005E-01  0.32143612056E-01  0.51100000000E-03 0.  1.
</event>
<event>
 8    1  0.1091576E+005  0.1043930E+01  0.7957747E-01            NaN
         13   -1    0    0    0    0  0.00000000000E+00  0.00000000000E+00  0.74505805969E-08  0.10566000000E+00  0.10566000000E+00 0. -1.
     999900   -1    0    0    0    0 -0.00000000000E+00 -0.00000000000E+00 -0.74505805969E-08  0.93827000000E+00  0.93827000000E+00 0.  1.
     999902    2    1    2    0    0  0.29385284427E-01 -0.18482470172E-01 -0.15049732820E-01  0.10060936273E+01  0.10053819153E+01 0.  0.
     999903    2    3    3    0    0 -0.10764854776E+00 -0.88432982558E-02 -0.34535648142E-01  0.11522276922E+00  0.20424539070E-01 0.  0.
         14    1    1    2    0    0 -0.29385284427E-01  0.18482470172E-01  0.15049732820E-01  0.37836372745E-01  0.00000000000E+00 0. -1.
     999901    1    3    3    0    0  0.13703383218E+00 -0.96391719164E-02  0.19485915322E-01  0.89087085803E+00  0.88000000000E+00 0.  1.
        -11    1    4    4    0    0 -0.24233076460E-01 -0.99988692827E-02 -0.11816340017E-01  0.28759457471E-01  0.51100000000E-03 0.  1.
         11    1    4    4    0    0 -0.83415471297E-01  0.11555710269E-02 -0.22719308125E-01  0.86463311750E-01  0.51100000000E-03 0. -1.
</event>
<event>
 8    1  0.1084146E+005  0.1043930E+01  0.7957747E-01            NaN
         13   -1    0    0    0    0  0.00000000000E+00  0.00000000000E+00  0.74505805969E-08  0.10566000000E+00  0.10566000000E+00 0. -1.
     999900   -1    0    0    0    0 -0.00000000000E+00 -0.00000000000E+00 -0.74505805969E-08  0.93827000000E+00  0.93827000000E+00 0.  1.
     999902    2    1    2    0    0 -0.18457197877E-02  0.24441543322E-01  0.70052114370E-02  0.10184374774E+01  0.10181183756E+01 0.  0.
     999903    2    3    3    0    0  0.84504024389E-01 -0.16488685300E-01  0.94761565957E-01  0.12892483572E+00  0.15134464075E-01 0.  0.
         14    1    1    2    0    0  0.18457197877E-02 -0.24441543322E-01 -0.70052114370E-02  0.25492522605E-01  0.00000000000E+00 0. -1.
     999901    1    3    3    0    0 -0.86349744177E-01  0.40930228622E-01 -0.87756354520E-01  0.88951264167E+00  0.88000000000E+00 0.  1.
        -11    1    4    4    0    0  0.67817912319E-01 -0.12056876003E-01  0.66140423701E-01  0.95495833724E-01  0.51100000000E-03 0. -1.
         11    1    4    4    0    0  0.16686112070E-01 -0.44318092966E-02  0.28621142255E-01  0.33429001999E-01  0.51100000000E-03 0.  1.
</event>
<event>
 8    1  0.1084146E+005  0.1043930E+01  0.7957747E-01            NaN
         13   -1    0    0    0    0  0.00000000000E+00  0.00000000000E+00  0.74505805969E-08  0.10566000000E+00  0.10566000000E+00 0. -1.
     999900   -1    0    0    0    0 -0.00000000000E+00 -0.00000000000E+00 -0.74505805969E-08  0.93827000000E+00  0.93827000000E+00 0.  1.
     999902    2    1    2    0    0  0.14267699696E-01  0.18235623459E-01  0.88520509101E-02  0.10191416152E+01  0.10188401090E+01 0.  0.
     999903    2    3    3    0    0  0.55095670981E-01  0.23579981816E-01 -0.11322660839E+00  0.12976054697E+00  0.20639433109E-01 0.  0.
         14    1    1    2    0    0 -0.14267699696E-01 -0.18235623459E-01 -0.88520509101E-02  0.24788384838E-01  0.00000000000E+00 0.  1.
     999901    1    3    3    0    0 -0.40827971285E-01 -0.53443583574E-02  0.12207865930E+00  0.88938106819E+00  0.88000000000E+00 0. -1.
        -11    1    4    4    0    0  0.17293697705E-01  0.19660573795E-02 -0.50351173377E-01  0.53277003889E-01  0.51100000000E-03 0. -1.
         11    1    4    4    0    0  0.37801973276E-01  0.21613924437E-01 -0.62875435012E-01  0.76483543080E-01  0.51100000000E-03 0.  1.
</event>
<event>
 8    1  0.1084146E+005  0.1043930E+01  0.7957747E-01            NaN
         13   -1    0    0    0    0  0.00000000000E+00  0.00000000000E+00  0.74505805969E-08  0.10566000000E+00  0.10566000000E+00 0.  1.
     999900   -1    0    0    0    0 -0.00000000000E+00 -0.00000000000E+00 -0.74505805969E-08  0.93827000000E+00  0.93827000000E+00 0. -1.
     999902    2    1    2    0    0  0.92398675367E-03  0.23571541438E-02 -0.22700770728E-01  0.10210884826E+01  0.10208329708E+01 0.  0.
     999903    2    3    3    0    0  0.17822861403E-01 -0.10278076111E+00  0.73874162275E-01  0.12942359547E+00  0.20286349337E-01 0.  0.
         14    1    1    2    0    0 -0.92398675367E-03 -0.23571541438E-02  0.22700770728E-01  0.22841517437E-01  0.00000000000E+00 0.  1.
     999901    1    3    3    0    0 -0.16898874649E-01  0.10513791526E+00 -0.96574933003E-01  0.89166488709E+00  0.88000000000E+00 0. -1.
        -11    1    4    4    0    0  0.40387966876E-02 -0.78228292496E-02  0.88362660050E-03  0.88628693504E-02  0.51100000000E-03 0. -1.
         11    1    4    4    0    0  0.13784064715E-01 -0.94957931863E-01  0.72990535674E-01  0.12056072612E+00  0.51100000000E-03 0.  1.
</event>
<event>
 8    1  0.1084146E+005  0.1043930E+01  0.7957747E-01            NaN
         13   -1    0    0    0    0  0.00000000000E+00  0.00000000000E+00  0.74505805969E-08  0.10566000000E+00  0.10566000000E+00 0.  1.
     999900   -1    0    0    0    0 -0.00000000000E+00 -0.00000000000E+00 -0.74505805969E-08  0.93827000000E+00  0.93827000000E+00 0. -1.
     999902    2    1    2    0    0 -0.13273246949E-01  0.16927761964E-01 -0.10678106666E-01  0.10199143765E+01  0.10196315929E+01 0.  0.
     999903    2    3    3    0    0 -0.41811603501E-01 -0.10979153212E+00  0.47966737691E-01  0.12844848537E+00  0.19895093834E-01 0.  0.
         14    1    1    2    0    0  0.13273246949E-01 -0.16927761964E-01  0.10678106666E-01  0.24015623491E-01  0.00000000000E+00 0.  1.
     999901    1    3    3    0    0  0.28538356552E-01  0.12671929408E+00 -0.58644844357E-01  0.89146589113E+00  0.88000000000E+00 0. -1.
        -11    1    4    4    0    0 -0.29391150295E-01 -0.65579118734E-01  0.38600236968E-01  0.81576344271E-01  0.51100000000E-03 0.  1.
         11    1    4    4    0    0 -0.12420453206E-01 -0.44212413381E-01  0.93665007235E-02  0.46872141104E-01  0.51100000000E-03 0. -1.
</event>
<event>
 8    1  0.1084146E+005  0.1043930E+01  0.7957747E-01            NaN
         13   -1    0    0    0    0  0.00000000000E+00  0.00000000000E+00  0.74505805969E-08  0.10566000000E+00  0.10566000000E+00 0.  1.
     999900   -1    0    0    0    0 -0.00000000000E+00 -0.00000000000E+00 -0.74505805969E-08  0.93827000000E+00  0.93827000000E+00 0.  1.
     999902    2    1    2    0    0 -0.69867187777E-03 -0.21951895636E-01 -0.66762714565E-02  0.10209746855E+01  0.10207165924E+01 0.  0.
     999903    2    3    3    0    0 -0.47084581415E-01 -0.44257356158E-01  0.11276092085E+00  0.13141612693E+00  0.19480805069E-01 0.  0.
         14    1    1    2    0    0  0.69867187777E-03  0.21951895636E-01  0.66762714565E-02  0.22955314525E-01  0.00000000000E+00 0. -1.
     999901    1    3    3    0    0  0.46385909537E-01  0.22305460522E-01 -0.11943719230E+00  0.88955855854E+00  0.88000000000E+00 0.  1.
        -11    1    4    4    0    0 -0.59465401290E-02 -0.14216505692E-01  0.37392313318E-01  0.40446465727E-01  0.51100000000E-03 0. -1.
         11    1    4    4    0    0 -0.41138041286E-01 -0.30040850466E-01  0.75368607529E-01  0.90969661204E-01  0.51100000000E-03 0.  1.
</event>
<event>
 7    1  0.1084146E+005  0.1043930E+01  0.7957747E-01            NaN
         13   -1    0    0    0    0  0.00000000000E+00  0.00000000000E+00  0.74505805969E-08  0.10566000000E+00  0.10566000000E+00 0. -1.
     999900   -1    0    0    0    0 -0.00000000000E+00 -0.00000000000E+00 -0.74505805969E-08  0.93827000000E+00  0.93827000000E+00 0. -1.
     999903    2    1    2    0    0 -0.11880900949E+00  0.62914901262E-01 -0.52761778642E-01  0.14587229628E+00  0.20519649121E-01 0.  0.
         14    1    1    2    0    0  0.62129040798E-02  0.10343005541E-02 -0.27035729264E-02  0.68541419090E-02  0.00000000000E+00 0.  1.
     999901    1    1    2    0    0  0.11259610541E+00 -0.63949201816E-01  0.55465351568E-01  0.89120356181E+00  0.88000000000E+00 0.  1.
        -11    1    3    3    0    0 -0.84853962699E-01  0.53530686019E-01 -0.33850750584E-01  0.10588608864E+00  0.51100000000E-03 0. -1.
         11    1    3    3    0    0 -0.33955046786E-01  0.93842152425E-02 -0.18911028058E-01  0.39986207637E-01  0.51100000000E-03 0.  1.
</event>
<event>
 8    1  0.1084146E+005  0.1043930E+01  0.7957747E-01            NaN
         13   -1    0    0    0    0  0.00000000000E+00  0.00000000000E+00  0.74505805969E-08  0.10566000000E+00  0.10566000000E+00 0.  1.
     999900   -1    0    0    0    0 -0.00000000000E+00 -0.00000000000E+00 -0.74505805969E-08  0.93827000000E+00  0.93827000000E+00 0.  1.
     999902    2    1    2    0    0 -0.19260238416E-01 -0.66937172531E-02 -0.78822091322E-02  0.10220692622E+01  0.10218354491E+01 0.  0.
     999903    2    3    3    0    0 -0.81286211390E-01  0.92217157597E-01  0.45879310304E-01  0.13273193397E+00  0.20035040903E-01 0.  0.
         14    1    1    2    0    0  0.19260238416E-01  0.66937172531E-02  0.78822091322E-02  0.21860737758E-01  0.00000000000E+00 0. -1.
     999901    1    3    3    0    0  0.62025972973E-01 -0.98910874850E-01 -0.53761519436E-01  0.88933732827E+00  0.88000000000E+00 0.  1.
        -11    1    4    4    0    0 -0.78098518118E-01  0.83232046266E-01  0.37825965904E-01  0.12024149398E+00  0.51100000000E-03 0.  1.
         11    1    4    4    0    0 -0.31876932719E-02  0.89851113311E-02  0.80533443996E-02  0.12490439986E-01  0.51100000000E-03 0. -1.
</event>
<event>
 8    1  0.1084146E+005  0.1043930E+01  0.7957747E-01            NaN
         13   -1    0    0    0    0  0.00000000000E+00  0.00000000000E+00  0.74505805969E-08  0.10566000000E+00  0.10566000000E+00 0.  1.
     999900   -1    0    0    0    0 -0.00000000000E+00 -0.00000000000E+00 -0.74505805969E-08  0.93827000000E+00  0.93827000000E+00 0.  1.
     999902    2    1    2    0    0 -0.56951460318E-02  0.17928479294E-01 -0.12738555466E-01  0.10212113765E+01  0.10209586376E+01 0.  0.
     999903    2    3    3    0    0  0.12669150782E+00 -0.20965698519E-01  0.86508934039E-02  0.13020268311E+00  0.19687611943E-01 0.  0.
         14    1    1    2    0    0  0.56951460318E-02 -0.17928479294E-01  0.12738555466E-01  0.22718623494E-01  0.00000000000E+00 0.  1.
     999901    1    3    3    0    0 -0.13238665385E+00  0.38894177813E-01 -0.21389448870E-01  0.89100869340E+00  0.88000000000E+00 0. -1.
        -11    1    4    4    0    0  0.63019104162E-01 -0.19485576032E-02 -0.95392154462E-03  0.63058508176E-01  0.51100000000E-03 0. -1.
         11    1    4    4    0    0  0.63672403658E-01 -0.19017140916E-01  0.96048149485E-02  0.67144174933E-01  0.51100000000E-03 0.  1.
</event>
<event>
 8    1  0.1084146E+005  0.1043930E+01  0.7957747E-01            NaN
         13   -1    0    0    0    0  0.00000000000E+00  0.00000000000E+00  0.74505805969E-08  0.10566000000E+00  0.10566000000E+00 0.  1.
     999900   -1    0    0    0    0 -0.00000000000E+00 -0.00000000000E+00 -0.74505805969E-08  0.93827000000E+00  0.93827000000E+00 0. -1.
     999902    2    1    2    0    0  0.22004232567E-01  0.34453890673E-02 -0.99008130963E-02  0.10195561809E+01  0.10192647953E+01 0.  0.
     999903    2    3    3    0    0 -0.28199096953E-01 -0.16995215893E-01 -0.12473792032E+00  0.13044102875E+00  0.19268803366E-01 0.  0.
         14    1    1    2    0    0 -0.22004232567E-01 -0.34453890673E-02  0.99008130963E-02  0.24373819082E-01  0.00000000000E+00 0.  1.
     999901    1    3    3    0    0  0.50203329520E-01  0.20440604960E-01  0.11483710722E+00  0.88911515217E+00  0.88000000000E+00 0.  1.
        -11    1    4    4    0    0 -0.12866916914E-01 -0.10435270778E-01 -0.30266333681E-01  0.34507455754E-01  0.51100000000E-03 0. -1.
         11    1    4    4    0    0 -0.15332180039E-01 -0.65599451147E-02 -0.94471586636E-01  0.95933572993E-01  0.51100000000E-03 0.  1.
</event>
<event>
 8    1  0.1084146E+005  0.1043930E+01  0.7957747E-01            NaN
         13   -1    0    0    0    0  0.00000000000E+00  0.00000000000E+00  0.74505805969E-08  0.10566000000E+00  0.10566000000E+00 0.  1.
     999900   -1    0    0    0    0 -0.00000000000E+00 -0.00000000000E+00 -0.74505805969E-08  0.93827000000E+00  0.93827000000E+00 0.  1.
     999902    2    1    2    0    0 -0.87948721691E-02  0.18462371137E-01 -0.11911728523E-01  0.10202636061E+01  0.10199890821E+01 0.  0.
     999903    2    3    3    0    0  0.24363159421E-01 -0.90292775193E-01  0.84603398445E-01  0.12771539638E+00  0.20177677156E-01 0.  0.
         14    1    1    2    0    0  0.87948721691E-02 -0.18462371137E-01  0.11911728523E-01  0.23666393914E-01  0.00000000000E+00 0.  1.
     999901    1    3    3    0    0 -0.33158031590E-01  0.10875514633E+00 -0.96515126968E-01  0.89254820970E+00  0.88000000000E+00 0. -1.
        -11    1    4    4    0    0  0.70143607053E-02 -0.15537419562E-01  0.65958147859E-02  0.18286020793E-01  0.51100000000E-03 0. -1.
         11    1    4    4    0    0  0.17348798716E-01 -0.74755355632E-01  0.78007583660E-01  0.10942937559E+00  0.51100000000E-03 0.  1.
</event>
<event>
 8    1  0.1084146E+005  0.1043930E+01  0.7957747E-01            NaN
         13   -1    0    0    0    0  0.00000000000E+00  0.00000000000E+00  0.74505805969E-08  0.10566000000E+00  0.10566000000E+00 0.  1.
     999900   -1    0    0    0    0 -0.00000000000E+00 -0.00000000000E+00 -0.74505805969E-08  0.93827000000E+00  0.93827000000E+00 0.  1.
     999902    2    1    2    0    0 -0.87724543008E-02 -0.15334295982E-01 -0.13323793334E-01  0.10218026401E+01  0.10215630256E+01 0.  0.
     999903    2    3    3    0    0 -0.11262869192E+00  0.63094207553E-01 -0.20581374232E-01  0.13220170667E+00  0.19687483600E-01 0.  0.
         14    1    1    2    0    0  0.87724543008E-02  0.15334295982E-01  0.13323793334E-01  0.22127359909E-01  0.00000000000E+00 0.  1.
     999901    1    3    3    0    0  0.10385623762E+00 -0.78428503536E-01  0.72575808980E-02  0.88960093342E+00  0.88000000000E+00 0. -1.
        -11    1    4    4    0    0 -0.76693039966E-01  0.35308683036E-01 -0.20008253328E-01  0.86770483456E-01  0.51100000000E-03 0. -1.
         11    1    4    4    0    0 -0.35935651958E-01  0.27785524517E-01 -0.57312090395E-03  0.45431223216E-01  0.51100000000E-03 0.  1.
</event>
<event>
 8    1  0.1084146E+005  0.1043930E+01  0.7957747E-01            NaN
         13   -1    0    0    0    0  0.00000000000E+00  0.00000000000E+00  0.74505805969E-08  0.10566000000E+00  0.10566000000E+00 0. -1.
     999900   -1    0    0    0    0 -0.00000000000E+00 -0.00000000000E+00 -0.74505805969E-08  0.93827000000E+00  0.93827000000E+00 0. -1.
     999902    2    1    2    0    0  0.53180414207E-02  0.22789799753E-01 -0.24947621585E-02  0.10203953367E+01  0.10201238958E+01 0.  0.
     999903    2    3    3    0    0  0.10158128249E+00 -0.44535809815E-01 -0.65351011683E-01  0.13036710268E+00  0.20558001518E-01 0.  0.
         14    1    1    2    0    0 -0.53180414207E-02 -0.22789799753E-01  0.24947621585E-02  0.23534663277E-01  0.00000000000E+00 0.  1.
     999901    1    3    3    0    0 -0.96263241066E-01  0.67325609568E-01  0.62856249524E-01  0.89002823404E+00  0.88000000000E+00 0.  1.
        -11    1    4    4    0    0  0.47032608813E-01 -0.11275077418E-01 -0.21860712958E-01  0.53078673256E-01  0.51100000000E-03 0. -1.
         11    1    4    4    0    0  0.54548673673E-01 -0.33260732397E-01 -0.43490298725E-01  0.77288429427E-01  0.51100000000E-03 0.  1.
</event>
<event>
 8    1  0.1084146E+005  0.1043930E+01  0.7957747E-01            NaN
         13   -1    0    0    0    0  0.00000000000E+00  0.00000000000E+00  0.74505805969E-08  0.10566000000E+00  0.10566000000E+00 0.  1.
     999900   -1    0    0    0    0 -0.00000000000E+00 -0.00000000000E+00 -0.74505805969E-08  0.93827000000E+00  0.93827000000E+00 0.  1.
     999902    2    1    2    0    0 -0.18872309263E-01 -0.83491123250E-02 -0.11356716432E-01  0.10203748150E+01  0.10201028950E+01 0.  0.
     999903    2    3    3    0    0 -0.74094873705E-01 -0.51590950990E-02 -0.10856171973E+00  0.13329617105E+00  0.21576738759E-01 0.  0.
         14    1    1    2    0    0  0.18872309263E-01  0.83491123250E-02  0.11356716432E-01  0.23555185027E-01  0.00000000000E+00 0.  1.
     999901    1    3    3    0    0  0.55222564442E-01 -0.31900172260E-02  0.97205003296E-01  0.88707864392E+00  0.88000000000E+00 0. -1.
        -11    1    4    4    0    0 -0.69613456867E-02  0.58569744212E-02 -0.16137122200E-01  0.18531926965E-01  0.51100000000E-03 0.  1.
         11    1    4    4    0    0 -0.67133528018E-01 -0.11016069520E-01 -0.92424597529E-01  0.11476424409E+00  0.51100000000E-03 0. -1.
</event>
<event>
 8    1  0.1084146E+005  0.1043930E+01  0.7957747E-01            NaN
         13   -1    0    0    0    0  0.00000000000E+00  0.00000000000E+00  0.74505805969E-08  0.10566000000E+00  0.10566000000E+00 0.  1.
     999900   -1    0    0    0    0 -0.00000000000E+00 -0.00000000000E+00 -0.74505805969E-08  0.93827000000E+00  0.93827000000E+00 0.  1.
     999902    2    1    2    0    0  0.43291341495E-03 -0.21486873240E-01  0.95355148587E-02  0.10204183182E+01  0.10201474134E+01 0.  0.
     999903    2    3    3    0    0  0.10483567085E+00  0.55743454536E-01 -0.45800155844E-01  0.12916835569E+00  0.22112422521E-01 0.  0.
         14    1    1    2    0    0 -0.43291341495E-03  0.21486873240E-01 -0.95355148587E-02  0.23511681762E-01  0.00000000000E+00 0. -1.
     999901    1    3    3    0    0 -0.10440275744E+00 -0.77230327776E-01  0.55335670703E-01  0.89124996255E+00  0.88000000000E+00 0.  1.
        -11    1    4    4    0    0  0.53092707945E-01  0.34432079564E-01 -0.34503155876E-01  0.72077268445E-01  0.51100000000E-03 0. -1.
         11    1    4    4    0    0  0.51742962907E-01  0.21311374972E-01 -0.11296999968E-01  0.57091087245E-01  0.51100000000E-03 0.  1.
</event>
<event>
 8    1  0.1084146E+005  0.1043930E+01  0.7957747E-01            NaN
         13   -1    0    0    0    0  0.00000000000E+00  0.00000000000E+00  0.74505805969E-08  0.10566000000E+00  0.10566000000E+00 0. -1.
     999900   -1    0    0    0    0 -0.00000000000E+00 -0.00000000000E+00 -0.74505805969E-08  0.93827000000E+00  0.93827000000E+00 0.  1.
     999902    2    1    2    0    0 -0.29435489273E-04  0.19636605305E-01 -0.19037599892E-01  0.10165799114E+01  0.10162119311E+01 0.  0.
     999903    2    3    3    0    0  0.11464812140E+00  0.48993856669E-01 -0.24566094943E-01  0.12863658301E+00  0.19982185437E-01 0.  0.
         14    1    1    2    0    0  0.29435489273E-04 -0.19636605305E-01  0.19037599892E-01  0.27350088555E-01  0.00000000000E+00 0. -1.
     999901    1    3    3    0    0 -0.11467755689E+00 -0.29357251364E-01  0.55284950512E-02  0.88794332844E+00  0.88000000000E+00 0. -1.
        -11    1    4    4    0    0  0.48166385105E-01  0.11438270741E-01 -0.14695422389E-01  0.51643501545E-01  0.51100000000E-03 0.  1.
         11    1    4    4    0    0  0.66481736295E-01  0.37555585928E-01 -0.98706725543E-02  0.76993081461E-01  0.51100000000E-03 0. -1.
</event>
<event>
 8    1  0.1084146E+005  0.1043930E+01  0.7957747E-01            NaN
         13   -1    0    0    0    0  0.00000000000E+00  0.00000000000E+00  0.74505805969E-08  0.10566000000E+00  0.10566000000E+00 0.  1.
     999900   -1    0    0    0    0 -0.00000000000E+00 -0.00000000000E+00 -0.74505805969E-08  0.93827000000E+00  0.93827000000E+00 0. -1.
     999902    2    1    2    0    0  0.83619864209E-03 -0.18053205294E-01  0.15824142384E-01  0.10199087400E+01  0.10196258221E+01 0.  0.
     999903    2    3    3    0    0 -0.17180480349E-01  0.28715668464E-01  0.12581199283E+00  0.13164681044E+00  0.19556754254E-01 0.  0.
         14    1    1    2    0    0 -0.83619864209E-03  0.18053205294E-01 -0.15824142384E-01  0.24021259995E-01  0.00000000000E+00 0. -1.
     999901    1    3    3    0    0  0.18016678991E-01 -0.46768873758E-01 -0.10998785045E+00  0.88826192957E+00  0.88000000000E+00 0. -1.
        -11    1    4    4    0    0 -0.11289155342E-01  0.17641238945E-01  0.42380691554E-01  0.47276235864E-01  0.51100000000E-03 0. -1.
         11    1    4    4    0    0 -0.58913250065E-02  0.11074429519E-01  0.83431301279E-01  0.84370574572E-01  0.51100000000E-03 0.  1.
</event>
<event>
 8    1  0.1084146E+005  0.1043930E+01  0.7957747E-01            NaN
         13   -1    0    0    0    0  0.00000000000E+00  0.00000000000E+00  0.74505805969E-08  0.10566000000E+00  0.10566000000E+00 0. -1.
     999900   -1    0    0    0    0 -0.00000000000E+00 -0.00000000000E+00 -0.74505805969E-08  0.93827000000E+00  0.93827000000E+00 0. -1.
     999902    2    1    2    0    0 -0.12090062107E-01 -0.16853609657E-01  0.11514175086E-01  0.10202068048E+01  0.10199309460E+01 0.  0.
     999903    2    3    3    0    0 -0.59375299180E-01 -0.82674927563E-01  0.83749199677E-01  0.13353536722E+00  0.21382143273E-01 0.  0.
         14    1    1    2    0    0  0.12090062107E-01  0.16853609657E-01 -0.11514175086E-01  0.23723195150E-01  0.00000000000E+00 0. -1.
     999901    1    3    3    0    0  0.47285237073E-01  0.65821317906E-01 -0.72235024591E-01  0.88667143763E+00  0.88000000000E+00 0. -1.
        -11    1    4    4    0    0 -0.37369039561E-01 -0.55027539404E-01  0.41284098262E-01  0.78288652440E-01  0.51100000000E-03 0. -1.
         11    1    4    4    0    0 -0.22006259619E-01 -0.27647388159E-01  0.42465101416E-01  0.55246714777E-01  0.51100000000E-03 0.  1.
</event>
<event>
 8    1  0.1084146E+005  0.1043930E+01  0.7957747E-01            NaN
         13   -1    0    0    0    0  0.00000000000E+00  0.00000000000E+00  0.74505805969E-08  0.10566000000E+00  0.10566000000E+00 0.  1.
     999900   -1    0    0    0    0 -0.00000000000E+00 -0.00000000000E+00 -0.74505805969E-08  0.93827000000E+00  0.93827000000E+00 0.  1.
     999902    2    1    2    0    0  0.21014898555E-02 -0.23163973230E-01  0.97530391642E-02  0.10187088246E+01  0.10183965640E+01 0.  0.
     999903    2    3    3    0    0  0.48400858681E-01  0.11045144811E+00  0.34609688136E-01  0.12707293178E+00  0.20187470564E-01 0.  0.
         14    1    1    2    0    0 -0.21014898555E-02  0.23163973230E-01 -0.97530391642E-02  0.25221175396E-01  0.00000000000E+00 0.  1.
     999901    1    3    3    0    0 -0.46299368826E-01 -0.13361542134E+00 -0.24856648972E-01  0.89163589282E+00  0.88000000000E+00 0. -1.
        -11    1    4    4    0    0  0.44867292714E-01  0.81104639347E-01  0.27132309657E-01  0.96578775243E-01  0.51100000000E-03 0. -1.
         11    1    4    4    0    0  0.35335659667E-02  0.29346808763E-01  0.74773784786E-02  0.30494156537E-01  0.51100000000E-03 0.  1.
</event>
<event>
 8    1  0.1084146E+005  0.1043930E+01  0.7957747E-01            NaN
         13   -1    0    0    0    0  0.00000000000E+00  0.00000000000E+00  0.74505805969E-08  0.10566000000E+00  0.10566000000E+00 0.  1.
     999900   -1    0    0    0    0 -0.00000000000E+00 -0.00000000000E+00 -0.74505805969E-08  0.93827000000E+00  0.93827000000E+00 0.  1.
     999902    2    1    2    0    0  0.19059016157E-01  0.11608976967E-01  0.67079982717E-02  0.10206273889E+01  0.10203613357E+01 0.  0.
     999903    2    3    3    0    0 -0.56198579095E-01 -0.72033031016E-01 -0.88164278030E-01  0.12840519687E+00  0.19181157773E-01 0.  0.
         14    1    1    2    0    0 -0.19059016157E-01 -0.11608976967E-01 -0.67079982717E-02  0.23302611096E-01  0.00000000000E+00 0. -1.
     999901    1    3    3    0    0  0.75257595252E-01  0.83642007983E-01  0.94872276302E-01  0.89222219203E+00  0.88000000000E+00 0. -1.
        -11    1    4    4    0    0 -0.29240098095E-01 -0.43216419545E-01 -0.37865166645E-01  0.64472274824E-01  0.51100000000E-03 0.  1.
         11    1    4    4    0    0 -0.26958481000E-01 -0.28816611471E-01 -0.50299111385E-01  0.63932922048E-01  0.51100000000E-03 0. -1.
</event>
<event>
 8    1  0.1084146E+005  0.1043930E+01  0.7957747E-01            NaN
         13   -1    0    0    0    0  0.00000000000E+00  0.00000000000E+00  0.74505805969E-08  0.10566000000E+00  0.10566000000E+00 0.  1.
     999900   -1    0    0    0    0 -0.00000000000E+00 -0.00000000000E+00 -0.74505805969E-08  0.93827000000E+00  0.93827000000E+00 0.  1.
     999902    2    1    2    0    0 -0.63453526616E-02 -0.21676326207E-01 -0.25309811219E-02  0.10212026490E+01  0.10209497137E+01 0.  0.
     999903    2    3    3    0    0  0.11210259635E+00  0.60188441564E-01  0.13615389424E-01  0.12935486932E+00  0.18911974546E-01 0.  0.
         14    1    1    2    0    0  0.63453526616E-02  0.21676326207E-01  0.25309811219E-02  0.22727351005E-01  0.00000000000E+00 0. -1.
     999901    1    3    3    0    0 -0.11844794901E+00 -0.81864767772E-01 -0.16146370546E-01  0.89184777967E+00  0.88000000000E+00 0.  1.
        -11    1    4    4    0    0  0.93452498672E-02  0.11413237513E-01  0.34270725850E-02  0.15152611428E-01  0.51100000000E-03 0.  1.
         11    1    4    4    0    0  0.10275734648E+00  0.48775204052E-01  0.10188316839E-01  0.11420225789E+00  0.51100000000E-03 0. -1.
</event>
<event>
 8    1  0.1084146E+005  0.1043930E+01  0.7957747E-01            NaN
         13   -1    0    0    0    0  0.00000000000E+00  0.00000000000E+00  0.74505805969E-08  0.10566000000E+00  0.10566000000E+00 0.  1.
     999900   -1    0    0    0    0 -0.00000000000E+00 -0.00000000000E+00 -0.74505805969E-08  0.93827000000E+00  0.93827000000E+00 0.  1.
     999902    2    1    2    0    0  0.12055057502E-01  0.16438741074E-01  0.72157673724E-02  0.10223053863E+01  0.10220766502E+01 0.  0.
     999903    2    3    3    0    0 -0.72343032293E-01  0.10993333244E+00  0.72417909490E-02  0.13333728964E+00  0.20187554851E-01 0.  0.
         14    1    1    2    0    0 -0.12055057502E-01 -0.16438741074E-01 -0.72157673724E-02  0.21624613714E-01  0.00000000000E+00 0. -1.
     999901    1    3    3    0    0  0.84398089796E-01 -0.93494591362E-01 -0.26023576574E-04  0.88896809664E+00  0.88000000000E+00 0.  1.
        -11    1    4    4    0    0 -0.45632912336E-01  0.53093352692E-01 -0.82876384429E-03  0.70015817919E-01  0.51100000000E-03 0.  1.
         11    1    4    4    0    0 -0.26710119958E-01  0.56839979744E-01  0.80705547933E-02  0.63321471723E-01  0.51100000000E-03 0. -1.
</event>
<event>
 8    1  0.1084146E+005  0.1043930E+01  0.7957747E-01            NaN
         13   -1    0    0    0    0  0.00000000000E+00  0.00000000000E+00  0.74505805969E-08  0.10566000000E+00  0.10566000000E+00 0.  1.
     999900   -1    0    0    0    0 -0.00000000000E+00 -0.00000000000E+00 -0.74505805969E-08  0.93827000000E+00  0.93827000000E+00 0. -1.
     999902    2    1    2    0    0  0.16059565263E-01 -0.16955701378E-01 -0.52440241351E-02  0.10199945611E+01  0.10197136850E+01 0.  0.
     999903    2    3    3    0    0  0.10432942901E+00  0.13882107855E-01 -0.77233738901E-01  0.13211784762E+00  0.20315820413E-01 0.  0.
         14    1    1    2    0    0 -0.16059565263E-01  0.16955701378E-01  0.52440241351E-02  0.23935438889E-01  0.00000000000E+00 0.  1.
     999901    1    3    3    0    0 -0.88269863749E-01 -0.30837809233E-01  0.71989714766E-01  0.88787671349E+00  0.88000000000E+00 0.  1.
        -11    1    4    4    0    0  0.59766248678E-01  0.23972001415E-02 -0.53899656996E-01  0.80518228960E-01  0.51100000000E-03 0. -1.
         11    1    4    4    0    0  0.44563180334E-01  0.11484907713E-01 -0.23334081905E-01  0.51599618662E-01  0.51100000000E-03 0.  1.
</event>
<event>
 8    1  0.1084146E+005  0.1043930E+01  0.7957747E-01            NaN
         13   -1    0    0    0    0  0.00000000000E+00  0.00000000000E+00  0.74505805969E-08  0.10566000000E+00  0.10566000000E+00 0. -1.
     999900   -1    0    0    0    0 -0.00000000000E+00 -0.00000000000E+00 -0.74505805969E-08  0.93827000000E+00  0.93827000000E+00 0.  1.
     999902    2    1    2    0    0 -0.92236601082E-04 -0.22295298499E-01 -0.91077564900E-02  0.10198459789E+01  0.10195615630E+01 0.  0.
     999903    2    3    3    0    0  0.65623798465E-01  0.10168071670E+00  0.35753152294E-01  0.12760097292E+00  0.18928003521E-01 0.  0.
         14    1    1    2    0    0  0.92236601083E-04  0.22295298499E-01  0.91077564900E-02  0.24084021073E-01  0.00000000000E+00 0.  1.
     999901    1    3    3    0    0 -0.65716035066E-01 -0.12397601520E+00 -0.44860908784E-01  0.89224500601E+00  0.88000000000E+00 0. -1.
        -11    1    4    4    0    0  0.21556213034E-01  0.43319498335E-01  0.22137532902E-01  0.53212599451E-01  0.51100000000E-03 0. -1.
         11    1    4    4    0    0  0.44067585431E-01  0.58361218365E-01  0.13615619392E-01  0.74388373468E-01  0.51100000000E-03 0.  1.
</event>
<event>
 8    1  0.1084146E+005  0.1043930E+01  0.7957747E-01            NaN
         13   -1    0    0    0    0  0.00000000000E+00  0.00000000000E+00  0.74505805969E-08  0.10566000000E+00  0.10566000000E+00 0. -1.
     999900   -1    0    0    0    0 -0.00000000000E+00 -0.00000000000E+00 -0.74505805969E-08  0.93827000000E+00  0.93827000000E+00 0. -1.
     999902    2    1    2    0    0  0.72688494079E-02 -0.18309010013E-01 -0.12837925976E-01  0.10204168470E+01  0.10201459079E+01 0.  0.
     999903    2    3    3    0    0  0.62858253436E-01 -0.78945528698E-03  0.11170272509E+00  0.12973873996E+00  0.20071337503E-01 0.  0.
         14    1    1    2    0    0 -0.72688494079E-02  0.18309010013E-01  0.12837925976E-01  0.23513152973E-01  0.00000000000E+00 0. -1.
     999901    1    3    3    0    0 -0.55589404028E-01 -0.17519554726E-01 -0.12454065107E+00  0.89067810707E+00  0.88000000000E+00 0. -1.
        -11    1    4    4    0    0  0.48356620164E-01 -0.48877683441E-02  0.97876779156E-01  0.10928118782E+00  0.51100000000E-03 0. -1.
         11    1    4    4    0    0  0.14501633272E-01  0.40983130571E-02  0.13825945936E-01  0.20457552138E-01  0.51100000000E-03 0.  1.
</event>
<event>
 8    1  0.1084146E+005  0.1043930E+01  0.7957747E-01            NaN
         13   -1    0    0    0    0  0.00000000000E+00  0.00000000000E+00  0.74505805969E-08  0.10566000000E+00  0.10566000000E+00 0. -1.
     999900   -1    0    0    0    0 -0.00000000000E+00 -0.00000000000E+00 -0.74505805969E-08  0.93827000000E+00  0.93827000000E+00 0.  1.
     999902    2    1    2    0    0  0.23111547790E-01 -0.67572982098E-02 -0.25751334147E-02  0.10197135586E+01  0.10194259687E+01 0.  0.
     999903    2    3    3    0    0  0.92416379136E-01  0.52219324968E-01 -0.75387749764E-01  0.13202944881E+00  0.21927551313E-01 0.  0.
         14    1    1    2    0    0 -0.23111547790E-01  0.67572982098E-02  0.25751334147E-02  0.24216441366E-01  0.00000000000E+00 0.  1.
     999901    1    3    3    0    0 -0.69304831347E-01 -0.58976623177E-01  0.72812616350E-01  0.88768410982E+00  0.88000000000E+00 0. -1.
        -11    1    4    4    0    0  0.35200235238E-01  0.11662332491E-01 -0.35540132432E-01  0.51365637290E-01  0.51100000000E-03 0.  1.
         11    1    4    4    0    0  0.57216143898E-01  0.40556992476E-01 -0.39847617332E-01  0.80663811522E-01  0.51100000000E-03 0. -1.
</event>
<event>
 8    1  0.1084146E+005  0.1043930E+01  0.7957747E-01            NaN
         13   -1    0    0    0    0  0.00000000000E+00  0.00000000000E+00  0.74505805969E-08  0.10566000000E+00  0.10566000000E+00 0.  1.
     999900   -1    0    0    0    0 -0.00000000000E+00 -0.00000000000E+00 -0.74505805969E-08  0.93827000000E+00  0.93827000000E+00 0. -1.
     999902    2    1    2    0    0  0.14973559452E-01 -0.24987389183E-02  0.18407089487E-01  0.10200705758E+01  0.10197915020E+01 0.  0.
     999903    2    3    3    0    0 -0.57335693783E-02  0.10110626196E-01  0.13060899883E+00  0.13261519681E+00  0.19823755169E-01 0.  0.
         14    1    1    2    0    0 -0.14973559452E-01  0.24987389183E-02 -0.18407089487E-01  0.23859424181E-01  0.00000000000E+00 0. -1.
     999901    1    3    3    0    0  0.20707128830E-01 -0.12609365114E-01 -0.11220190934E+00  0.88745537901E+00  0.88000000000E+00 0. -1.
        -11    1    4    4    0    0 -0.11649622200E-01  0.97801099276E-03  0.79640264962E-01  0.80495360905E-01  0.51100000000E-03 0. -1.
         11    1    4    4    0    0  0.59160528222E-02  0.91326152028E-02  0.50968733870E-01  0.52119835904E-01  0.51100000000E-03 0.  1.
</event>
<event>
 7    1  0.1084146E+005  0.1043930E+01  0.7957747E-01            NaN
         13   -1    0    0    0    0  0.00000000000E+00  0.00000000000E+00  0.74505805969E-08  0.10566000000E+00  0.10566000000E+00 0.  1.
     999900   -1    0    0    0    0 -0.00000000000E+00 -0.00000000000E+00 -0.74505805969E-08  0.93827000000E+00  0.93827000000E+00 0. -1.
     999903    2    1    2    0    0 -0.24291213393E-01  0.25323331192E-01  0.59778921118E-01  0.72132124730E-01  0.19954695117E-01 0.  0.
         14    1    1    2    0    0  0.19116427125E-01  0.76960416008E-01  0.21431452134E-01  0.82144084137E-01  0.00000000000E+00 0.  1.
     999901    1    1    2    0    0  0.51747862674E-02 -0.10228374720E+00 -0.81210373253E-01  0.88965379113E+00  0.88000000000E+00 0. -1.
        -11    1    3    3    0    0 -0.16950449403E-01  0.22799337134E-01  0.57315068078E-01  0.63971913044E-01  0.51100000000E-03 0. -1.
         11    1    3    3    0    0 -0.73407639894E-02  0.25239940575E-02  0.24638530404E-02  0.81602116857E-02  0.51100000000E-03 0.  1.
</event>
<event>
 8    1  0.1084146E+005  0.1043930E+01  0.7957747E-01            NaN
         13   -1    0    0    0    0  0.00000000000E+00  0.00000000000E+00  0.74505805969E-08  0.10566000000E+00  0.10566000000E+00 0. -1.
     999900   -1    0    0    0    0 -0.00000000000E+00 -0.00000000000E+00 -0.74505805969E-08  0.93827000000E+00  0.93827000000E+00 0.  1.
     999902    2    1    2    0    0  0.21282731657E-01  0.59394527804E-02 -0.78229990293E-02  0.10204900538E+01  0.10202208186E+01 0.  0.
     999903    2    3    3    0    0  0.57393289603E-01 -0.55522284932E-01  0.10165615947E+00  0.13084562830E+00  0.20245737134E-01 0.  0.
         14    1    1    2    0    0 -0.21282731657E-01 -0.59394527804E-02  0.78229990293E-02  0.23439946244E-01  0.00000000000E+00 0. -1.
     999901    1    3    3    0    0 -0.36110557946E-01  0.61461737713E-01 -0.10947915850E+00  0.88964442545E+00  0.88000000000E+00 0.  1.
        -11    1    4    4    0    0  0.14675450093E-01 -0.47271719355E-02  0.13514248920E-01  0.20508803837E-01  0.51100000000E-03 0. -1.
         11    1    4    4    0    0  0.42717839510E-01 -0.50795112997E-01  0.88141910548E-01  0.11033682446E+00  0.51100000000E-03 0.  1.
</event>
<event>
 8    1  0.1084146E+005  0.1043930E+01  0.7957747E-01            NaN
         13   -1    0    0    0    0  0.00000000000E+00  0.00000000000E+00  0.74505805969E-08  0.10566000000E+00  0.10566000000E+00 0. -1.
     999900   -1    0    0    0    0 -0.00000000000E+00 -0.00000000000E+00 -0.74505805969E-08  0.93827000000E+00  0.93827000000E+00 0.  1.
     999902    2    1    2    0    0  0.24657915807E-01  0.10687035180E-02 -0.11519579566E-02  0.10192220671E+01  0.10189225389E+01 0.  0.
     999903    2    3    3    0    0 -0.87571469937E-01 -0.18837173109E-01  0.88744087432E-01  0.12732914872E+00  0.17708687751E-01 0.  0.
         14    1    1    2    0    0 -0.24657915807E-01 -0.10687035180E-02  0.11519579566E-02  0.24707932862E-01  0.00000000000E+00 0. -1.
     999901    1    3    3    0    0  0.11222938574E+00  0.19905876627E-01 -0.89896045389E-01  0.89189291842E+00  0.88000000000E+00 0.  1.
        -11    1    4    4    0    0 -0.43493608246E-01 -0.87579752386E-02  0.31668004776E-01  0.54511647709E-01  0.51100000000E-03 0. -1.
         11    1    4    4    0    0 -0.44077861691E-01 -0.10079197870E-01  0.57076082657E-01  0.72817501010E-01  0.51100000000E-03 0.  1.
</event>
<event>
 8    1  0.1084146E+005  0.1043930E+01  0.7957747E-01            NaN
         13   -1    0    0    0    0  0.00000000000E+00  0.00000000000E+00  0.74505805969E-08  0.10566000000E+00  0.10566000000E+00 0.  1.
     999900   -1    0    0    0    0 -0.00000000000E+00 -0.00000000000E+00 -0.74505805969E-08  0.93827000000E+00  0.93827000000E+00 0.  1.
     999902    2    1    2    0    0 -0.26277585988E-02 -0.23016674924E-01  0.46223544445E-02  0.10203071593E+01  0.10200336567E+01 0.  0.
     999903    2    3    3    0    0  0.21490263422E-02 -0.10956303800E+00  0.72912167337E-01  0.13341562755E+00  0.21791464349E-01 0.  0.
         14    1    1    2    0    0  0.26277585988E-02  0.23016674924E-01 -0.46223544445E-02  0.23622840651E-01  0.00000000000E+00 0. -1.
     999901    1    3    3    0    0 -0.47767849410E-02  0.86546363075E-01 -0.68289812892E-01  0.88689153180E+00  0.88000000000E+00 0.  1.
        -11    1    4    4    0    0 -0.93570978174E-02 -0.54540067334E-01  0.39903084544E-01  0.68225299570E-01  0.51100000000E-03 0. -1.
         11    1    4    4    0    0  0.11506124160E-01 -0.55022970665E-01  0.33009082792E-01  0.65190327977E-01  0.51100000000E-03 0.  1.
</event>
<event>
 8    1  0.1084146E+005  0.1043930E+01  0.7957747E-01            NaN
         13   -1    0    0    0    0  0.00000000000E+00  0.00000000000E+00  0.74505805969E-08  0.10566000000E+00  0.10566000000E+00 0. -1.
     999900   -1    0    0    0    0 -0.00000000000E+00 -0.00000000000E+00 -0.74505805969E-08  0.93827000000E+00  0.93827000000E+00 0.  1.
     999902    2    1    2    0    0  0.11357428657E-01  0.21541126370E-01 -0.16426629939E-02  0.10195228360E+01  0.10192306430E+01 0.  0.
     999903    2    3    3    0    0 -0.87964790171E-01 -0.61922274625E-01 -0.66730096484E-01  0.12763303541E+00  0.16282307800E-01 0.  0.
         14    1    1    2    0    0 -0.11357428657E-01 -0.21541126370E-01  0.16426629939E-02  0.24407163963E-01  0.00000000000E+00 0. -1.
     999901    1    3    3    0    0  0.99322218828E-01  0.83463400996E-01  0.65087433491E-01  0.89188980062E+00  0.88000000000E+00 0. -1.
        -11    1    4    4    0    0 -0.63988042068E-01 -0.53298431513E-01 -0.52440672427E-01  0.98414823960E-01  0.51100000000E-03 0.  1.
         11    1    4    4    0    0 -0.23976748103E-01 -0.86238431120E-02 -0.14289424057E-01  0.29218211453E-01  0.51100000000E-03 0. -1.
</event>
<event>
 8    1  0.1084146E+005  0.1043930E+01  0.7957747E-01            NaN
         13   -1    0    0    0    0  0.00000000000E+00  0.00000000000E+00  0.74505805969E-08  0.10566000000E+00  0.10566000000E+00 0.  1.
     999900   -1    0    0    0    0 -0.00000000000E+00 -0.00000000000E+00 -0.74505805969E-08  0.93827000000E+00  0.93827000000E+00 0. -1.
     999902    2    1    2    0    0 -0.17379659550E-01 -0.14315375813E-01 -0.85512913088E-02  0.10198445867E+01  0.10195601375E+01 0.  0.
     999903    2    3    3    0    0 -0.12168360972E+00 -0.72785195558E-02 -0.48387717273E-01  0.13276185538E+00  0.20602459613E-01 0.  0.
         14    1    1    2    0    0  0.17379659550E-01  0.14315375813E-01  0.85512913088E-02  0.24085413299E-01  0.00000000000E+00 0.  1.
     999901    1    3    3    0    0  0.10430395017E+00 -0.70368562572E-02  0.39836425964E-01  0.88708273132E+00  0.88000000000E+00 0. -1.
        -11    1    4    4    0    0 -0.68844834302E-01  0.59259205628E-02 -0.24961380852E-01  0.73471486984E-01  0.51100000000E-03 0.  1.
         11    1    4    4    0    0 -0.52838775413E-01 -0.13204440119E-01 -0.23426336421E-01  0.59290368401E-01  0.51100000000E-03 0. -1.
</event>
<event>
 8    1  0.1084146E+005  0.1043930E+01  0.7957747E-01            NaN
         13   -1    0    0    0    0  0.00000000000E+00  0.00000000000E+00  0.74505805969E-08  0.10566000000E+00  0.10566000000E+00 0.  1.
     999900   -1    0    0    0    0 -0.00000000000E+00 -0.00000000000E+00 -0.74505805969E-08  0.93827000000E+00  0.93827000000E+00 0. -1.
     999902    2    1    2    0    0  0.14081093728E-01 -0.11213407649E-01 -0.15026292117E-01  0.10204820328E+01  0.10202126112E+01 0.  0.
     999903    2    3    3    0    0 -0.10500367824E+00 -0.55711071712E-01  0.46972703440E-01  0.12918797330E+00  0.18804297993E-01 0.  0.
         14    1    1    2    0    0 -0.14081093728E-01  0.11213407649E-01  0.15026292117E-01  0.23447967213E-01  0.00000000000E+00 0.  1.
     999901    1    3    3    0    0  0.11908477196E+00  0.44497664063E-01 -0.61998995556E-01  0.89129405948E+00  0.88000000000E+00 0. -1.
        -11    1    4    4    0    0 -0.64590221922E-01 -0.43684798263E-01  0.26908901536E-01  0.82490050734E-01  0.51100000000E-03 0. -1.
         11    1    4    4    0    0 -0.40413456316E-01 -0.12026273449E-01  0.20063801904E-01  0.46697922569E-01  0.51100000000E-03 0.  1.
</event>
<event>
 8    1  0.1084146E+005  0.1043930E+01  0.7957747E-01            NaN
         13   -1    0    0    0    0  0.00000000000E+00  0.00000000000E+00  0.74505805969E-08  0.10566000000E+00  0.10566000000E+00 0. -1.
     999900   -1    0    0    0    0 -0.00000000000E+00 -0.00000000000E+00 -0.74505805969E-08  0.93827000000E+00  0.93827000000E+00 0.  1.
     999902    2    1    2    0    0  0.26218121183E-01  0.70505695131E-02 -0.22478137922E-01  0.10086827718E+01  0.10080667473E+01 0.  0.
     999903    2    3    3    0    0 -0.48328721941E-01  0.10454988636E+00 -0.27892550994E-01  0.12014877447E+00  0.19783566469E-01 0.  0.
         14    1    1    2    0    0 -0.26218121183E-01 -0.70505695131E-02  0.22478137922E-01  0.35247228164E-01  0.00000000000E+00 0. -1.
     999901    1    3    3    0    0  0.74546843124E-01 -0.97499316852E-01  0.54144130720E-02  0.88853399737E+00  0.88000000000E+00 0. -1.
        -11    1    4    4    0    0 -0.14639315543E-01  0.54584374610E-01 -0.11192549292E-01  0.57613347341E-01  0.51100000000E-03 0.  1.
         11    1    4    4    0    0 -0.33689406398E-01  0.49965511755E-01 -0.16700001701E-01  0.62535427129E-01  0.51100000000E-03 0. -1.
</event>
<event>
 8    1  0.1084146E+005  0.1043930E+01  0.7957747E-01            NaN
         13   -1    0    0    0    0  0.00000000000E+00  0.00000000000E+00  0.74505805969E-08  0.10566000000E+00  0.10566000000E+00 0. -1.
     999900   -1    0    0    0    0 -0.00000000000E+00 -0.00000000000E+00 -0.74505805969E-08  0.93827000000E+00  0.93827000000E+00 0. -1.
     999902    2    1    2    0    0 -0.52030151453E-02  0.15960439274E-01  0.14320613211E-01  0.10218644850E+01  0.10216262226E+01 0.  0.
     999903    2    3    3    0    0  0.43699852642E-01  0.97030510367E-01 -0.75968386389E-01  0.13219266331E+00  0.19470681528E-01 0.  0.
         14    1    1    2    0    0  0.52030151453E-02 -0.15960439274E-01 -0.14320613211E-01  0.22065514976E-01  0.00000000000E+00 0. -1.
     999901    1    3    3    0    0 -0.48902867788E-01 -0.81070071092E-01  0.90288999600E-01  0.88967182171E+00  0.88000000000E+00 0.  1.
        -11    1    4    4    0    0  0.44761941244E-01  0.89574191944E-01 -0.67067502899E-01  0.12052169229E+00  0.51100000000E-03 0.  1.
         11    1    4    4    0    0 -0.10620886019E-02  0.74563184227E-02 -0.89008834896E-02  0.11670971018E-01  0.51100000000E-03 0. -1.
</event>
<event>
 8    1  0.1084146E+005  0.1043930E+01  0.7957747E-01            NaN
         13   -1    0    0    0    0  0.00000000000E+00  0.00000000000E+00  0.74505805969E-08  0.10566000000E+00  0.10566000000E+00 0. -1.
     999900   -1    0    0    0    0 -0.00000000000E+00 -0.00000000000E+00 -0.74505805969E-08  0.93827000000E+00  0.93827000000E+00 0.  1.
     999902    2    1    2    0    0 -0.26073282601E-02  0.13553768949E-01  0.19121687269E-01  0.10203473424E+01  0.10200747803E+01 0.  0.
     999903    2    3    3    0    0  0.11139879293E+00  0.63228349581E-01 -0.17609945967E-01  0.13084513755E+00  0.20070489933E-01 0.  0.
         14    1    1    2    0    0  0.26073282601E-02 -0.13553768949E-01 -0.19121687269E-01  0.23582657556E-01  0.00000000000E+00 0.  1.
     999901    1    3    3    0    0 -0.11400612119E+00 -0.49674580632E-01  0.36731633236E-01  0.88950220489E+00  0.88000000000E+00 0.  1.
        -11    1    4    4    0    0  0.53355046653E-01  0.19632711065E-01 -0.11394529167E-01  0.57985349556E-01  0.51100000000E-03 0.  1.
         11    1    4    4    0    0  0.58043746279E-01  0.43595638515E-01 -0.62154168008E-02  0.72859787995E-01  0.51100000000E-03 0. -1.
</event>
<event>
 8    1  0.1084146E+005  0.1043930E+01  0.7957747E-01            NaN
         13   -1    0    0    0    0  0.00000000000E+00  0.00000000000E+00  0.74505805969E-08  0.10566000000E+00  0.10566000000E+00 0. -1.
     999900   -1    0    0    0    0 -0.00000000000E+00 -0.00000000000E+00 -0.74505805969E-08  0.93827000000E+00  0.93827000000E+00 0.  1.
     999902    2    1    2    0    0  0.10445097035E-01 -0.21031615509E-01 -0.42243012498E-02  0.10200705443E+01  0.10197914698E+01 0.  0.
     999903    2    3    3    0    0 -0.88994007141E-01  0.65459580056E-01  0.61031784700E-01  0.12786696943E+00  0.20498614549E-01 0.  0.
         14    1    1    2    0    0 -0.10445097035E-01  0.21031615509E-01  0.42243012498E-02  0.23859455652E-01  0.00000000000E+00 0. -1.
     999901    1    3    3    0    0  0.99439104176E-01 -0.86491195565E-01 -0.65256085950E-01  0.89220357492E+00  0.88000000000E+00 0.  1.
        -11    1    4    4    0    0 -0.32215665255E-01  0.32565842372E-01  0.33260643859E-01  0.56611966298E-01  0.51100000000E-03 0.  1.
         11    1    4    4    0    0 -0.56778341886E-01  0.32893737684E-01  0.27771140841E-01  0.71255003128E-01  0.51100000000E-03 0. -1.
</event>
<event>
 8    1  0.1084146E+005  0.1043930E+01  0.7957747E-01            NaN
         13   -1    0    0    0    0  0.00000000000E+00  0.00000000000E+00  0.74505805969E-08  0.10566000000E+00  0.10566000000E+00 0.  1.
     999900   -1    0    0    0    0 -0.00000000000E+00 -0.00000000000E+00 -0.74505805969E-08  0.93827000000E+00  0.93827000000E+00 0.  1.
     999902    2    1    2    0    0  0.15943452945E-02 -0.86265919250E-02 -0.25047620893E-01  0.10173905325E+01  0.10170443216E+01 0.  0.
     999903    2    3    3    0    0 -0.11552787821E-01 -0.12598561293E+00  0.12257436168E-01  0.12871868402E+00  0.20307961558E-01 0.  0.
         14    1    1    2    0    0 -0.15943452945E-02  0.86265919250E-02  0.25047620893E-01  0.26539467545E-01  0.00000000000E+00 0.  1.
     999901    1    3    3    0    0  0.13147133115E-01  0.11735902100E+00 -0.37305057060E-01  0.88867184844E+00  0.88000000000E+00 0.  1.
        -11    1    4    4    0    0  0.58200082518E-02 -0.28049882016E-01  0.35865926453E-02  0.28875476532E-01  0.51100000000E-03 0.  1.
         11    1    4    4    0    0 -0.17372796072E-01 -0.97935730914E-01  0.86708435222E-02  0.99843207487E-01  0.51100000000E-03 0. -1.
</event>
<event>
 8    1  0.1084146E+005  0.1043930E+01  0.7957747E-01            NaN
         13   -1    0    0    0    0  0.00000000000E+00  0.00000000000E+00  0.74505805969E-08  0.10566000000E+00  0.10566000000E+00 0.  1.
     999900   -1    0    0    0    0 -0.00000000000E+00 -0.00000000000E+00 -0.74505805969E-08  0.93827000000E+00  0.93827000000E+00 0.  1.
     999902    2    1    2    0    0 -0.14417390069E-01 -0.18035754333E-01  0.51248972113E-02  0.10202780626E+01  0.10200038779E+01 0.  0.
     999903    2    3    3    0    0 -0.33179006349E-01  0.12133332226E+00  0.20406822462E-01  0.12898166130E+00  0.19930102760E-01 0.  0.
         14    1    1    2    0    0  0.14417390069E-01  0.18035754333E-01 -0.51248972113E-02  0.23651937388E-01  0.00000000000E+00 0.  1.
     999901    1    3    3    0    0  0.18761616279E-01 -0.13936907659E+00 -0.15281925251E-01  0.89129640131E+00  0.88000000000E+00 0. -1.
        -11    1    4    4    0    0 -0.90644807420E-02  0.39134402303E-01 -0.26724818615E-02  0.40262507809E-01  0.51100000000E-03 0. -1.
         11    1    4    4    0    0 -0.24114525607E-01  0.82198919954E-01  0.23079304324E-01  0.88719153490E-01  0.51100000000E-03 0.  1.
</event>
<event>
 8    1  0.1084146E+005  0.1043930E+01  0.7957747E-01            NaN
         13   -1    0    0    0    0  0.00000000000E+00  0.00000000000E+00  0.74505805969E-08  0.10566000000E+00  0.10566000000E+00 0.  1.
     999900   -1    0    0    0    0 -0.00000000000E+00 -0.00000000000E+00 -0.74505805969E-08  0.93827000000E+00  0.93827000000E+00 0.  1.
     999902    2    1    2    0    0  0.78050138020E-02  0.68109554519E-02  0.21651870451E-01  0.10199276908E+01  0.10196452243E+01 0.  0.
     999903    2    3    3    0    0  0.52267200081E-01 -0.64423428956E-01  0.10105901965E+00  0.13237109039E+00  0.20662567963E-01 0.  0.
         14    1    1    2    0    0 -0.78050138020E-02 -0.68109554519E-02 -0.21651870451E-01  0.24002309236E-01  0.00000000000E+00 0. -1.
     999901    1    3    3    0    0 -0.44462186279E-01  0.71234384408E-01 -0.79407149198E-01  0.88755660038E+00  0.88000000000E+00 0.  1.
        -11    1    4    4    0    0  0.37009338835E-02 -0.17592255947E-01  0.22944559612E-01  0.29153015585E-01  0.51100000000E-03 0. -1.
         11    1    4    4    0    0  0.48566266197E-01 -0.46831173009E-01  0.78114460038E-01  0.10321807480E+00  0.51100000000E-03 0.  1.
</event>
<event>
 8    1  0.1084146E+005  0.1043930E+01  0.7957747E-01            NaN
         13   -1    0    0    0    0  0.00000000000E+00  0.00000000000E+00  0.74505805969E-08  0.10566000000E+00  0.10566000000E+00 0. -1.
     999900   -1    0    0    0    0 -0.00000000000E+00 -0.00000000000E+00 -0.74505805969E-08  0.93827000000E+00  0.93827000000E+00 0. -1.
     999902    2    1    2    0    0  0.17905762612E-03 -0.11692413771E-01 -0.20671254300E-01  0.10201803609E+01  0.10199038795E+01 0.  0.
     999903    2    3    3    0    0  0.12431793381E+00  0.25780167467E-01  0.19087924919E-01  0.12978974595E+00  0.19012195394E-01 0.  0.
         14    1    1    2    0    0 -0.17905762612E-03  0.11692413771E-01  0.20671254300E-01  0.23749639066E-01  0.00000000000E+00 0.  1.
     999901    1    3    3    0    0 -0.12413887618E+00 -0.37472581238E-01 -0.39759179219E-01  0.89039061499E+00  0.88000000000E+00 0.  1.
        -11    1    4    4    0    0  0.59976004832E-01  0.49895158397E-02  0.28763013144E-02  0.60254050936E-01  0.51100000000E-03 0.  1.
         11    1    4    4    0    0  0.64341928978E-01  0.20790651627E-01  0.16211623605E-01  0.69535695011E-01  0.51100000000E-03 0. -1.
</event>
<event>
 8    1  0.1084146E+005  0.1043930E+01  0.7957747E-01            NaN
         13   -1    0    0    0    0  0.00000000000E+00  0.00000000000E+00  0.74505805969E-08  0.10566000000E+00  0.10566000000E+00 0.  1.
     999900   -1    0    0    0    0 -0.00000000000E+00 -0.00000000000E+00 -0.74505805969E-08  0.93827000000E+00  0.93827000000E+00 0.  1.
     999902    2    1    2    0    0  0.28413232511E-01  0.10266564172E-01  0.11916091724E-01  0.10114537415E+01  0.10109322252E+01 0.  0.
     999903    2    3    3    0    0 -0.15341583249E-01  0.56403037231E-01 -0.10167886589E+00  0.12187694753E+00  0.33147123315E-01 0.  0.
         14    1    1    2    0    0 -0.28413232511E-01 -0.10266564172E-01 -0.11916091724E-01  0.32476258461E-01  0.00000000000E+00 0.  1.
     999901    1    3    3    0    0  0.43754815760E-01 -0.46136473059E-01  0.11359495762E+00  0.88957679401E+00  0.88000000000E+00 0. -1.
        -11    1    4    4    0    0 -0.12443216996E-01  0.17812689105E-01 -0.65067652885E-01  0.68601648051E-01  0.51100000000E-03 0.  1.
         11    1    4    4    0    0 -0.28983662526E-02  0.38590348126E-01 -0.36611213007E-01  0.53275299476E-01  0.51100000000E-03 0. -1.
</event>
<event>
 8    1  0.1084146E+005  0.1043930E+01  0.7957747E-01            NaN
         13   -1    0    0    0    0  0.00000000000E+00  0.00000000000E+00  0.74505805969E-08  0.10566000000E+00  0.10566000000E+00 0. -1.
     999900   -1    0    0    0    0 -0.00000000000E+00 -0.00000000000E+00 -0.74505805969E-08  0.93827000000E+00  0.93827000000E+00 0. -1.
     999902    2    1    2    0    0 -0.66676644185E-02 -0.22255137860E-01  0.96897588986E-03  0.10206773050E+01  0.10204124035E+01 0.  0.
     999903    2    3    3    0    0 -0.63942952124E-03 -0.92918543698E-01  0.93119094099E-01  0.13302799316E+00  0.19774140836E-01 0.  0.
         14    1    1    2    0    0  0.66676644185E-02  0.22255137860E-01 -0.96897588986E-03  0.23252694988E-01  0.00000000000E+00 0. -1.
     999901    1    3    3    0    0 -0.60282348973E-02  0.70663405839E-01 -0.92150118209E-01  0.88764931185E+00  0.88000000000E+00 0. -1.
        -11    1    4    4    0    0  0.62869192280E-03 -0.44263123052E-01  0.30698639204E-01  0.53872877089E-01  0.51100000000E-03 0. -1.
         11    1    4    4    0    0 -0.12681214440E-02 -0.48655420646E-01  0.62420454895E-01  0.79155116073E-01  0.51100000000E-03 0.  1.
</event>
<event>
 8    1  0.1084146E+005  0.1043930E+01  0.7957747E-01            NaN
         13   -1    0    0    0    0  0.00000000000E+00  0.00000000000E+00  0.74505805969E-08  0.10566000000E+00  0.10566000000E+00 0. -1.
     999900   -1    0    0    0    0 -0.00000000000E+00 -0.00000000000E+00 -0.74505805969E-08  0.93827000000E+00  0.93827000000E+00 0. -1.
     999902    2    1    2    0    0  0.11390141658E-02 -0.14449213812E-01 -0.19822443509E-01  0.10193738114E+01  0.10190779955E+01 0.  0.
     999903    2    3    3    0    0  0.11906998147E+00  0.42063042467E-01 -0.17985866798E-01  0.12970830054E+00  0.23532781282E-01 0.  0.
         14    1    1    2    0    0 -0.11390141658E-02  0.14449213812E-01  0.19822443509E-01  0.24556188624E-01  0.00000000000E+00 0. -1.
     999901    1    3    3    0    0 -0.11793096731E+00 -0.56512256279E-01 -0.18365767111E-02  0.88966551084E+00  0.88000000000E+00 0.  1.
        -11    1    4    4    0    0  0.70824769679E-01  0.12656728587E-01 -0.10557043028E-01  0.72719000661E-01  0.51100000000E-03 0. -1.
         11    1    4    4    0    0  0.48245211793E-01  0.29406313880E-01 -0.74288237705E-02  0.56989299878E-01  0.51100000000E-03 0.  1.
</event>
<event>
 8    1  0.1084146E+005  0.1043930E+01  0.7957747E-01            NaN
         13   -1    0    0    0    0  0.00000000000E+00  0.00000000000E+00  0.74505805969E-08  0.10566000000E+00  0.10566000000E+00 0. -1.
     999900   -1    0    0    0    0 -0.00000000000E+00 -0.00000000000E+00 -0.74505805969E-08  0.93827000000E+00  0.93827000000E+00 0.  1.
     999902    2    1    2    0    0 -0.18281715334E-01 -0.14882182309E-01 -0.24927214267E-03  0.10203553822E+01  0.10200830081E+01 0.  0.
     999903    2    3    3    0    0 -0.80743489959E-01 -0.57606305704E-01  0.85936614080E-01  0.13291252155E+00  0.21038990415E-01 0.  0.
         14    1    1    2    0    0  0.18281715334E-01  0.14882182309E-01  0.24927214267E-03  0.23574617758E-01  0.00000000000E+00 0.  1.
     999901    1    3    3    0    0  0.62461774625E-01  0.42724123395E-01 -0.86185886222E-01  0.88744286069E+00  0.88000000000E+00 0. -1.
        -11    1    4    4    0    0 -0.36653818713E-01 -0.37601078905E-01  0.51026321518E-01  0.73220831528E-01  0.51100000000E-03 0. -1.
         11    1    4    4    0    0 -0.44089671247E-01 -0.20005226799E-01  0.34910292561E-01  0.59691690022E-01  0.51100000000E-03 0.  1.
</event>
<event>
 8    1  0.1084146E+005  0.1043930E+01  0.7957747E-01            NaN
         13   -1    0    0    0    0  0.00000000000E+00  0.00000000000E+00  0.74505805969E-08  0.10566000000E+00  0.10566000000E+00 0.  1.
     999900   -1    0    0    0    0 -0.00000000000E+00 -0.00000000000E+00 -0.74505805969E-08  0.93827000000E+00  0.93827000000E+00 0.  1.
     999902    2    1    2    0    0  0.15008676704E-01  0.34635708349E-02 -0.18115986664E-01  0.10201508984E+01  0.10198737225E+01 0.  0.
     999903    2    3    3    0    0  0.71136072724E-02  0.50946362370E-01 -0.12086199797E+00  0.13286645110E+00  0.19993399599E-01 0.  0.
         14    1    1    2    0    0 -0.15008676704E-01 -0.34635708349E-02  0.18115986664E-01  0.23779101584E-01  0.00000000000E+00 0.  1.
     999901    1    3    3    0    0  0.78950694317E-02 -0.47482791535E-01  0.10274601130E+00  0.88728444732E+00  0.88000000000E+00 0. -1.
        -11    1    4    4    0    0  0.48640997333E-02  0.45672933951E-01 -0.85675591479E-01  0.97212367825E-01  0.51100000000E-03 0.  1.
         11    1    4    4    0    0  0.22495075391E-02  0.52734284191E-02 -0.35186406488E-01  0.35654083273E-01  0.51100000000E-03 0. -1.
</event>
<event>
 8    1  0.1084146E+005  0.1043930E+01  0.7957747E-01            NaN
         13   -1    0    0    0    0  0.00000000000E+00  0.00000000000E+00  0.74505805969E-08  0.10566000000E+00  0.10566000000E+00 0. -1.
     999900   -1    0    0    0    0 -0.00000000000E+00 -0.00000000000E+00 -0.74505805969E-08  0.93827000000E+00  0.93827000000E+00 0.  1.
     999902    2    1    2    0    0 -0.24351444639E-01  0.53864891299E-02  0.12819202159E-01  0.10158882621E+01  0.10155011679E+01 0.  0.
     999903    2    3    3    0    0 -0.85873598447E-01  0.44186915647E-01  0.84542017220E-01  0.12997934425E+00  0.20506555807E-01 0.  0.
         14    1    1    2    0    0  0.24351444639E-01 -0.53864891299E-02 -0.12819202159E-01  0.28041737912E-01  0.00000000000E+00 0.  1.
     999901    1    3    3    0    0  0.61522153808E-01 -0.38800426517E-01 -0.71722815060E-01  0.88590891784E+00  0.88000000000E+00 0.  1.
        -11    1    4    4    0    0 -0.83537267943E-01  0.40074306813E-01  0.84220710359E-01  0.12521107929E+00  0.51100000000E-03 0. -1.
         11    1    4    4    0    0 -0.23363305042E-02  0.41126088338E-02  0.32130686116E-03  0.47682649616E-02  0.51100000000E-03 0.  1.
</event>
<event>
 8    1  0.1084146E+005  0.1043930E+01  0.7957747E-01            NaN
         13   -1    0    0    0    0  0.00000000000E+00  0.00000000000E+00  0.74505805969E-08  0.10566000000E+00  0.10566000000E+00 0. -1.
     999900   -1    0    0    0    0 -0.00000000000E+00 -0.00000000000E+00 -0.74505805969E-08  0.93827000000E+00  0.93827000000E+00 0.  1.
     999902    2    1    2    0    0 -0.95665086772E-02 -0.76128348236E-02  0.19575355845E-01  0.10208504008E+01  0.10205894733E+01 0.  0.
     999903    2    3    3    0    0 -0.18152340732E-01 -0.34353296176E-01 -0.12248347190E+00  0.12901550615E+00  0.11538782697E-01 0.  0.
         14    1    1    2    0    0  0.95665086772E-02  0.76128348236E-02 -0.19575355845E-01  0.23079599190E-01  0.00000000000E+00 0.  1.
     999901    1    3    3    0    0  0.85858320549E-02  0.26740461352E-01  0.14205882775E+00  0.89183489466E+00  0.88000000000E+00 0. -1.
        -11    1    4    4    0    0 -0.53379350082E-02 -0.15759125011E-01 -0.36537754153E-01  0.40151116682E-01  0.51100000000E-03 0.  1.
         11    1    4    4    0    0 -0.12814405724E-01 -0.18594171165E-01 -0.85945717751E-01  0.88864389472E-01  0.51100000000E-03 0. -1.
</event>
<event>
 8    1  0.1084146E+005  0.1043930E+01  0.7957747E-01            NaN
         13   -1    0    0    0    0  0.00000000000E+00  0.00000000000E+00  0.74505805969E-08  0.10566000000E+00  0.10566000000E+00 0. -1.
     999900   -1    0    0    0    0 -0.00000000000E+00 -0.00000000000E+00 -0.74505805969E-08  0.93827000000E+00  0.93827000000E+00 0.  1.
     999902    2    1    2    0    0 -0.10565932797E-01  0.36990502872E-02  0.21271081560E-01  0.10198929282E+01  0.10196096333E+01 0.  0.
     999903    2    3    3    0    0  0.26261458870E-01  0.12586054187E+00  0.10061222592E-01  0.13062055839E+00  0.20735521569E-01 0.  0.
         14    1    1    2    0    0  0.10565932797E-01 -0.36990502872E-02 -0.21271081560E-01  0.24037071777E-01  0.00000000000E+00 0.  1.
     999901    1    3    3    0    0 -0.36827391667E-01 -0.12216149158E+00  0.11209858968E-01  0.88927236983E+00  0.88000000000E+00 0.  1.
        -11    1    4    4    0    0  0.16229159725E-01  0.59391947370E-01  0.14482922509E-01  0.63251918573E-01  0.51100000000E-03 0.  1.
         11    1    4    4    0    0  0.10032299146E-01  0.66468594495E-01 -0.44216999167E-02  0.67368639821E-01  0.51100000000E-03 0. -1.
</event>
<event>
 8    1  0.1084146E+005  0.1043930E+01  0.7957747E-01            NaN
         13   -1    0    0    0    0  0.00000000000E+00  0.00000000000E+00  0.74505805969E-08  0.10566000000E+00  0.10566000000E+00 0.  1.
     999900   -1    0    0    0    0 -0.00000000000E+00 -0.00000000000E+00 -0.74505805969E-08  0.93827000000E+00  0.93827000000E+00 0.  1.
     999902    2    1    2    0    0 -0.20367100206E-01 -0.90041963356E-02 -0.88998277084E-02  0.10199487311E+01  0.10196667656E+01 0.  0.
     999903    2    3    3    0    0 -0.19543158584E-01  0.11428412445E+00  0.52999882336E-01  0.12920058323E+00  0.21000167364E-01 0.  0.
         14    1    1    2    0    0  0.20367100206E-01  0.90041963356E-02  0.88998277084E-02  0.23981268851E-01  0.00000000000E+00 0.  1.
     999901    1    3    3    0    0 -0.82394162189E-03 -0.12328832079E+00 -0.61899710045E-01  0.89074814792E+00  0.88000000000E+00 0. -1.
        -11    1    4    4    0    0 -0.17568399093E-01  0.93356280486E-01  0.34109907645E-01  0.10093458611E+00  0.51100000000E-03 0.  1.
         11    1    4    4    0    0 -0.19747594911E-02  0.20927843966E-01  0.18889974692E-01  0.28265997116E-01  0.51100000000E-03 0. -1.
</event>
<event>
 8    1  0.1084146E+005  0.1043930E+01  0.7957747E-01            NaN
         13   -1    0    0    0    0  0.00000000000E+00  0.00000000000E+00  0.74505805969E-08  0.10566000000E+00  0.10566000000E+00 0.  1.
     999900   -1    0    0    0    0 -0.00000000000E+00 -0.00000000000E+00 -0.74505805969E-08  0.93827000000E+00  0.93827000000E+00 0.  1.
     999902    2    1    2    0    0  0.21369197265E-01 -0.85894625640E-02  0.54032568724E-02  0.10202737821E+01  0.10199994970E+01 0.  0.
     999903    2    3    3    0    0  0.25113754424E-01  0.17307943101E-01 -0.12510148942E+00  0.13026468885E+00  0.19703830833E-01 0.  0.
         14    1    1    2    0    0 -0.21369197265E-01  0.85894625640E-02 -0.54032568724E-02  0.23656217866E-01  0.00000000000E+00 0.  1.
     999901    1    3    3    0    0 -0.37445571597E-02 -0.25897405665E-01  0.13050474629E+00  0.89000909329E+00  0.88000000000E+00 0. -1.
        -11    1    4    4    0    0  0.69507195156E-02  0.14311439041E-01 -0.37333058453E-01  0.40585073163E-01  0.51100000000E-03 0. -1.
         11    1    4    4    0    0  0.18163034909E-01  0.29965040599E-02 -0.87768430968E-01  0.89679615684E-01  0.51100000000E-03 0.  1.
</event>
<event>
 8    1  0.1084146E+005  0.1043930E+01  0.7957747E-01            NaN
         13   -1    0    0    0    0  0.00000000000E+00  0.00000000000E+00  0.74505805969E-08  0.10566000000E+00  0.10566000000E+00 0. -1.
     999900   -1    0    0    0    0 -0.00000000000E+00 -0.00000000000E+00 -0.74505805969E-08  0.93827000000E+00  0.93827000000E+00 0.  1.
     999902    2    1    2    0    0 -0.17705905279E-01 -0.14436626649E-01 -0.26626982336E-02  0.10209298862E+01  0.10206707733E+01 0.  0.
     999903    2    3    3    0    0  0.23266038197E-01  0.75303668542E-01  0.10072590145E+00  0.12940241989E+00  0.19680650924E-01 0.  0.
         14    1    1    2    0    0  0.17705905279E-01  0.14436626649E-01  0.26626982336E-02  0.23000113753E-01  0.00000000000E+00 0. -1.
     999901    1    3    3    0    0 -0.40971943476E-01 -0.89740295191E-01 -0.10338859968E+00  0.89152746636E+00  0.88000000000E+00 0.  1.
        -11    1    4    4    0    0  0.19508801212E-01  0.66535219904E-01  0.75909345341E-01  0.10281059597E+00  0.51100000000E-03 0. -1.
         11    1    4    4    0    0  0.37572369847E-02  0.87684486382E-02  0.24816556105E-01  0.26591823917E-01  0.51100000000E-03 0.  1.
</event>
<event>
 8    1  0.1084146E+005  0.1043930E+01  0.7957747E-01            NaN
         13   -1    0    0    0    0  0.00000000000E+00  0.00000000000E+00  0.74505805969E-08  0.10566000000E+00  0.10566000000E+00 0.  1.
     999900   -1    0    0    0    0 -0.00000000000E+00 -0.00000000000E+00 -0.74505805969E-08  0.93827000000E+00  0.93827000000E+00 0.  1.
     999902    2    1    2    0    0  0.14110874208E-01 -0.18744905893E-01 -0.20537011251E-02  0.10203778036E+01  0.10201059534E+01 0.  0.
     999903    2    3    3    0    0 -0.82375071941E-02 -0.79728020742E-01  0.10273300148E+00  0.13178417121E+00  0.19712543550E-01 0.  0.
         14    1    1    2    0    0 -0.14110874208E-01  0.18744905893E-01  0.20537011251E-02  0.23552196419E-01  0.00000000000E+00 0.  1.
     999901    1    3    3    0    0  0.22348381402E-01  0.60983114849E-01 -0.10478670260E+00  0.88859363237E+00  0.88000000000E+00 0.  1.
        -11    1    4    4    0    0 -0.63013380613E-02 -0.69303868620E-01  0.97916995579E-01  0.12012798263E+00  0.51100000000E-03 0. -1.
         11    1    4    4    0    0 -0.19361691328E-02 -0.10424152122E-01  0.48160058964E-02  0.11656188578E-01  0.51100000000E-03 0.  1.
</event>
<event>
 8    1  0.1084146E+005  0.1043930E+01  0.7957747E-01            NaN
         13   -1    0    0    0    0  0.00000000000E+00  0.00000000000E+00  0.74505805969E-08  0.10566000000E+00  0.10566000000E+00 0. -1.
     999900   -1    0    0    0    0 -0.00000000000E+00 -0.00000000000E+00 -0.74505805969E-08  0.93827000000E+00  0.93827000000E+00 0. -1.
     999902    2    1    2    0    0 -0.39201353258E-02  0.68900465241E-02 -0.22345938562E-01  0.10202196400E+01  0.10199440831E+01 0.  0.
     999903    2    3    3    0    0  0.20681478334E-01  0.33322794821E-02 -0.13002143374E+00  0.13330819606E+00  0.20656095234E-01 0.  0.
         14    1    1    2    0    0  0.39201353258E-02 -0.68900465241E-02  0.22345938562E-01  0.23710360020E-01  0.00000000000E+00 0. -1.
     999901    1    3    3    0    0 -0.24601613660E-01  0.35577670420E-02  0.10767549518E+00  0.88691144392E+00  0.88000000000E+00 0.  1.
        -11    1    4    4    0    0  0.23170221100E-01  0.60332482250E-02 -0.90563262114E-01  0.93676169839E-01  0.51100000000E-03 0.  1.
         11    1    4    4    0    0 -0.24887427663E-02 -0.27009687429E-02 -0.39458171630E-01  0.39632026217E-01  0.51100000000E-03 0. -1.
</event>
<event>
 8    1  0.1084146E+005  0.1043930E+01  0.7957747E-01            NaN
         13   -1    0    0    0    0  0.00000000000E+00  0.00000000000E+00  0.74505805969E-08  0.10566000000E+00  0.10566000000E+00 0. -1.
     999900   -1    0    0    0    0 -0.00000000000E+00 -0.00000000000E+00 -0.74505805969E-08  0.93827000000E+00  0.93827000000E+00 0. -1.
     999902    2    1    2    0    0 -0.21415973522E-01  0.67709307281E-03  0.10129320584E-01  0.10202296727E+01  0.10199543517E+01 0.  0.
     999903    2    3    3    0    0  0.54524516220E-01  0.11579108292E+00  0.29344889601E-02  0.12946036801E+00  0.19258190671E-01 0.  0.
         14    1    1    2    0    0  0.21415973522E-01 -0.67709307281E-03 -0.10129320584E-01  0.23700327264E-01  0.00000000000E+00 0.  1.
     999901    1    3    3    0    0 -0.75940489742E-01 -0.11511398984E+00  0.71948316238E-02  0.89076930473E+00  0.88000000000E+00 0.  1.
        -11    1    4    4    0    0  0.52464820575E-01  0.97476060678E-01  0.55478100254E-02  0.11083852724E+00  0.51100000000E-03 0.  1.
         11    1    4    4    0    0  0.20596956449E-02  0.18315022239E-01 -0.26133210653E-02  0.18621840772E-01  0.51100000000E-03 0. -1.
</event>
<event>
 8    1  0.1084146E+005  0.1043930E+01  0.7957747E-01            NaN
         13   -1    0    0    0    0  0.00000000000E+00  0.00000000000E+00  0.74505805969E-08  0.10566000000E+00  0.10566000000E+00 0.  1.
     999900   -1    0    0    0    0 -0.00000000000E+00 -0.00000000000E+00 -0.74505805969E-08  0.93827000000E+00  0.93827000000E+00 0. -1.
     999902    2    1    2    0    0  0.69360214452E-02  0.24488470118E-01  0.27509057268E-02  0.10183299796E+01  0.10180081465E+01 0.  0.
     999903    2    3    3    0    0 -0.42287743241E-01 -0.17175871591E-01  0.11834686861E+00  0.12843036559E+00  0.20127436552E-01 0.  0.
         14    1    1    2    0    0 -0.69360214452E-02 -0.24488470118E-01 -0.27509057268E-02  0.25600020400E-01  0.00000000000E+00 0.  1.
     999901    1    3    3    0    0  0.49223764687E-01  0.41664341709E-01 -0.11559596288E+00  0.88989961401E+00  0.88000000000E+00 0. -1.
        -11    1    4    4    0    0 -0.26929080405E-01 -0.40843043677E-02  0.86823717259E-01  0.90997120357E-01  0.51100000000E-03 0. -1.
         11    1    4    4    0    0 -0.15358662837E-01 -0.13091567224E-01  0.31523151352E-01  0.37433245233E-01  0.51100000000E-03 0.  1.
</event>
<event>
 8    1  0.1084146E+005  0.1043930E+01  0.7957747E-01            NaN
         13   -1    0    0    0    0  0.00000000000E+00  0.00000000000E+00  0.74505805969E-08  0.10566000000E+00  0.10566000000E+00 0. -1.
     999900   -1    0    0    0    0 -0.00000000000E+00 -0.00000000000E+00 -0.74505805969E-08  0.93827000000E+00  0.93827000000E+00 0. -1.
     999902    2    1    2    0    0  0.53982120207E-02  0.16965673439E-01 -0.16277696810E-01  0.10198066051E+01  0.10195212473E+01 0.  0.
     999903    2    3    3    0    0 -0.91068690493E-01  0.37032704533E-01 -0.85030097298E-01  0.13164252026E+00  0.20849654703E-01 0.  0.
         14    1    1    2    0    0 -0.53982120207E-02 -0.16965673439E-01  0.16277696810E-01  0.24123394904E-01  0.00000000000E+00 0. -1.
     999901    1    3    3    0    0  0.96466902513E-01 -0.20067031094E-01  0.68752400488E-01  0.88816408483E+00  0.88000000000E+00 0.  1.
        -11    1    4    4    0    0 -0.55777229399E-01  0.14019232360E-01 -0.40536726539E-01  0.70364234629E-01  0.51100000000E-03 0. -1.
         11    1    4    4    0    0 -0.35291461093E-01  0.23013472174E-01 -0.44493370759E-01  0.61278285632E-01  0.51100000000E-03 0.  1.
</event>
<event>
 8    1  0.1084146E+005  0.1043930E+01  0.7957747E-01            NaN
         13   -1    0    0    0    0  0.00000000000E+00  0.00000000000E+00  0.74505805969E-08  0.10566000000E+00  0.10566000000E+00 0. -1.
     999900   -1    0    0    0    0 -0.00000000000E+00 -0.00000000000E+00 -0.74505805969E-08  0.93827000000E+00  0.93827000000E+00 0.  1.
     999902    2    1    2    0    0  0.42334130919E-02  0.10743082975E-02 -0.23759162380E-01  0.10197727294E+01  0.10194865600E+01 0.  0.
     999903    2    3    3    0    0  0.18970376746E-01  0.10364951424E+00 -0.77526221140E-01  0.13206233319E+00  0.18084465393E-01 0.  0.
         14    1    1    2    0    0 -0.42334130919E-02 -0.10743082975E-02  0.23759162380E-01  0.24157270577E-01  0.00000000000E+00 0. -1.
     999901    1    3    3    0    0 -0.14736963654E-01 -0.10257520594E+00  0.53767058760E-01  0.88771039623E+00  0.88000000000E+00 0.  1.
        -11    1    4    4    0    0  0.11718355411E-01  0.60236555093E-01 -0.55934916089E-01  0.83034561370E-01  0.51100000000E-03 0.  1.
         11    1    4    4    0    0  0.72520213347E-02  0.43412959143E-01 -0.21591305051E-01  0.49027771821E-01  0.51100000000E-03 0. -1.
</event>
<event>
 8    1  0.1084146E+005  0.1043930E+01  0.7957747E-01            NaN
         13   -1    0    0    0    0  0.00000000000E+00  0.00000000000E+00  0.74505805969E-08  0.10566000000E+00  0.10566000000E+00 0. -1.
     999900   -1    0    0    0    0 -0.00000000000E+00 -0.00000000000E+00 -0.74505805969E-08  0.93827000000E+00  0.93827000000E+00 0. -1.
     999902    2    1    2    0    0 -0.28728263797E-02  0.82667608854E-02 -0.21561376912E-01  0.10206601603E+01  0.10203948634E+01 0.  0.
     999903    2    3    3    0    0 -0.10784107340E+00 -0.61093528820E-01  0.34341508985E-01  0.12995576748E+00  0.18629167609E-01 0.  0.
         14    1    1    2    0    0  0.28728263797E-02 -0.82667608854E-02  0.21561376912E-01  0.23269839735E-01  0.00000000000E+00 0. -1.
     999901    1    3    3    0    0  0.10496824702E+00  0.69360289705E-01 -0.55902885898E-01  0.89070439278E+00  0.88000000000E+00 0. -1.
        -11    1    4    4    0    0 -0.54470673960E-01 -0.38487631458E-01  0.11640523505E-01  0.67706092823E-01  0.51100000000E-03 0.  1.
         11    1    4    4    0    0 -0.53370399443E-01 -0.22605897362E-01  0.22700985480E-01  0.62249674658E-01  0.51100000000E-03 0. -1.
</event>
<event>
 8    1  0.1084146E+005  0.1043930E+01  0.7957747E-01            NaN
         13   -1    0    0    0    0  0.00000000000E+00  0.00000000000E+00  0.74505805969E-08  0.10566000000E+00  0.10566000000E+00 0.  1.
     999900   -1    0    0    0    0 -0.00000000000E+00 -0.00000000000E+00 -0.74505805969E-08  0.93827000000E+00  0.93827000000E+00 0.  1.
     999902    2    1    2    0    0 -0.19303158586E-01  0.58772984177E-02 -0.80591966608E-02  0.10222020176E+01  0.10219710659E+01 0.  0.
     999903    2    3    3    0    0  0.23074170702E-01 -0.12728422976E+00 -0.97203476340E-02  0.13117418973E+00  0.19454829585E-01 0.  0.
         14    1    1    2    0    0  0.19303158586E-01 -0.58772984177E-02  0.80591966608E-02  0.21727982393E-01  0.00000000000E+00 0.  1.
     999901    1    3    3    0    0 -0.42377329288E-01  0.13316152818E+00  0.16611509732E-02  0.89102782787E+00  0.88000000000E+00 0.  1.
        -11    1    4    4    0    0  0.92797738398E-02 -0.15078006799E-01 -0.25512099411E-02  0.17894979316E-01  0.51100000000E-03 0. -1.
         11    1    4    4    0    0  0.13794396862E-01 -0.11220622296E+00 -0.71691376929E-02  0.11327921042E+00  0.51100000000E-03 0.  1.
</event>
<event>
 8    1  0.1084146E+005  0.1043930E+01  0.7957747E-01            NaN
         13   -1    0    0    0    0  0.00000000000E+00  0.00000000000E+00  0.74505805969E-08  0.10566000000E+00  0.10566000000E+00 0.  1.
     999900   -1    0    0    0    0 -0.00000000000E+00 -0.00000000000E+00 -0.74505805969E-08  0.93827000000E+00  0.93827000000E+00 0. -1.
     999902    2    1    2    0    0  0.21976919453E-02 -0.21920243185E-01  0.11516988095E-01  0.10190710393E+01  0.10187677926E+01 0.  0.
     999903    2    3    3    0    0  0.17340916232E-02  0.82069410277E-01 -0.94749274852E-01  0.12659886519E+00  0.17648014237E-01 0.  0.
         14    1    1    2    0    0 -0.21976919453E-02  0.21920243185E-01 -0.11516988095E-01  0.24858960677E-01  0.00000000000E+00 0. -1.
     999901    1    3    3    0    0  0.46360032209E-03 -0.10398965346E+00  0.10626626295E+00  0.89247217413E+00  0.88000000000E+00 0.  1.
        -11    1    4    4    0    0 -0.45697764238E-02  0.16331606314E-01 -0.27726582665E-01  0.32505826072E-01  0.51100000000E-03 0. -1.
         11    1    4    4    0    0  0.63038680471E-02  0.65737803963E-01 -0.67022692188E-01  0.94093039123E-01  0.51100000000E-03 0.  1.
</event>
<event>
 8    1  0.1084146E+005  0.1043930E+01  0.7957747E-01            NaN
         13   -1    0    0    0    0  0.00000000000E+00  0.00000000000E+00  0.74505805969E-08  0.10566000000E+00  0.10566000000E+00 0.  1.
     999900   -1    0    0    0    0 -0.00000000000E+00 -0.00000000000E+00 -0.74505805969E-08  0.93827000000E+00  0.93827000000E+00 0. -1.
     999902    2    1    2    0    0 -0.19549316668E-01  0.56712279170E-02  0.17175507182E-01  0.10172966252E+01  0.10169479273E+01 0.  0.
     999903    2    3    3    0    0  0.53188748004E-01 -0.87583159397E-01  0.73497411472E-01  0.12760040526E+00  0.19497210193E-01 0.  0.
         14    1    1    2    0    0  0.19549316668E-01 -0.56712279170E-02 -0.17175507182E-01  0.26633374837E-01  0.00000000000E+00 0. -1.
     999901    1    3    3    0    0 -0.72738064672E-01  0.93254387314E-01 -0.56321904290E-01  0.88969621990E+00  0.88000000000E+00 0. -1.
        -11    1    4    4    0    0  0.26417090962E-01 -0.29937656017E-01  0.20728093617E-01  0.44989342390E-01  0.51100000000E-03 0. -1.
         11    1    4    4    0    0  0.26771657042E-01 -0.57645503380E-01  0.52769317855E-01  0.82611062871E-01  0.51100000000E-03 0.  1.
</event>
<event>
 8    1  0.1084146E+005  0.1043930E+01  0.7957747E-01            NaN
         13   -1    0    0    0    0  0.00000000000E+00  0.00000000000E+00  0.74505805969E-08  0.10566000000E+00  0.10566000000E+00 0.  1.
     999900   -1    0    0    0    0 -0.00000000000E+00 -0.00000000000E+00 -0.74505805969E-08  0.93827000000E+00  0.93827000000E+00 0.  1.
     999902    2    1    2    0    0 -0.23302343162E-01  0.12743165998E-02  0.74275480994E-02  0.10194393579E+01  0.10191451383E+01 0.  0.
     999903    2    3    3    0    0  0.94691550569E-02  0.91840653749E-01 -0.87584547829E-01  0.12910036016E+00  0.21713576334E-01 0.  0.
         14    1    1    2    0    0  0.23302343162E-01 -0.12743165998E-02 -0.74275480994E-02  0.24490642099E-01  0.00000000000E+00 0. -1.
     999901    1    3    3    0    0 -0.32771498219E-01 -0.90566337149E-01  0.95012095929E-01  0.89033899774E+00  0.88000000000E+00 0. -1.
        -11    1    4    4    0    0  0.83643997003E-02  0.10748490602E-01 -0.10434441812E-01  0.17164845746E-01  0.51100000000E-03 0. -1.
         11    1    4    4    0    0  0.11047553567E-02  0.81092163147E-01 -0.77150106018E-01  0.11193551442E+00  0.51100000000E-03 0.  1.
</event>
<event>
 8    1  0.1084146E+005  0.1043930E+01  0.7957747E-01            NaN
         13   -1    0    0    0    0  0.00000000000E+00  0.00000000000E+00  0.74505805969E-08  0.10566000000E+00  0.10566000000E+00 0. -1.
     999900   -1    0    0    0    0 -0.00000000000E+00 -0.00000000000E+00 -0.74505805969E-08  0.93827000000E+00  0.93827000000E+00 0.  1.
     999902    2    1    2    0    0 -0.21484923896E-01  0.88178471866E-02 -0.57667114441E-02  0.10200007011E+01  0.10197199708E+01 0.  0.
     999903    2    3    3    0    0 -0.47452409387E-01  0.11106826738E+00 -0.50093412514E-01  0.13259193671E+00  0.21985916587E-01 0.  0.
         14    1    1    2    0    0  0.21484923896E-01 -0.88178471866E-02  0.57667114441E-02  0.23929298877E-01  0.00000000000E+00 0.  1.
     999901    1    3    3    0    0  0.25967485491E-01 -0.10225042019E+00  0.44326701070E-01  0.88740876441E+00  0.88000000000E+00 0. -1.
        -11    1    4    4    0    0 -0.34918411137E-01  0.10018903217E+00 -0.41885465550E-01  0.11406923752E+00  0.51100000000E-03 0. -1.
         11    1    4    4    0    0 -0.12533998250E-01  0.10879235208E-01 -0.82079469637E-02  0.18522699188E-01  0.51100000000E-03 0.  1.
</event>
<event>
 8    1  0.1084146E+005  0.1043930E+01  0.7957747E-01            NaN
         13   -1    0    0    0    0  0.00000000000E+00  0.00000000000E+00  0.74505805969E-08  0.10566000000E+00  0.10566000000E+00 0. -1.
     999900   -1    0    0    0    0 -0.00000000000E+00 -0.00000000000E+00 -0.74505805969E-08  0.93827000000E+00  0.93827000000E+00 0.  1.
     999902    2    1    2    0    0  0.12215855697E-01 -0.20436270225E-01  0.11539261588E-01  0.10174720555E+01  0.10171279963E+01 0.  0.
     999903    2    3    3    0    0 -0.82065401012E-01 -0.21456378187E-01 -0.92030058942E-01  0.12639596436E+00  0.17643748150E-01 0.  0.
         14    1    1    2    0    0 -0.12215855697E-01  0.20436270225E-01 -0.11539261588E-01  0.26457944536E-01  0.00000000000E+00 0.  1.
     999901    1    3    3    0    0  0.94281256708E-01  0.10201079623E-02  0.10356932053E+00  0.89107609111E+00  0.88000000000E+00 0. -1.
        -11    1    4    4    0    0 -0.40387478580E-01 -0.15889393186E-01 -0.57137373392E-01  0.71753479365E-01  0.51100000000E-03 0.  1.
         11    1    4    4    0    0 -0.41677922431E-01 -0.55669850014E-02 -0.34892685550E-01  0.54642484992E-01  0.51100000000E-03 0. -1.
</event>
<event>
 8    1  0.1084146E+005  0.1043930E+01  0.7957747E-01            NaN
         13   -1    0    0    0    0  0.00000000000E+00  0.00000000000E+00  0.74505805969E-08  0.10566000000E+00  0.10566000000E+00 0.  1.
     999900   -1    0    0    0    0 -0.00000000000E+00 -0.00000000000E+00 -0.74505805969E-08  0.93827000000E+00  0.93827000000E+00 0.  1.
     999902    2    1    2    0    0 -0.13142632314E-01 -0.18568151169E-01 -0.90637257600E-02  0.10194421225E+01  0.10191479701E+01 0.  0.
     999903    2    3    3    0    0 -0.44727887240E-01  0.11804628334E+00 -0.12371482757E-01  0.12833490483E+00  0.19526528232E-01 0.  0.
         14    1    1    2    0    0  0.13142632314E-01  0.18568151169E-01  0.90637257600E-02  0.24487877544E-01  0.00000000000E+00 0. -1.
     999901    1    3    3    0    0  0.31585254926E-01 -0.13661443451E+00  0.33077569971E-02  0.89110721762E+00  0.88000000000E+00 0. -1.
        -11    1    4    4    0    0 -0.19372652090E-01  0.62366900253E-01  0.25520912213E-02  0.65358275580E-01  0.51100000000E-03 0.  1.
         11    1    4    4    0    0 -0.25355235149E-01  0.55679383089E-01 -0.14923573978E-01  0.62976629252E-01  0.51100000000E-03 0. -1.
</event>
<event>
 8    1  0.1084146E+005  0.1043930E+01  0.7957747E-01            NaN
         13   -1    0    0    0    0  0.00000000000E+00  0.00000000000E+00  0.74505805969E-08  0.10566000000E+00  0.10566000000E+00 0. -1.
     999900   -1    0    0    0    0 -0.00000000000E+00 -0.00000000000E+00 -0.74505805969E-08  0.93827000000E+00  0.93827000000E+00 0. -1.
     999902    2    1    2    0    0 -0.83036125126E-02 -0.10035897836E-02  0.21641484243E-01  0.10207284696E+01  0.10204647459E+01 0.  0.
     999903    2    3    3    0    0 -0.78586816292E-01 -0.76444482503E-01  0.72118936685E-01  0.13327197475E+00  0.23251486507E-01 0.  0.
         14    1    1    2    0    0  0.83036125126E-02  0.10035897836E-02 -0.21641484243E-01  0.23201530412E-01  0.00000000000E+00 0.  1.
     999901    1    3    3    0    0  0.70283203779E-01  0.75440892719E-01 -0.50477452442E-01  0.88745649484E+00  0.88000000000E+00 0.  1.
        -11    1    4    4    0    0 -0.98540518104E-02 -0.22120040379E-01  0.19310323809E-01  0.30976575829E-01  0.51100000000E-03 0.  1.
         11    1    4    4    0    0 -0.68732764482E-01 -0.54324442124E-01  0.52808612876E-01  0.10229539892E+00  0.51100000000E-03 0. -1.
</event>
<event>
 8    1  0.1084146E+005  0.1043930E+01  0.7957747E-01            NaN
         13   -1    0    0    0    0  0.00000000000E+00  0.00000000000E+00  0.74505805969E-08  0.10566000000E+00  0.10566000000E+00 0. -1.
     999900   -1    0    0    0    0 -0.00000000000E+00 -0.00000000000E+00 -0.74505805969E-08  0.93827000000E+00  0.93827000000E+00 0. -1.
     999902    2    1    2    0    0 -0.18429045450E-01  0.15341889467E-01  0.54875618980E-03  0.10199444956E+01  0.10196624293E+01 0.  0.
     999903    2    3    3    0    0  0.11697047677E+00  0.44539944541E-01  0.23208312414E-01  0.12882216250E+00  0.19764227541E-01 0.  0.
         14    1    1    2    0    0  0.18429045450E-01 -0.15341889467E-01 -0.54875618980E-03  0.23985504413E-01  0.00000000000E+00 0. -1.
     999901    1    3    3    0    0 -0.13539952222E+00 -0.29198055075E-01 -0.22659556224E-01  0.89112233309E+00  0.88000000000E+00 0. -1.
        -11    1    4    4    0    0  0.67237368384E-01  0.24159265069E-01  0.33662196224E-02  0.71527102216E-01  0.51100000000E-03 0. -1.
         11    1    4    4    0    0  0.49733108387E-01  0.20380679472E-01  0.19842092792E-01  0.57295060284E-01  0.51100000000E-03 0.  1.
</event>
<event>
 8    1  0.1084146E+005  0.1043930E+01  0.7957747E-01            NaN
         13   -1    0    0    0    0  0.00000000000E+00  0.00000000000E+00  0.74505805969E-08  0.10566000000E+00  0.10566000000E+00 0.  1.
     999900   -1    0    0    0    0 -0.00000000000E+00 -0.00000000000E+00 -0.74505805969E-08  0.93827000000E+00  0.93827000000E+00 0. -1.
     999902    2    1    2    0    0  0.19880381175E-02  0.17112381598E-01 -0.16616285612E-01  0.10199949452E+01  0.10197140783E+01 0.  0.
     999903    2    3    3    0    0 -0.54516070108E-02 -0.11667255445E+00  0.47342858778E-01  0.12755753589E+00  0.19681811467E-01 0.  0.
         14    1    1    2    0    0 -0.19880381175E-02 -0.17112381598E-01  0.16616285612E-01  0.23935054775E-01  0.00000000000E+00 0.  1.
     999901    1    3    3    0    0  0.74396451283E-02  0.13378493605E+00 -0.63959144391E-01  0.89243740934E+00  0.88000000000E+00 0. -1.
        -11    1    4    4    0    0 -0.68884055581E-02 -0.39578737843E-01  0.24825630854E-01  0.47228166264E-01  0.51100000000E-03 0. -1.
         11    1    4    4    0    0  0.14367985472E-02 -0.77093816611E-01  0.22517227924E-01  0.80329369623E-01  0.51100000000E-03 0.  1.
</event>
<event>
 8    1  0.1084146E+005  0.1043930E+01  0.7957747E-01            NaN
         13   -1    0    0    0    0  0.00000000000E+00  0.00000000000E+00  0.74505805969E-08  0.10566000000E+00  0.10566000000E+00 0. -1.
     999900   -1    0    0    0    0 -0.00000000000E+00 -0.00000000000E+00 -0.74505805969E-08  0.93827000000E+00  0.93827000000E+00 0.  1.
     999902    2    1    2    0    0 -0.46678736403E-02  0.78543842593E-02  0.20999259522E-01  0.10210291420E+01  0.10207722858E+01 0.  0.
     999903    2    3    3    0    0  0.70078158972E-02  0.11196047161E+00 -0.63917736208E-01  0.13075654594E+00  0.20677055330E-01 0.  0.
         14    1    1    2    0    0  0.46678736403E-02 -0.78543842593E-02 -0.20999259522E-01  0.22900857995E-01  0.00000000000E+00 0.  1.
     999901    1    3    3    0    0 -0.11675689537E-01 -0.10410608735E+00  0.84916995730E-01  0.89027259607E+00  0.88000000000E+00 0.  1.
        -11    1    4    4    0    0 -0.35183725272E-02  0.63606306619E-01 -0.27894754108E-01  0.69545090515E-01  0.51100000000E-03 0.  1.
         11    1    4    4    0    0  0.10526188424E-01  0.48354164987E-01 -0.36022982100E-01  0.61211455421E-01  0.51100000000E-03 0. -1.
</event>
<event>
 8    1  0.1084146E+005  0.1043930E+01  0.7957747E-01            NaN
         13   -1    0    0    0    0  0.00000000000E+00  0.00000000000E+00  0.74505805969E-08  0.10566000000E+00  0.10566000000E+00 0.  1.
     999900   -1    0    0    0    0 -0.00000000000E+00 -0.00000000000E+00 -0.74505805969E-08  0.93827000000E+00  0.93827000000E+00 0.  1.
     999902    2    1    2    0    0  0.20340797647E-01 -0.63925461039E-02  0.83370489917E-02  0.10210363528E+01  0.10207796602E+01 0.  0.
     999903    2    3    3    0    0 -0.12353762188E+00 -0.31300859475E-01  0.95659159770E-03  0.12897363372E+00  0.19798871273E-01 0.  0.
         14    1    1    2    0    0 -0.20340797647E-01  0.63925461039E-02 -0.83370489917E-02  0.22893647165E-01  0.00000000000E+00 0. -1.
     999901    1    3    3    0    0  0.14387841953E+00  0.24908313371E-01  0.73804573940E-02  0.89206271911E+00  0.88000000000E+00 0.  1.
        -11    1    4    4    0    0 -0.44776697975E-01 -0.18963606395E-02  0.24679760333E-02  0.44887647431E-01  0.51100000000E-03 0.  1.
         11    1    4    4    0    0 -0.78760923907E-01 -0.29404498836E-01 -0.15113844356E-02  0.84085986290E-01  0.51100000000E-03 0. -1.
</event>
<event>
 8    1  0.1084146E+005  0.1043930E+01  0.7957747E-01            NaN
         13   -1    0    0    0    0  0.00000000000E+00  0.00000000000E+00  0.74505805969E-08  0.10566000000E+00  0.10566000000E+00 0.  1.
     999900   -1    0    0    0    0 -0.00000000000E+00 -0.00000000000E+00 -0.74505805969E-08  0.93827000000E+00  0.93827000000E+00 0.  1.
     999902    2    1    2    0    0 -0.10483159239E-01  0.11688953076E-01  0.18679259232E-01  0.10195282997E+01  0.10192362390E+01 0.  0.
     999903    2    3    3    0    0  0.94489279502E-01 -0.76580543044E-01  0.36406348308E-01  0.12872811643E+00  0.21276800723E-01 0.  0.
         14    1    1    2    0    0  0.10483159239E-01 -0.11688953076E-01 -0.18679259232E-01  0.24401700291E-01  0.00000000000E+00 0.  1.
     999901    1    3    3    0    0 -0.10497243874E+00  0.88269496120E-01 -0.17727089076E-01  0.89080018328E+00  0.88000000000E+00 0. -1.
        -11    1    4    4    0    0  0.70130641392E-01 -0.60287931194E-01  0.18299651319E-01  0.94276613585E-01  0.51100000000E-03 0. -1.
         11    1    4    4    0    0  0.24358638110E-01 -0.16292611851E-01  0.18106696990E-01  0.34451502846E-01  0.51100000000E-03 0.  1.
</event>
<event>
 8    1  0.1084146E+005  0.1043930E+01  0.7957747E-01            NaN
         13   -1    0    0    0    0  0.00000000000E+00  0.00000000000E+00  0.74505805969E-08  0.10566000000E+00  0.10566000000E+00 0.  1.
     999900   -1    0    0    0    0 -0.00000000000E+00 -0.00000000000E+00 -0.74505805969E-08  0.93827000000E+00  0.93827000000E+00 0.  1.
     999902    2    1    2    0    0  0.20553310207E-01  0.98141006852E-02  0.60299776520E-02  0.10203691052E+01  0.10200970518E+01 0.  0.
     999903    2    3    3    0    0  0.32073841821E-01  0.95571289283E-01 -0.82405577664E-01  0.13171401718E+00  0.19882163536E-01 0.  0.
         14    1    1    2    0    0 -0.20553310207E-01 -0.98141006852E-02 -0.60299776520E-02  0.23560894788E-01  0.00000000000E+00 0. -1.
     999901    1    3    3    0    0 -0.11520531614E-01 -0.85757188597E-01  0.88435555316E-01  0.88865508803E+00  0.88000000000E+00 0. -1.
        -11    1    4    4    0    0  0.20921721867E-01  0.71691853937E-01 -0.70809682419E-01  0.10291604643E+00  0.51100000000E-03 0.  1.
         11    1    4    4    0    0  0.11152119954E-01  0.23879435345E-01 -0.11595895244E-01  0.28797970751E-01  0.51100000000E-03 0. -1.
</event>
<event>
 8    1  0.1181376E+005  0.1043930E+01  0.7957747E-01            NaN
         13   -1    0    0    0    0  0.00000000000E+00  0.00000000000E+00  0.74505805969E-08  0.10566000000E+00  0.10566000000E+00 0.  1.
     999900   -1    0    0    0    0 -0.00000000000E+00 -0.00000000000E+00 -0.74505805969E-08  0.93827000000E+00  0.93827000000E+00 0. -1.
     999902    2    1    2    0    0  0.54760409978E-02  0.14010805779E-01  0.18302787663E-01  0.10202386146E+01  0.10199635038E+01 0.  0.
     999903    2    3    3    0    0  0.20599243521E-01  0.10849086288E-02  0.12989730853E+00  0.13296800928E+00  0.19536500881E-01 0.  0.
         14    1    1    2    0    0 -0.54760409978E-02 -0.14010805779E-01 -0.18302787663E-01  0.23691385351E-01  0.00000000000E+00 0. -1.
     999901    1    3    3    0    0 -0.15123202523E-01  0.12925897150E-01 -0.11159452087E+00  0.88727060537E+00  0.88000000000E+00 0. -1.
        -11    1    4    4    0    0  0.91413218716E-03  0.14437418339E-03  0.67975193845E-01  0.67983414012E-01  0.51100000000E-03 0. -1.
         11    1    4    4    0    0  0.19685111334E-01  0.94053444540E-03  0.61922114687E-01  0.64984595264E-01  0.51100000000E-03 0.  1.
</event>
<event>
 8    1  0.1084146E+005  0.1043930E+01  0.7957747E-01            NaN
         13   -1    0    0    0    0  0.00000000000E+00  0.00000000000E+00  0.74505805969E-08  0.10566000000E+00  0.10566000000E+00 0. -1.
     999900   -1    0    0    0    0 -0.00000000000E+00 -0.00000000000E+00 -0.74505805969E-08  0.93827000000E+00  0.93827000000E+00 0. -1.
     999902    2    1    2    0    0  0.95500042228E-02 -0.56418448745E-02  0.24243926297E-01  0.10172691494E+01  0.10169197221E+01 0.  0.
     999903    2    3    3    0    0 -0.47184893727E-01  0.93312407814E-01  0.72245827781E-01  0.12861006101E+00  0.19684219903E-01 0.  0.
         14    1    1    2    0    0 -0.95500042228E-02  0.56418448745E-02 -0.24243926297E-01  0.26660850634E-01  0.00000000000E+00 0. -1.
     999901    1    3    3    0    0  0.56734897950E-01 -0.98954252689E-01 -0.48001901484E-01  0.88865908836E+00  0.88000000000E+00 0. -1.
        -11    1    4    4    0    0 -0.23143168674E-01  0.61317027134E-01  0.36912903298E-01  0.75221058380E-01  0.51100000000E-03 0.  1.
         11    1    4    4    0    0 -0.24041725053E-01  0.31995380680E-01  0.35332924483E-01  0.53389002631E-01  0.51100000000E-03 0. -1.
</event>
<event>
 7    1  0.1084146E+005  0.1043930E+01  0.7957747E-01            NaN
         13   -1    0    0    0    0  0.00000000000E+00  0.00000000000E+00  0.74505805969E-08  0.10566000000E+00  0.10566000000E+00 0. -1.
     999900   -1    0    0    0    0 -0.00000000000E+00 -0.00000000000E+00 -0.74505805969E-08  0.93827000000E+00  0.93827000000E+00 0. -1.
     999903    2    1    2    0    0 -0.27034447828E-01  0.32997062538E-01  0.83647755348E-01  0.96175325793E-01  0.20810545671E-01 0.  0.
         14    1    1    2    0    0  0.99362893319E-02 -0.14854490206E-01 -0.64779469325E-01  0.67199444722E-01  0.00000000000E+00 0.  1.
     999901    1    1    2    0    0  0.17098158496E-01 -0.18142572332E-01 -0.18868286023E-01  0.88055522948E+00  0.88000000000E+00 0. -1.
        -11    1    3    3    0    0 -0.29526294365E-01  0.25155748315E-01  0.63576882393E-01  0.74477478663E-01  0.51100000000E-03 0. -1.
         11    1    3    3    0    0  0.24918465363E-02  0.78413142228E-02  0.20070872956E-01  0.21697847131E-01  0.51100000000E-03 0.  1.
</event>
<event>
 8    1  0.1084146E+005  0.1043930E+01  0.7957747E-01            NaN
         13   -1    0    0    0    0  0.00000000000E+00  0.00000000000E+00  0.74505805969E-08  0.10566000000E+00  0.10566000000E+00 0.  1.
     999900   -1    0    0    0    0 -0.00000000000E+00 -0.00000000000E+00 -0.74505805969E-08  0.93827000000E+00  0.93827000000E+00 0.  1.
     999902    2    1    2    0    0 -0.14060364722E-02  0.19963911728E-01  0.12883847321E-01  0.10201281465E+01  0.10198504336E+01 0.  0.
     999903    2    3    3    0    0  0.10194995733E+00 -0.57720960599E-01 -0.48710622530E-01  0.12855017480E+00  0.20662032819E-01 0.  0.
         14    1    1    2    0    0  0.14060364722E-02 -0.19963911728E-01 -0.12883847321E-01  0.23801853537E-01  0.00000000000E+00 0. -1.
     999901    1    3    3    0    0 -0.10335599381E+00  0.77684872326E-01  0.61594469851E-01  0.89157797167E+00  0.88000000000E+00 0.  1.
        -11    1    4    4    0    0  0.46363839423E-01 -0.35302694552E-01 -0.31216282739E-01  0.66110538326E-01  0.51100000000E-03 0.  1.
         11    1    4    4    0    0  0.55586117910E-01 -0.22418266047E-01 -0.17494339791E-01  0.62439636470E-01  0.51100000000E-03 0. -1.
</event>
<event>
 8    1  0.1084146E+005  0.1043930E+01  0.7957747E-01            NaN
         13   -1    0    0    0    0  0.00000000000E+00  0.00000000000E+00  0.74505805969E-08  0.10566000000E+00  0.10566000000E+00 0. -1.
     999900   -1    0    0    0    0 -0.00000000000E+00 -0.00000000000E+00 -0.74505805969E-08  0.93827000000E+00  0.93827000000E+00 0.  1.
     999902    2    1    2    0    0  0.86866538343E-02 -0.17707592680E-01  0.11410638310E-01  0.10211436124E+01  0.10208893464E+01 0.  0.
     999903    2    3    3    0    0  0.42020739398E-01 -0.97645110475E-01 -0.76329034823E-01  0.13254954408E+00  0.21046375903E-01 0.  0.
         14    1    1    2    0    0 -0.86866538343E-02  0.17707592680E-01 -0.11410638310E-01  0.22786387603E-01  0.00000000000E+00 0. -1.
     999901    1    3    3    0    0 -0.33334085564E-01  0.79937517795E-01  0.87739673133E-01  0.88859406832E+00  0.88000000000E+00 0. -1.
        -11    1    4    4    0    0  0.35813989783E-01 -0.62812918652E-01 -0.44146792488E-01  0.84718976751E-01  0.51100000000E-03 0.  1.
         11    1    4    4    0    0  0.62067496153E-02 -0.34832191823E-01 -0.32182242335E-01  0.47830567326E-01  0.51100000000E-03 0. -1.
</event>
<event>
 8    1  0.1084146E+005  0.1043930E+01  0.7957747E-01            NaN
         13   -1    0    0    0    0  0.00000000000E+00  0.00000000000E+00  0.74505805969E-08  0.10566000000E+00  0.10566000000E+00 0.  1.
     999900   -1    0    0    0    0 -0.00000000000E+00 -0.00000000000E+00 -0.74505805969E-08  0.93827000000E+00  0.93827000000E+00 0. -1.
     999902    2    1    2    0    0 -0.58622647872E-02 -0.21478891018E-01  0.91498892808E-02  0.10198586606E+01  0.10195745476E+01 0.  0.
     999903    2    3    3    0    0  0.10132114065E+00 -0.22854103437E-01 -0.74515152416E-01  0.12941494376E+00  0.20185047520E-01 0.  0.
         14    1    1    2    0    0  0.58622647872E-02  0.21478891018E-01 -0.91498892808E-02  0.24071339423E-01  0.00000000000E+00 0.  1.
     999901    1    3    3    0    0 -0.10718340544E+00  0.13752124188E-02  0.83665041697E-01  0.89044371681E+00  0.88000000000E+00 0.  1.
        -11    1    4    4    0    0  0.93011064500E-01 -0.20709927065E-01 -0.60189864814E-01  0.11270776435E+00  0.51100000000E-03 0. -1.
         11    1    4    4    0    0  0.83100761485E-02 -0.21441763711E-02 -0.14325287602E-01  0.16707179408E-01  0.51100000000E-03 0.  1.
</event>
<event>
 8    1  0.1084146E+005  0.1043930E+01  0.7957747E-01            NaN
         13   -1    0    0    0    0  0.00000000000E+00  0.00000000000E+00  0.74505805969E-08  0.10566000000E+00  0.10566000000E+00 0. -1.
     999900   -1    0    0    0    0 -0.00000000000E+00 -0.00000000000E+00 -0.74505805969E-08  0.93827000000E+00  0.93827000000E+00 0.  1.
     999902    2    1    2    0    0  0.52865657052E-02  0.17984248113E-02 -0.22872367029E-01  0.10203858440E+01  0.10201141815E+01 0.  0.
     999903    2    3    3    0    0 -0.21571927565E-01  0.43143579756E-01 -0.12279584763E+00  0.13335963103E+00  0.19474456642E-01 0.  0.
         14    1    1    2    0    0 -0.52865657052E-02 -0.17984248113E-02  0.22872367029E-01  0.23544156011E-01  0.00000000000E+00 0. -1.
     999901    1    3    3    0    0  0.26858493271E-01 -0.41345154944E-01  0.99923480598E-01  0.88702621296E+00  0.88000000000E+00 0. -1.
        -11    1    4    4    0    0 -0.18172621569E-01  0.14902347159E-01 -0.58814950627E-01  0.63338642737E-01  0.51100000000E-03 0. -1.
         11    1    4    4    0    0 -0.33993059964E-02  0.28241232596E-01 -0.63980897000E-01  0.70020988294E-01  0.51100000000E-03 0.  1.
</event>
<event>
 8    1  0.1084146E+005  0.1043930E+01  0.7957747E-01            NaN
         13   -1    0    0    0    0  0.00000000000E+00  0.00000000000E+00  0.74505805969E-08  0.10566000000E+00  0.10566000000E+00 0. -1.
     999900   -1    0    0    0    0 -0.00000000000E+00 -0.00000000000E+00 -0.74505805969E-08  0.93827000000E+00  0.93827000000E+00 0.  1.
     999902    2    1    2    0    0  0.53955461853E-02 -0.16767188992E-01  0.15415398789E-01  0.10205230552E+01  0.10202545864E+01 0.  0.
     999903    2    3    3    0    0 -0.79240152406E-02  0.87976923105E-01  0.94430256361E-01  0.13069605658E+00  0.19017278296E-01 0.  0.
         14    1    1    2    0    0 -0.53955461853E-02  0.16767188992E-01 -0.15415398789E-01  0.23406944807E-01  0.00000000000E+00 0.  1.
     999901    1    3    3    0    0  0.13319561426E-01 -0.10474411210E+00 -0.79014857572E-01  0.88982699861E+00  0.88000000000E+00 0.  1.
        -11    1    4    4    0    0 -0.11673344585E-01  0.34797676856E-01  0.44106266313E-01  0.57382655372E-01  0.51100000000E-03 0. -1.
         11    1    4    4    0    0  0.37493293440E-02  0.53179246249E-01  0.50323990048E-01  0.73313401213E-01  0.51100000000E-03 0.  1.
</event>
<event>
 8    1  0.1084146E+005  0.1043930E+01  0.7957747E-01            NaN
         13   -1    0    0    0    0  0.00000000000E+00  0.00000000000E+00  0.74505805969E-08  0.10566000000E+00  0.10566000000E+00 0.  1.
     999900   -1    0    0    0    0 -0.00000000000E+00 -0.00000000000E+00 -0.74505805969E-08  0.93827000000E+00  0.93827000000E+00 0. -1.
     999902    2    1    2    0    0  0.20110786568E-01 -0.90615498533E-02  0.45441199873E-02  0.10214088000E+01  0.10211604831E+01 0.  0.
     999903    2    3    3    0    0  0.12984391845E+00  0.14058178077E-01  0.22932119136E-01  0.13410163755E+00  0.20007288091E-01 0.  0.
         14    1    1    2    0    0 -0.20110786568E-01  0.90615498533E-02 -0.45441199873E-02  0.22521199981E-01  0.00000000000E+00 0. -1.
     999901    1    3    3    0    0 -0.10973313188E+00 -0.23119727930E-01 -0.18387999148E-01  0.88730716247E+00  0.88000000000E+00 0.  1.
        -11    1    4    4    0    0  0.10122091596E+00  0.18040071458E-01  0.22214035565E-01  0.10518955511E+00  0.51100000000E-03 0. -1.
         11    1    4    4    0    0  0.28623002486E-01 -0.39818933809E-02  0.71808357065E-03  0.28912082443E-01  0.51100000000E-03 0.  1.
</event>
<event>
 8    1  0.1084146E+005  0.1043930E+01  0.7957747E-01            NaN
         13   -1    0    0    0    0  0.00000000000E+00  0.00000000000E+00  0.74505805969E-08  0.10566000000E+00  0.10566000000E+00 0.  1.
     999900   -1    0    0    0    0 -0.00000000000E+00 -0.00000000000E+00 -0.74505805969E-08  0.93827000000E+00  0.93827000000E+00 0.  1.
     999902    2    1    2    0    0 -0.13596430585E-01  0.15863499611E-02  0.23143718122E-01  0.10170411339E+01  0.10166856235E+01 0.  0.
     999903    2    3    3    0    0 -0.68855437805E-01  0.64290994902E-01  0.87812006539E-01  0.13071872198E+00  0.22406080468E-01 0.  0.
         14    1    1    2    0    0  0.13596430585E-01 -0.15863499611E-02 -0.23143718122E-01  0.26888866086E-01  0.00000000000E+00 0. -1.
     999901    1    3    3    0    0  0.55259007220E-01 -0.62704644941E-01 -0.64668288416E-01  0.88632241194E+00  0.88000000000E+00 0.  1.
        -11    1    4    4    0    0 -0.24066872347E-01  0.17453271189E-01  0.15206573775E-01  0.33396587052E-01  0.51100000000E-03 0. -1.
         11    1    4    4    0    0 -0.44788565458E-01  0.46837723713E-01  0.72605432763E-01  0.97322134924E-01  0.51100000000E-03 0.  1.
</event>
<event>
 8    1  0.1084146E+005  0.1043930E+01  0.7957747E-01            NaN
         13   -1    0    0    0    0  0.00000000000E+00  0.00000000000E+00  0.74505805969E-08  0.10566000000E+00  0.10566000000E+00 0.  1.
     999900   -1    0    0    0    0 -0.00000000000E+00 -0.00000000000E+00 -0.74505805969E-08  0.93827000000E+00  0.93827000000E+00 0.  1.
     999902    2    1    2    0    0  0.23693232182E-01 -0.21742714407E-02 -0.25813180818E-02  0.10199975971E+01  0.10197167931E+01 0.  0.
     999903    2    3    3    0    0 -0.92458079324E-01  0.44030034550E-01  0.74779591197E-01  0.12780329348E+00  0.15954754449E-01 0.  0.
         14    1    1    2    0    0 -0.23693232182E-01  0.21742714407E-02  0.25813180818E-02  0.23932402942E-01  0.00000000000E+00 0.  1.
     999901    1    3    3    0    0  0.11615131151E+00 -0.46204305990E-01 -0.77360909278E-01  0.89219430358E+00  0.88000000000E+00 0. -1.
        -11    1    4    4    0    0 -0.29643259378E-01  0.14086748367E-01  0.33459675972E-01  0.46871850222E-01  0.51100000000E-03 0.  1.
         11    1    4    4    0    0 -0.62814819946E-01  0.29943286183E-01  0.41319915225E-01  0.80931443256E-01  0.51100000000E-03 0. -1.
</event>
<event>
 8    1  0.1084146E+005  0.1043930E+01  0.7957747E-01            NaN
         13   -1    0    0    0    0  0.00000000000E+00  0.00000000000E+00  0.74505805969E-08  0.10566000000E+00  0.10566000000E+00 0. -1.
     999900   -1    0    0    0    0 -0.00000000000E+00 -0.00000000000E+00 -0.74505805969E-08  0.93827000000E+00  0.93827000000E+00 0.  1.
     999902    2    1    2    0    0  0.14620837940E-02  0.11666037611E-01  0.18458695343E-01  0.10220449010E+01  0.10218105608E+01 0.  0.
     999903    2    3    3    0    0  0.20982698938E-01 -0.73771061232E-01  0.10719828550E+00  0.13325062387E+00  0.19540041412E-01 0.  0.
         14    1    1    2    0    0 -0.14620837940E-02 -0.11666037611E-01 -0.18458695343E-01  0.21885098957E-01  0.00000000000E+00 0.  1.
     999901    1    3    3    0    0 -0.19520615144E-01  0.85437098844E-01 -0.88739590154E-01  0.88879427717E+00  0.88000000000E+00 0.  1.
        -11    1    4    4    0    0  0.19820631624E-01 -0.34023528164E-01  0.53238104746E-01  0.66219444460E-01  0.51100000000E-03 0. -1.
         11    1    4    4    0    0  0.11620673144E-02 -0.39747533069E-01  0.53960180751E-01  0.67031179411E-01  0.51100000000E-03 0.  1.
</event>
<event>
 8    1  0.1084146E+005  0.1043930E+01  0.7957747E-01            NaN
         13   -1    0    0    0    0  0.00000000000E+00  0.00000000000E+00  0.74505805969E-08  0.10566000000E+00  0.10566000000E+00 0.  1.
     999900   -1    0    0    0    0 -0.00000000000E+00 -0.00000000000E+00 -0.74505805969E-08  0.93827000000E+00  0.93827000000E+00 0. -1.
     999902    2    1    2    0    0 -0.80111696120E-02 -0.47239366312E-02  0.21427885705E-01  0.10205708754E+01  0.10203035152E+01 0.  0.
     999903    2    3    3    0    0 -0.39127701312E-01 -0.11346444243E+00 -0.47841895153E-01  0.13063209174E+00  0.19254603453E-01 0.  0.
         14    1    1    2    0    0  0.80111696120E-02  0.47239366312E-02 -0.21427885705E-01  0.23359124590E-01  0.00000000000E+00 0. -1.
     999901    1    3    3    0    0  0.31116531700E-01  0.10874050580E+00  0.69269780858E-01  0.88993878367E+00  0.88000000000E+00 0.  1.
        -11    1    4    4    0    0 -0.21252094498E-01 -0.73840894053E-01 -0.39382753511E-01  0.86344609272E-01  0.51100000000E-03 0.  1.
         11    1    4    4    0    0 -0.17875606814E-01 -0.39623548374E-01 -0.84591416424E-02  0.44287482465E-01  0.51100000000E-03 0. -1.
</event>
<event>
 8    1  0.1084146E+005  0.1043930E+01  0.7957747E-01            NaN
         13   -1    0    0    0    0  0.00000000000E+00  0.00000000000E+00  0.74505805969E-08  0.10566000000E+00  0.10566000000E+00 0.  1.
     999900   -1    0    0    0    0 -0.00000000000E+00 -0.00000000000E+00 -0.74505805969E-08  0.93827000000E+00  0.93827000000E+00 0. -1.
     999902    2    1    2    0    0  0.89594202020E-02 -0.16204725538E-01  0.14125109793E-01  0.10206408809E+01  0.10203751392E+01 0.  0.
     999903    2    3    3    0    0 -0.11333252907E+00  0.58541622956E-01  0.23473740630E-02  0.12896770509E+00  0.18861999573E-01 0.  0.
         14    1    1    2    0    0 -0.89594202020E-02  0.16204725538E-01 -0.14125109793E-01  0.23289119064E-01  0.00000000000E+00 0. -1.
     999901    1    3    3    0    0  0.12229194927E+00 -0.74746348494E-01  0.11777735730E-01  0.89167317585E+00  0.88000000000E+00 0.  1.
        -11    1    4    4    0    0 -0.11107338230E+00  0.56872627592E-01 -0.70266136857E-03  0.12479001114E+00  0.51100000000E-03 0. -1.
         11    1    4    4    0    0 -0.22591467637E-02  0.16689953643E-02  0.30500354316E-02  0.41776939524E-02  0.51100000000E-03 0.  1.
</event>
<event>
 8    1  0.1084146E+005  0.1043930E+01  0.7957747E-01            NaN
         13   -1    0    0    0    0  0.00000000000E+00  0.00000000000E+00  0.74505805969E-08  0.10566000000E+00  0.10566000000E+00 0. -1.
     999900   -1    0    0    0    0 -0.00000000000E+00 -0.00000000000E+00 -0.74505805969E-08  0.93827000000E+00  0.93827000000E+00 0. -1.
     999902    2    1    2    0    0 -0.71628268815E-02  0.47266206762E-02 -0.20649869609E-01  0.10215678859E+01  0.10213231033E+01 0.  0.
     999903    2    3    3    0    0  0.32932867038E-01 -0.73790975025E-01 -0.10398536088E+00  0.13324503828E+00  0.20288006878E-01 0.  0.
         14    1    1    2    0    0  0.71628268815E-02 -0.47266206762E-02  0.20649869609E-01  0.22362114096E-01  0.00000000000E+00 0. -1.
     999901    1    3    3    0    0 -0.40095693920E-01  0.78517595701E-01  0.83335491268E-01  0.88832284762E+00  0.88000000000E+00 0. -1.
        -11    1    4    4    0    0  0.40906001900E-02 -0.32943155336E-01 -0.38204592508E-01  0.50614587849E-01  0.51100000000E-03 0.  1.
         11    1    4    4    0    0  0.28842266848E-01 -0.40847819690E-01 -0.65780768369E-01  0.82630450432E-01  0.51100000000E-03 0. -1.
</event>
<event>
 8    1  0.1084146E+005  0.1043930E+01  0.7957747E-01            NaN
         13   -1    0    0    0    0  0.00000000000E+00  0.00000000000E+00  0.74505805969E-08  0.10566000000E+00  0.10566000000E+00 0.  1.
     999900   -1    0    0    0    0 -0.00000000000E+00 -0.00000000000E+00 -0.74505805969E-08  0.93827000000E+00  0.93827000000E+00 0.  1.
     999902    2    1    2    0    0 -0.15679864297E-01  0.16981470745E-01 -0.22156470788E-02  0.10207106636E+01  0.10204465303E+01 0.  0.
     999903    2    3    3    0    0 -0.51583759738E-01 -0.24171666441E-01 -0.11692778278E+00  0.13158663144E+00  0.19944459379E-01 0.  0.
         14    1    1    2    0    0  0.15679864297E-01 -0.16981470745E-01  0.22156470788E-02  0.23219336447E-01  0.00000000000E+00 0.  1.
     999901    1    3    3    0    0  0.35903895442E-01  0.41153137187E-01  0.11471213570E+00  0.88912403212E+00  0.88000000000E+00 0. -1.
        -11    1    4    4    0    0 -0.20951657561E-01 -0.94020165710E-03 -0.52811162937E-01  0.56825487111E-01  0.51100000000E-03 0. -1.
         11    1    4    4    0    0 -0.30632102178E-01 -0.23231464784E-01 -0.64116619844E-01  0.74761144327E-01  0.51100000000E-03 0.  1.
</event>
<event>
 8    1  0.1084146E+005  0.1043930E+01  0.7957747E-01            NaN
         13   -1    0    0    0    0  0.00000000000E+00  0.00000000000E+00  0.74505805969E-08  0.10566000000E+00  0.10566000000E+00 0.  1.
     999900   -1    0    0    0    0 -0.00000000000E+00 -0.00000000000E+00 -0.74505805969E-08  0.93827000000E+00  0.93827000000E+00 0.  1.
     999902    2    1    2    0    0 -0.13066906261E-01 -0.16019523251E-01  0.11163707298E-01  0.10204353724E+01  0.10201648650E+01 0.  0.
     999903    2    3    3    0    0 -0.11885604749E+00 -0.50420401373E-01 -0.23088532707E-01  0.13277103340E+00  0.20641949273E-01 0.  0.
         14    1    1    2    0    0  0.13066906261E-01  0.16019523251E-01 -0.11163707298E-01  0.23494627578E-01  0.00000000000E+00 0. -1.
     999901    1    3    3    0    0  0.10578914123E+00  0.34400878122E-01  0.34252240005E-01  0.88766433902E+00  0.88000000000E+00 0. -1.
        -11    1    4    4    0    0 -0.21854879553E-01 -0.18071226638E-01 -0.74741051703E-02  0.29331354581E-01  0.51100000000E-03 0. -1.
         11    1    4    4    0    0 -0.97001167935E-01 -0.32349174734E-01 -0.15614427536E-01  0.10343967882E+00  0.51100000000E-03 0.  1.
</event>
<event>
 8    1  0.1084146E+005  0.1043930E+01  0.7957747E-01            NaN
         13   -1    0    0    0    0  0.00000000000E+00  0.00000000000E+00  0.74505805969E-08  0.10566000000E+00  0.10566000000E+00 0.  1.
     999900   -1    0    0    0    0 -0.00000000000E+00 -0.00000000000E+00 -0.74505805969E-08  0.93827000000E+00  0.93827000000E+00 0. -1.
     999902    2    1    2    0    0  0.21485641455E-01 -0.66217797870E-02  0.72272114184E-02  0.10203140448E+01  0.10200407034E+01 0.  0.
     999903    2    3    3    0    0 -0.11170750491E+00  0.28568665383E-01 -0.51039652533E-01  0.12769217125E+00  0.20137258291E-01 0.  0.
         14    1    1    2    0    0 -0.21485641455E-01  0.66217797870E-02 -0.72272114184E-02  0.23615955224E-01  0.00000000000E+00 0. -1.
     999901    1    3    3    0    0  0.13319314637E+00 -0.35190445170E-01  0.58266863952E-01  0.89262187353E+00  0.88000000000E+00 0.  1.
        -11    1    4    4    0    0 -0.27747213298E-01  0.15968635324E-01 -0.16663256429E-01  0.36094741941E-01  0.51100000000E-03 0. -1.
         11    1    4    4    0    0 -0.83960291613E-01  0.12600030059E-01 -0.34376396104E-01  0.91597429305E-01  0.51100000000E-03 0.  1.
</event>
<event>
 8    1  0.1096863E+005  0.1043930E+01  0.7957747E-01            NaN
         13   -1    0    0    0    0  0.00000000000E+00  0.00000000000E+00  0.74505805969E-08  0.10566000000E+00  0.10566000000E+00 0.  1.
     999900   -1    0    0    0    0 -0.00000000000E+00 -0.00000000000E+00 -0.74505805969E-08  0.93827000000E+00  0.93827000000E+00 0. -1.
     999902    2    1    2    0    0  0.11197915297E-01  0.17753866383E-01  0.12514638460E-01  0.10194921348E+01  0.10191991973E+01 0.  0.
     999903    2    3    3    0    0 -0.26977454559E-01  0.77646972159E-01  0.10145627946E+00  0.13216178006E+00  0.20408922747E-01 0.  0.
         14    1    1    2    0    0 -0.11197915297E-01 -0.17753866383E-01 -0.12514638460E-01  0.24437865175E-01  0.00000000000E+00 0.  1.
     999901    1    3    3    0    0  0.38175369856E-01 -0.59893105776E-01 -0.88941640997E-01  0.88733035476E+00  0.88000000000E+00 0. -1.
        -11    1    4    4    0    0 -0.82569367526E-02  0.53255214526E-01  0.62399181667E-01  0.82451281813E-01  0.51100000000E-03 0. -1.
         11    1    4    4    0    0 -0.18720517806E-01  0.24391757633E-01  0.39057097789E-01  0.49710498248E-01  0.51100000000E-03 0.  1.
</event>
<event>
 8    1  0.1084146E+005  0.1043930E+01  0.7957747E-01            NaN
         13   -1    0    0    0    0  0.00000000000E+00  0.00000000000E+00  0.74505805969E-08  0.10566000000E+00  0.10566000000E+00 0.  1.
     999900   -1    0    0    0    0 -0.00000000000E+00 -0.00000000000E+00 -0.74505805969E-08  0.93827000000E+00  0.93827000000E+00 0.  1.
     999902    2    1    2    0    0 -0.15680161846E-01  0.17168440112E-01 -0.15270062877E-02  0.10206286146E+01  0.10203625897E+01 0.  0.
     999903    2    3    3    0    0  0.56145624972E-01  0.83974407463E-01  0.81388330490E-01  0.13130475125E+00  0.20318588743E-01 0.  0.
         14    1    1    2    0    0  0.15680161846E-01 -0.17168440112E-01  0.15270062877E-02  0.23301385358E-01  0.00000000000E+00 0. -1.
     999901    1    3    3    0    0 -0.71825786818E-01 -0.66805967351E-01 -0.82915336778E-01  0.88932386339E+00  0.88000000000E+00 0. -1.
        -11    1    4    4    0    0  0.42273152053E-01  0.46608086574E-01  0.54247024947E-01  0.83080286200E-01  0.51100000000E-03 0.  1.
         11    1    4    4    0    0  0.13872472919E-01  0.37366320890E-01  0.27141305543E-01  0.48224465050E-01  0.51100000000E-03 0. -1.
</event>
<event>
 8    1  0.1084146E+005  0.1043930E+01  0.7957747E-01            NaN
         13   -1    0    0    0    0  0.00000000000E+00  0.00000000000E+00  0.74505805969E-08  0.10566000000E+00  0.10566000000E+00 0.  1.
     999900   -1    0    0    0    0 -0.00000000000E+00 -0.00000000000E+00 -0.74505805969E-08  0.93827000000E+00  0.93827000000E+00 0.  1.
     999902    2    1    2    0    0 -0.28490864445E-02  0.51523347902E-02  0.21856630376E-01  0.10212942730E+01  0.10210433957E+01 0.  0.
     999903    2    3    3    0    0  0.12192772070E-01 -0.76033122913E-01  0.10687073145E+00  0.13335016805E+00  0.20765707529E-01 0.  0.
         14    1    1    2    0    0  0.28490864445E-02 -0.51523347902E-02 -0.21856630376E-01  0.22635727043E-01  0.00000000000E+00 0. -1.
     999901    1    3    3    0    0 -0.15041858514E-01  0.81185457703E-01 -0.85014101072E-01  0.88794410490E+00  0.88000000000E+00 0.  1.
        -11    1    4    4    0    0  0.15390570669E-01 -0.61808492185E-01  0.75695869632E-01  0.98930708943E-01  0.51100000000E-03 0. -1.
         11    1    4    4    0    0 -0.31977985989E-02 -0.14224630728E-01  0.31174861817E-01  0.34419459111E-01  0.51100000000E-03 0.  1.
</event>
<event>
 8    1  0.1084146E+005  0.1043930E+01  0.7957747E-01            NaN
         13   -1    0    0    0    0  0.00000000000E+00  0.00000000000E+00  0.74505805969E-08  0.10566000000E+00  0.10566000000E+00 0.  1.
     999900   -1    0    0    0    0 -0.00000000000E+00 -0.00000000000E+00 -0.74505805969E-08  0.93827000000E+00  0.93827000000E+00 0.  1.
     999902    2    1    2    0    0 -0.11464651266E-01 -0.97008659744E-02 -0.17987593797E-01  0.10204971478E+01  0.10202280775E+01 0.  0.
     999903    2    3    3    0    0  0.47990711361E-01  0.11790895167E+00 -0.83956776034E-02  0.12925576048E+00  0.20758972844E-01 0.  0.
         14    1    1    2    0    0  0.11464651266E-01  0.97008659744E-02  0.17987593797E-01  0.23432852151E-01  0.00000000000E+00 0.  1.
     999901    1    3    3    0    0 -0.59455362627E-01 -0.12760981765E+00 -0.95919161935E-02  0.89124138737E+00  0.88000000000E+00 0.  1.
        -11    1    4    4    0    0  0.15076564236E-01  0.27984692305E-01  0.61979327515E-02  0.32390141772E-01  0.51100000000E-03 0. -1.
         11    1    4    4    0    0  0.32914147125E-01  0.89924259366E-01 -0.14593610355E-01  0.96865618708E-01  0.51100000000E-03 0.  1.
</event>
<event>
 8    1  0.1084146E+005  0.1043930E+01  0.7957747E-01            NaN
         13   -1    0    0    0    0  0.00000000000E+00  0.00000000000E+00  0.74505805969E-08  0.10566000000E+00  0.10566000000E+00 0.  1.
     999900   -1    0    0    0    0 -0.00000000000E+00 -0.00000000000E+00 -0.74505805969E-08  0.93827000000E+00  0.93827000000E+00 0. -1.
     999902    2    1    2    0    0  0.10570737186E-01  0.12657148279E-01 -0.16796747566E-01  0.10203912104E+01  0.10201196732E+01 0.  0.
     999903    2    3    3    0    0  0.74402898072E-01  0.42212878162E-01  0.96122241353E-01  0.13039189355E+00  0.21091284834E-01 0.  0.
         14    1    1    2    0    0 -0.10570737186E-01 -0.12657148279E-01  0.16796747566E-01  0.23538789604E-01  0.00000000000E+00 0.  1.
     999901    1    3    3    0    0 -0.63832160886E-01 -0.29555729882E-01 -0.11291898892E+00  0.88999931685E+00  0.88000000000E+00 0. -1.
        -11    1    4    4    0    0  0.15003463483E-01  0.38696590807E-02  0.29097592381E-01  0.32969822281E-01  0.51100000000E-03 0. -1.
         11    1    4    4    0    0  0.59399434589E-01  0.38343219081E-01  0.67024648972E-01  0.97422071266E-01  0.51100000000E-03 0.  1.
</event>
<event>
 8    1  0.1084146E+005  0.1043930E+01  0.7957747E-01            NaN
         13   -1    0    0    0    0  0.00000000000E+00  0.00000000000E+00  0.74505805969E-08  0.10566000000E+00  0.10566000000E+00 0.  1.
     999900   -1    0    0    0    0 -0.00000000000E+00 -0.00000000000E+00 -0.74505805969E-08  0.93827000000E+00  0.93827000000E+00 0. -1.
     999902    2    1    2    0    0  0.99507220856E-02 -0.11915047299E-01  0.16753137071E-01  0.10210902797E+01  0.10208348086E+01 0.  0.
     999903    2    3    3    0    0  0.53268576312E-01  0.38438732926E-01  0.11370569199E+00  0.13327738409E+00  0.22777166381E-01 0.  0.
         14    1    1    2    0    0 -0.99507220856E-02  0.11915047299E-01 -0.16753137071E-01  0.22839720311E-01  0.00000000000E+00 0. -1.
     999901    1    3    3    0    0 -0.43317854226E-01 -0.50353780225E-01 -0.96952554922E-01  0.88781289559E+00  0.88000000000E+00 0. -1.
        -11    1    4    4    0    0  0.17783552223E-01  0.24059290105E-01  0.62931034877E-01  0.69682712646E-01  0.51100000000E-03 0.  1.
         11    1    4    4    0    0  0.35485024089E-01  0.14379442821E-01  0.50774657115E-01  0.63594671448E-01  0.51100000000E-03 0. -1.
</event>
<event>
 8    1  0.1084146E+005  0.1043930E+01  0.7957747E-01            NaN
         13   -1    0    0    0    0  0.00000000000E+00  0.00000000000E+00  0.74505805969E-08  0.10566000000E+00  0.10566000000E+00 0.  1.
     999900   -1    0    0    0    0 -0.00000000000E+00 -0.00000000000E+00 -0.74505805969E-08  0.93827000000E+00  0.93827000000E+00 0.  1.
     999902    2    1    2    0    0  0.21683150734E-01 -0.23199178060E-02 -0.17640770347E-01  0.10158811529E+01  0.10154938597E+01 0.  0.
     999903    2    3    3    0    0  0.12672868987E+00 -0.15741555782E-01  0.55115231780E-03  0.12934539407E+00  0.20541903149E-01 0.  0.
         14    1    1    2    0    0 -0.21683150734E-01  0.23199178060E-02  0.17640770347E-01  0.28048847085E-01  0.00000000000E+00 0.  1.
     999901    1    3    3    0    0 -0.10504553913E+00  0.13421637976E-01 -0.18191922665E-01  0.88653575884E+00  0.88000000000E+00 0.  1.
        -11    1    4    4    0    0  0.76486845950E-01 -0.16023006692E-01 -0.73058592818E-02  0.78489560119E-01  0.51100000000E-03 0. -1.
         11    1    4    4    0    0  0.50241843916E-01  0.28145091069E-03  0.78570115996E-02  0.50855833952E-01  0.51100000000E-03 0.  1.
</event>
<event>
 8    1  0.1084146E+005  0.1043930E+01  0.7957747E-01            NaN
         13   -1    0    0    0    0  0.00000000000E+00  0.00000000000E+00  0.74505805969E-08  0.10566000000E+00  0.10566000000E+00 0. -1.
     999900   -1    0    0    0    0 -0.00000000000E+00 -0.00000000000E+00 -0.74505805969E-08  0.93827000000E+00  0.93827000000E+00 0. -1.
     999902    2    1    2    0    0  0.15744422616E-04  0.17719267274E-01  0.10614238813E-01  0.10232748615E+01  0.10230663749E+01 0.  0.
     999903    2    3    3    0    0  0.12729575722E+00 -0.15278751680E-01 -0.27615401743E-01  0.13268484566E+00  0.20124805474E-01 0.  0.
         14    1    1    2    0    0 -0.15744422616E-04 -0.17719267274E-01 -0.10614238813E-01  0.20655138494E-01  0.00000000000E+00 0.  1.
     999901    1    3    3    0    0 -0.12728001279E+00  0.32998018954E-01  0.38229640556E-01  0.89059001585E+00  0.88000000000E+00 0.  1.
        -11    1    4    4    0    0  0.27775147925E-01 -0.15796307564E-02 -0.14487405217E-01  0.31370369882E-01  0.51100000000E-03 0.  1.
         11    1    4    4    0    0  0.99520609292E-01 -0.13699120923E-01 -0.13127996526E-01  0.10131447578E+00  0.51100000000E-03 0. -1.
</event>
<event>
 7    1  0.1084146E+005  0.1043930E+01  0.7957747E-01            NaN
         13   -1    0    0    0    0  0.00000000000E+00  0.00000000000E+00  0.74505805969E-08  0.10566000000E+00  0.10566000000E+00 0. -1.
     999900   -1    0    0    0    0 -0.00000000000E+00 -0.00000000000E+00 -0.74505805969E-08  0.93827000000E+00  0.93827000000E+00 0. -1.
     999902    2    1    2    0    0  0.18360411988E-01  0.26310931005E-02  0.82701130604E-04  0.10253818406E+01  0.10252140678E+01 0.  0.
         14    1    1    2    0    0 -0.18360411988E-01 -0.26310931005E-02 -0.82701130604E-04  0.18548159444E-01  0.00000000000E+00 0. -1.
     999901    1    3    3    0    0  0.14598997253E-01  0.54179798098E-01  0.11447578450E+00  0.88918686814E+00  0.88000000000E+00 0.  1.
        -11    1    3    3    0    0 -0.22948341611E-01 -0.24355662594E-01 -0.70626643441E-01  0.78155029063E-01  0.51100000000E-03 0.  1.
         11    1    3    3    0    0  0.26709756346E-01 -0.27193042403E-01 -0.43766439927E-01  0.58039943350E-01  0.51100000000E-03 0. -1.
</event>
<event>
 8    1  0.1084146E+005  0.1043930E+01  0.7957747E-01            NaN
         13   -1    0    0    0    0  0.00000000000E+00  0.00000000000E+00  0.74505805969E-08  0.10566000000E+00  0.10566000000E+00 0. -1.
     999900   -1    0    0    0    0 -0.00000000000E+00 -0.00000000000E+00 -0.74505805969E-08  0.93827000000E+00  0.93827000000E+00 0.  1.
     999902    2    1    2    0    0 -0.13244403894E-01 -0.20407426746E-01 -0.87048242625E-02  0.10180910514E+01  0.10177631049E+01 0.  0.
     999903    2    3    3    0    0  0.84530218842E-01  0.75804382309E-02 -0.94799734423E-01  0.12805985473E+00  0.14474660799E-01 0.  0.
         14    1    1    2    0    0  0.13244403894E-01  0.20407426746E-01  0.87048242625E-02  0.25838948630E-01  0.00000000000E+00 0. -1.
     999901    1    3    3    0    0 -0.97774622736E-01 -0.27987864977E-01  0.86094910161E-01  0.89003119664E+00  0.88000000000E+00 0. -1.
        -11    1    4    4    0    0  0.52395112167E-01  0.11710449778E-01 -0.59450729099E-01  0.80106383793E-01  0.51100000000E-03 0. -1.
         11    1    4    4    0    0  0.32135106676E-01 -0.41300115472E-02 -0.35349005324E-01  0.47953470936E-01  0.51100000000E-03 0.  1.
</event>
<event>
 8    1  0.1084146E+005  0.1043930E+01  0.7957747E-01            NaN
         13   -1    0    0    0    0  0.00000000000E+00  0.00000000000E+00  0.74505805969E-08  0.10566000000E+00  0.10566000000E+00 0.  1.
     999900   -1    0    0    0    0 -0.00000000000E+00 -0.00000000000E+00 -0.74505805969E-08  0.93827000000E+00  0.93827000000E+00 0.  1.
     999902    2    1    2    0    0  0.56201221033E-02 -0.20664301402E-01 -0.10616948039E-01  0.10200277258E+01  0.10197476368E+01 0.  0.
     999903    2    3    3    0    0  0.18788843825E-01 -0.10573326045E+00 -0.76620988663E-01  0.13336731936E+00  0.19583742006E-01 0.  0.
         14    1    1    2    0    0 -0.56201221033E-02  0.20664301402E-01  0.10616948039E-01  0.23902274171E-01  0.00000000000E+00 0.  1.
     999901    1    3    3    0    0 -0.13168721722E-01  0.85068959049E-01  0.66004040625E-01  0.88666040647E+00  0.88000000000E+00 0. -1.
        -11    1    4    4    0    0  0.94349833645E-02 -0.82220879648E-01 -0.66261130841E-01  0.10601929326E+00  0.51100000000E-03 0. -1.
         11    1    4    4    0    0  0.93538604609E-02 -0.23512380803E-01 -0.10359857822E-01  0.27348026102E-01  0.51100000000E-03 0.  1.
</event>
<event>
 8    1  0.1084146E+005  0.1043930E+01  0.7957747E-01            NaN
         13   -1    0    0    0    0  0.00000000000E+00  0.00000000000E+00  0.74505805969E-08  0.10566000000E+00  0.10566000000E+00 0. -1.
     999900   -1    0    0    0    0 -0.00000000000E+00 -0.00000000000E+00 -0.74505805969E-08  0.93827000000E+00  0.93827000000E+00 0. -1.
     999902    2    1    2    0    0  0.16903693749E-01  0.21717496573E-01 -0.34637299669E-02  0.10161922650E+01  0.10158136332E+01 0.  0.
     999903    2    3    3    0    0 -0.10557657008E+00  0.50325279880E-01 -0.42302735682E-01  0.12640111606E+00  0.22553819008E-01 0.  0.
         14    1    1    2    0    0 -0.16903693749E-01 -0.21717496573E-01  0.34637299669E-02  0.27737735038E-01  0.00000000000E+00 0. -1.
     999901    1    3    3    0    0  0.12248026383E+00 -0.28607783307E-01  0.38839005715E-01  0.88979114890E+00  0.88000000000E+00 0.  1.
        -11    1    4    4    0    0 -0.58351534307E-01  0.15482580319E-01 -0.23276447737E-01  0.64704451080E-01  0.51100000000E-03 0.  1.
         11    1    4    4    0    0 -0.47225035770E-01  0.34842699561E-01 -0.19026287944E-01  0.61696664984E-01  0.51100000000E-03 0. -1.
</event>
<event>
 8    1  0.1084146E+005  0.1043930E+01  0.7957747E-01            NaN
         13   -1    0    0    0    0  0.00000000000E+00  0.00000000000E+00  0.74505805969E-08  0.10566000000E+00  0.10566000000E+00 0. -1.
     999900   -1    0    0    0    0 -0.00000000000E+00 -0.00000000000E+00 -0.74505805969E-08  0.93827000000E+00  0.93827000000E+00 0.  1.
     999902    2    1    2    0    0 -0.17341650415E-02 -0.65760925814E-02 -0.19444194155E-01  0.10233307522E+01  0.10231234038E+01 0.  0.
     999903    2    3    3    0    0 -0.19848127318E-01  0.49911954369E-02  0.12776532924E+00  0.13084402317E+00  0.19424696997E-01 0.  0.
         14    1    1    2    0    0  0.17341650415E-02  0.65760925814E-02  0.19444194155E-01  0.20599247762E-01  0.00000000000E+00 0. -1.
     999901    1    3    3    0    0  0.18113962277E-01 -0.11567288018E-01 -0.14720952340E+00  0.89248672907E+00  0.88000000000E+00 0.  1.
        -11    1    4    4    0    0 -0.16068853197E-01  0.10031333392E-01  0.11551831568E+00  0.11706228287E+00  0.51100000000E-03 0.  1.
         11    1    4    4    0    0 -0.37792741207E-02 -0.50401379549E-02  0.12247013561E-01  0.13781740298E-01  0.51100000000E-03 0. -1.
</event>
<event>
 8    1  0.1084146E+005  0.1043930E+01  0.7957747E-01            NaN
         13   -1    0    0    0    0  0.00000000000E+00  0.00000000000E+00  0.74505805969E-08  0.10566000000E+00  0.10566000000E+00 0. -1.
     999900   -1    0    0    0    0 -0.00000000000E+00 -0.00000000000E+00 -0.74505805969E-08  0.93827000000E+00  0.93827000000E+00 0.  1.
     999902    2    1    2    0    0 -0.28368550668E-03 -0.65042121699E-02  0.23025195967E-01  0.10200020895E+01  0.10197213921E+01 0.  0.
     999903    2    3    3    0    0  0.11859827137E+00 -0.19494177812E-01 -0.43392605089E-01  0.12943317962E+00  0.20602351068E-01 0.  0.
         14    1    1    2    0    0  0.28368550668E-03  0.65042121699E-02 -0.23025195967E-01  0.23927910538E-01  0.00000000000E+00 0.  1.
     999901    1    3    3    0    0 -0.11888195688E+00  0.12989965642E-01  0.66417801056E-01  0.89056890984E+00  0.88000000000E+00 0. -1.
        -11    1    4    4    0    0  0.58439663476E-01 -0.17449462482E-01 -0.14642439098E-01  0.62724318664E-01  0.51100000000E-03 0. -1.
         11    1    4    4    0    0  0.60158607895E-01 -0.20447153300E-02 -0.28750165991E-01  0.66708860957E-01  0.51100000000E-03 0.  1.
</event>
<event>
 8    1  0.1084146E+005  0.1043930E+01  0.7957747E-01            NaN
         13   -1    0    0    0    0  0.00000000000E+00  0.00000000000E+00  0.74505805969E-08  0.10566000000E+00  0.10566000000E+00 0.  1.
     999900   -1    0    0    0    0 -0.00000000000E+00 -0.00000000000E+00 -0.74505805969E-08  0.93827000000E+00  0.93827000000E+00 0.  1.
     999902    2    1    2    0    0  0.13873512980E-01  0.17811641636E-01  0.66655996536E-02  0.10203894146E+01  0.10201178355E+01 0.  0.
     999903    2    3    3    0    0 -0.71621230245E-01  0.69322097497E-01 -0.82709270323E-01  0.13024866984E+00  0.13738223091E-01 0.  0.
         14    1    1    2    0    0 -0.13873512980E-01 -0.17811641636E-01 -0.66655996536E-02  0.23540585356E-01  0.00000000000E+00 0. -1.
     999901    1    3    3    0    0  0.85494743224E-01 -0.51510455861E-01  0.89374869977E-01  0.89014074481E+00  0.88000000000E+00 0. -1.
        -11    1    4    4    0    0 -0.58430324884E-01  0.50058162832E-01 -0.67715297311E-01  0.10249656162E+00  0.51100000000E-03 0. -1.
         11    1    4    4    0    0 -0.13190905361E-01  0.19263934665E-01 -0.14993973012E-01  0.27752108221E-01  0.51100000000E-03 0.  1.
</event>
<event>
 8    1  0.1084146E+005  0.1043930E+01  0.7957747E-01            NaN
         13   -1    0    0    0    0  0.00000000000E+00  0.00000000000E+00  0.74505805969E-08  0.10566000000E+00  0.10566000000E+00 0. -1.
     999900   -1    0    0    0    0 -0.00000000000E+00 -0.00000000000E+00 -0.74505805969E-08  0.93827000000E+00  0.93827000000E+00 0.  1.
     999902    2    1    2    0    0 -0.21545982452E-01 -0.67078089609E-02  0.82419241830E-02  0.10199059834E+01  0.10196229997E+01 0.  0.
     999903    2    3    3    0    0 -0.52414931728E-02  0.12464385565E+00  0.29375303550E-01  0.12975671729E+00  0.20256683376E-01 0.  0.
         14    1    1    2    0    0  0.21545982452E-01  0.67078089609E-02 -0.82419241830E-02  0.24024016632E-01  0.00000000000E+00 0.  1.
     999901    1    3    3    0    0 -0.16304489279E-01 -0.13135166462E+00 -0.21133379367E-01  0.89014926607E+00  0.88000000000E+00 0.  1.
        -11    1    4    4    0    0 -0.81785451136E-02  0.86986002843E-01  0.12052336979E-01  0.88198487734E-01  0.51100000000E-03 0.  1.
         11    1    4    4    0    0  0.29370519408E-02  0.37657852811E-01  0.17322966571E-01  0.41558229561E-01  0.51100000000E-03 0. -1.
</event>
<event>
 8    1  0.1198922E+005  0.1043930E+01  0.7957747E-01            NaN
         13   -1    0    0    0    0  0.00000000000E+00  0.00000000000E+00  0.74505805969E-08  0.10566000000E+00  0.10566000000E+00 0.  1.
     999900   -1    0    0    0    0 -0.00000000000E+00 -0.00000000000E+00 -0.74505805969E-08  0.93827000000E+00  0.93827000000E+00 0. -1.
     999902    2    1    2    0    0  0.49332517364E-02 -0.30388925051E-01 -0.10278739803E-01  0.10114727014E+01  0.10109518038E+01 0.  0.
     999903    2    3    3    0    0 -0.85734267280E-01  0.42510459679E-01  0.69838078002E-01  0.12020751991E+00  0.20371228128E-01 0.  0.
         14    1    1    2    0    0 -0.49332517364E-02  0.30388925051E-01  0.10278739803E-01  0.32457298569E-01  0.00000000000E+00 0.  1.
     999901    1    3    3    0    0  0.90667519016E-01 -0.72899384730E-01 -0.80116817805E-01  0.89126518152E+00  0.88000000000E+00 0. -1.
        -11    1    4    4    0    0 -0.28595771056E-01  0.24972800603E-01  0.29779009315E-01  0.48253594779E-01  0.51100000000E-03 0. -1.
         11    1    4    4    0    0 -0.57138496224E-01  0.17537659075E-01  0.40059068686E-01  0.71953925130E-01  0.51100000000E-03 0.  1.
</event>
<event>
 8    1  0.1084146E+005  0.1043930E+01  0.7957747E-01            NaN
         13   -1    0    0    0    0  0.00000000000E+00  0.00000000000E+00  0.74505805969E-08  0.10566000000E+00  0.10566000000E+00 0.  1.
     999900   -1    0    0    0    0 -0.00000000000E+00 -0.00000000000E+00 -0.74505805969E-08  0.93827000000E+00  0.93827000000E+00 0. -1.
     999902    2    1    2    0    0 -0.15917675084E-01  0.17754868118E-01 -0.36778580589E-02  0.10198025393E+01  0.10195170841E+01 0.  0.
     999903    2    3    3    0    0 -0.12406738053E+00 -0.18825809073E-01 -0.35489747446E-01  0.13185743902E+00  0.19486817398E-01 0.  0.
         14    1    1    2    0    0  0.15917675084E-01 -0.17754868118E-01  0.36778580589E-02  0.24127460742E-01  0.00000000000E+00 0.  1.
     999901    1    3    3    0    0  0.10814970544E+00  0.36580677190E-01  0.31811889387E-01  0.88794510024E+00  0.88000000000E+00 0. -1.
        -11    1    4    4    0    0 -0.95666681241E-01 -0.22456089542E-01 -0.25427746945E-01  0.10150478458E+00  0.51100000000E-03 0.  1.
         11    1    4    4    0    0 -0.28400699288E-01  0.36302804695E-02 -0.10062000501E-01  0.30352654438E-01  0.51100000000E-03 0. -1.
</event>
<event>
 8    1  0.1084146E+005  0.1043930E+01  0.7957747E-01            NaN
         13   -1    0    0    0    0  0.00000000000E+00  0.00000000000E+00  0.74505805969E-08  0.10566000000E+00  0.10566000000E+00 0.  1.
     999900   -1    0    0    0    0 -0.00000000000E+00 -0.00000000000E+00 -0.74505805969E-08  0.93827000000E+00  0.93827000000E+00 0. -1.
     999902    2    1    2    0    0  0.13830704082E-01 -0.35927969873E-02 -0.19048561214E-02  0.10295138617E+01  0.10294129232E+01 0.  0.
     999903    2    3    3    0    0  0.11340213358E-01 -0.62127563763E-02 -0.13702644096E+00  0.13919318388E+00  0.20767718596E-01 0.  0.
         14    1    1    2    0    0 -0.13830704082E-01  0.35927969873E-02  0.19048561214E-02  0.14416138263E-01  0.00000000000E+00 0.  1.
     999901    1    3    3    0    0  0.24904907236E-02  0.26199593890E-02  0.13512158484E+00  0.89032067786E+00  0.88000000000E+00 0.  1.
        -11    1    4    4    0    0  0.14579965585E-01  0.27479680720E-02 -0.88692370902E-01  0.89926216991E-01  0.51100000000E-03 0.  1.
         11    1    4    4    0    0 -0.32397522266E-02 -0.89607244483E-02 -0.48334070057E-01  0.49266966889E-01  0.51100000000E-03 0. -1.
</event>
<event>
 8    1  0.1084146E+005  0.1043930E+01  0.7957747E-01            NaN
         13   -1    0    0    0    0  0.00000000000E+00  0.00000000000E+00  0.74505805969E-08  0.10566000000E+00  0.10566000000E+00 0.  1.
     999900   -1    0    0    0    0 -0.00000000000E+00 -0.00000000000E+00 -0.74505805969E-08  0.93827000000E+00  0.93827000000E+00 0.  1.
     999902    2    1    2    0    0 -0.34911986424E-02 -0.26206743483E-02  0.22648608929E-01  0.10208645304E+01  0.10206039259E+01 0.  0.
     999903    2    3    3    0    0  0.87106961429E-01  0.62484315128E-01  0.74546504524E-01  0.13230385276E+00  0.21335785699E-01 0.  0.
         14    1    1    2    0    0  0.34911986424E-02  0.26206743483E-02 -0.22648608929E-01  0.23065469612E-01  0.00000000000E+00 0. -1.
     999901    1    3    3    0    0 -0.90598160071E-01 -0.65104989477E-01 -0.51897895594E-01  0.88856067763E+00  0.88000000000E+00 0.  1.
        -11    1    4    4    0    0  0.50510085515E-01  0.24940595364E-01  0.32055669995E-01  0.64816117870E-01  0.51100000000E-03 0.  1.
         11    1    4    4    0    0  0.36596875914E-01  0.37543719764E-01  0.42490834528E-01  0.67487734888E-01  0.51100000000E-03 0. -1.
</event>
<event>
 8    1  0.1084146E+005  0.1043930E+01  0.7957747E-01            NaN
         13   -1    0    0    0    0  0.00000000000E+00  0.00000000000E+00  0.74505805969E-08  0.10566000000E+00  0.10566000000E+00 0. -1.
     999900   -1    0    0    0    0 -0.00000000000E+00 -0.00000000000E+00 -0.74505805969E-08  0.93827000000E+00  0.93827000000E+00 0. -1.
     999902    2    1    2    0    0  0.13746590010E-01  0.20983375959E-02  0.19737479953E-01  0.10197858522E+01  0.10194999973E+01 0.  0.
     999903    2    3    3    0    0 -0.59501862812E-01 -0.36692871484E-01 -0.10424402985E+00  0.12723808961E+00  0.20877624217E-01 0.  0.
         14    1    1    2    0    0 -0.13746590010E-01 -0.20983375959E-02 -0.19737479953E-01  0.24144147789E-01  0.00000000000E+00 0.  1.
     999901    1    3    3    0    0  0.73248452822E-01  0.38791209080E-01  0.12398150981E+00  0.89254776260E+00  0.88000000000E+00 0.  1.
        -11    1    4    4    0    0 -0.21452671332E-01 -0.22505810435E-01 -0.57063173440E-01  0.64986117708E-01  0.51100000000E-03 0. -1.
         11    1    4    4    0    0 -0.38049191480E-01 -0.14187061049E-01 -0.47180856412E-01  0.62251971907E-01  0.51100000000E-03 0.  1.
</event>
<event>
 8    1  0.1084146E+005  0.1043930E+01  0.7957747E-01            NaN
         13   -1    0    0    0    0  0.00000000000E+00  0.00000000000E+00  0.74505805969E-08  0.10566000000E+00  0.10566000000E+00 0. -1.
     999900   -1    0    0    0    0 -0.00000000000E+00 -0.00000000000E+00 -0.74505805969E-08  0.93827000000E+00  0.93827000000E+00 0.  1.
     999902    2    1    2    0    0 -0.17584246980E-01 -0.28892221059E-02  0.15672773682E-01  0.10201983928E+01  0.10199223360E+01 0.  0.
     999903    2    3    3    0    0  0.44187291868E-01 -0.44279386489E-01  0.11369285156E+00  0.13163955715E+00  0.22129791658E-01 0.  0.
         14    1    1    2    0    0  0.17584246980E-01  0.28892221059E-02 -0.15672773682E-01  0.23731607217E-01  0.00000000000E+00 0.  1.
     999901    1    3    3    0    0 -0.61771538848E-01  0.41390164383E-01 -0.98020077882E-01  0.88855883564E+00  0.88000000000E+00 0.  1.
        -11    1    4    4    0    0  0.53411035461E-02 -0.18943775753E-01  0.28501860796E-01  0.34641178050E-01  0.51100000000E-03 0.  1.
         11    1    4    4    0    0  0.38846188322E-01 -0.25335610736E-01  0.85190990768E-01  0.96998379097E-01  0.51100000000E-03 0. -1.
</event>
<event>
 8    1  0.1084146E+005  0.1043930E+01  0.7957747E-01            NaN
         13   -1    0    0    0    0  0.00000000000E+00  0.00000000000E+00  0.74505805969E-08  0.10566000000E+00  0.10566000000E+00 0.  1.
     999900   -1    0    0    0    0 -0.00000000000E+00 -0.00000000000E+00 -0.74505805969E-08  0.93827000000E+00  0.93827000000E+00 0.  1.
     999902    2    1    2    0    0 -0.18076431614E-01  0.14573595239E-01  0.40532016999E-02  0.10203593508E+01  0.10200870695E+01 0.  0.
     999903    2    3    3    0    0 -0.11544565183E+00  0.55491369706E-01  0.32006184630E-01  0.13360324087E+00  0.20455793240E-01 0.  0.
         14    1    1    2    0    0  0.18076431614E-01 -0.14573595239E-01 -0.40532016999E-02  0.23570649166E-01  0.00000000000E+00 0.  1.
     999901    1    3    3    0    0  0.97369220215E-01 -0.40917774467E-01 -0.27952982930E-01  0.88675610997E+00  0.88000000000E+00 0.  1.
        -11    1    4    4    0    0 -0.78352241470E-01  0.47763782322E-01  0.20874104268E-01  0.94108671200E-01  0.51100000000E-03 0.  1.
         11    1    4    4    0    0 -0.37093410359E-01  0.77275873839E-02  0.11132080362E-01  0.39494569665E-01  0.51100000000E-03 0. -1.
</event>
<event>
 8    1  0.1084146E+005  0.1043930E+01  0.7957747E-01            NaN
         13   -1    0    0    0    0  0.00000000000E+00  0.00000000000E+00  0.74505805969E-08  0.10566000000E+00  0.10566000000E+00 0. -1.
     999900   -1    0    0    0    0 -0.00000000000E+00 -0.00000000000E+00 -0.74505805969E-08  0.93827000000E+00  0.93827000000E+00 0. -1.
     999902    2    1    2    0    0 -0.12690426409E-01 -0.92495959322E-02  0.15264788910E-01  0.10220298692E+01  0.10217952035E+01 0.  0.
     999903    2    3    3    0    0  0.19121587604E-01 -0.12806086358E+00 -0.22271455021E-01  0.13268342877E+00  0.18537925081E-01 0.  0.
         14    1    1    2    0    0  0.12690426409E-01  0.92495959322E-02 -0.15264788910E-01  0.21900130772E-01  0.00000000000E+00 0.  1.
     999901    1    3    3    0    0 -0.31812014012E-01  0.11881126765E+00  0.37536243931E-01  0.88934644046E+00  0.88000000000E+00 0.  1.
        -11    1    4    4    0    0  0.60474492214E-02 -0.66655786963E-01 -0.20012057695E-01  0.69859209500E-01  0.51100000000E-03 0.  1.
         11    1    4    4    0    0  0.13074138382E-01 -0.61405076618E-01 -0.22593973251E-02  0.62824219265E-01  0.51100000000E-03 0. -1.
</event>
<event>
 8    1  0.1084146E+005  0.1043930E+01  0.7957747E-01            NaN
         13   -1    0    0    0    0  0.00000000000E+00  0.00000000000E+00  0.74505805969E-08  0.10566000000E+00  0.10566000000E+00 0. -1.
     999900   -1    0    0    0    0 -0.00000000000E+00 -0.00000000000E+00 -0.74505805969E-08  0.93827000000E+00  0.93827000000E+00 0.  1.
     999902    2    1    2    0    0  0.23489032476E-01  0.16547876346E-02 -0.17517018117E-02  0.10203176848E+01  0.10200444287E+01 0.  0.
     999903    2    3    3    0    0 -0.11017494347E+00 -0.45280232303E-01  0.44232050939E-01  0.12780244121E+00  0.13717581581E-01 0.  0.
         14    1    1    2    0    0 -0.23489032476E-01 -0.16547876346E-02  0.17517018117E-02  0.23612315177E-01  0.00000000000E+00 0. -1.
     999901    1    3    3    0    0  0.13366397594E+00  0.46935019937E-01 -0.45983752751E-01  0.89251524361E+00  0.88000000000E+00 0. -1.
        -11    1    4    4    0    0 -0.90966447932E-01 -0.37277426646E-01  0.41867393482E-01  0.10685336188E+00  0.51100000000E-03 0. -1.
         11    1    4    4    0    0 -0.19208495533E-01 -0.80028056566E-02  0.23646574572E-02  0.20949079333E-01  0.51100000000E-03 0.  1.
</event>
<event>
 8    1  0.1084146E+005  0.1043930E+01  0.7957747E-01            NaN
         13   -1    0    0    0    0  0.00000000000E+00  0.00000000000E+00  0.74505805969E-08  0.10566000000E+00  0.10566000000E+00 0.  1.
     999900   -1    0    0    0    0 -0.00000000000E+00 -0.00000000000E+00 -0.74505805969E-08  0.93827000000E+00  0.93827000000E+00 0. -1.
     999902    2    1    2    0    0 -0.39694666115E-02  0.20566274451E-02  0.22752262112E-01  0.10207426799E+01  0.10204792829E+01 0.  0.
     999903    2    3    3    0    0  0.53209625867E-01  0.89062484416E-01  0.80251441388E-01  0.13274176585E+00  0.20413038481E-01 0.  0.
         14    1    1    2    0    0  0.39694666115E-02 -0.20566274451E-02 -0.22752262112E-01  0.23187320087E-01  0.00000000000E+00 0. -1.
     999901    1    3    3    0    0 -0.57179092478E-01 -0.87005856971E-01 -0.57499179276E-01  0.88800091407E+00  0.88000000000E+00 0. -1.
        -11    1    4    4    0    0  0.42094680303E-01  0.62061697961E-01  0.47076347918E-01  0.88544113965E-01  0.51100000000E-03 0.  1.
         11    1    4    4    0    0  0.11114945563E-01  0.27000786455E-01  0.33175093470E-01  0.44197651881E-01  0.51100000000E-03 0. -1.
</event>
<event>
 8    1  0.1084146E+005  0.1043930E+01  0.7957747E-01            NaN
         13   -1    0    0    0    0  0.00000000000E+00  0.00000000000E+00  0.74505805969E-08  0.10566000000E+00  0.10566000000E+00 0.  1.
     999900   -1    0    0    0    0 -0.00000000000E+00 -0.00000000000E+00 -0.74505805969E-08  0.93827000000E+00  0.93827000000E+00 0. -1.
     999902    2    1    2    0    0  0.20119030288E-01 -0.11287230272E-01  0.67902065865E-02  0.10198824668E+01  0.10195989223E+01 0.  0.
     999903    2    3    3    0    0 -0.38480129178E-01 -0.10438426234E+00 -0.63693301853E-01  0.13023711959E+00  0.22979905392E-01 0.  0.
         14    1    1    2    0    0 -0.20119030288E-01  0.11287230272E-01 -0.67902065865E-02  0.24047533188E-01  0.00000000000E+00 0. -1.
     999901    1    3    3    0    0  0.58599159466E-01  0.93097032071E-01  0.70483508440E-01  0.88964534722E+00  0.88000000000E+00 0.  1.
        -11    1    4    4    0    0 -0.18457513367E-01 -0.30789731012E-01 -0.30286677930E-01  0.46970536685E-01  0.51100000000E-03 0. -1.
         11    1    4    4    0    0 -0.20022615811E-01 -0.73594531331E-01 -0.33406623924E-01  0.83266582905E-01  0.51100000000E-03 0.  1.
</event>
<event>
 8    1  0.1084146E+005  0.1043930E+01  0.7957747E-01            NaN
         13   -1    0    0    0    0  0.00000000000E+00  0.00000000000E+00  0.74505805969E-08  0.10566000000E+00  0.10566000000E+00 0.  1.
     999900   -1    0    0    0    0 -0.00000000000E+00 -0.00000000000E+00 -0.74505805969E-08  0.93827000000E+00  0.93827000000E+00 0. -1.
     999902    2    1    2    0    0 -0.12548681007E-01 -0.19720817314E-01 -0.37392984440E-03  0.10205522359E+01  0.10202844438E+01 0.  0.
     999903    2    3    3    0    0  0.12165329799E+00 -0.37932181042E-01  0.15988727614E-01  0.13004139291E+00  0.20414435817E-01 0.  0.
         14    1    1    2    0    0  0.12548681007E-01  0.19720817314E-01  0.37392984440E-03  0.23377764095E-01  0.00000000000E+00 0. -1.
     999901    1    3    3    0    0 -0.13420197899E+00  0.18211363728E-01 -0.16362657459E-01  0.89051084300E+00  0.88000000000E+00 0. -1.
        -11    1    4    4    0    0  0.92594480897E-01 -0.28355318442E-01  0.20844095535E-01  0.99058060834E-01  0.51100000000E-03 0. -1.
         11    1    4    4    0    0  0.29058817088E-01 -0.95768626004E-02 -0.48553679206E-02  0.30983332075E-01  0.51100000000E-03 0.  1.
</event>
<event>
 8    1  0.1084146E+005  0.1043930E+01  0.7957747E-01            NaN
         13   -1    0    0    0    0  0.00000000000E+00  0.00000000000E+00  0.74505805969E-08  0.10566000000E+00  0.10566000000E+00 0.  1.
     999900   -1    0    0    0    0 -0.00000000000E+00 -0.00000000000E+00 -0.74505805969E-08  0.93827000000E+00  0.93827000000E+00 0.  1.
     999902    2    1    2    0    0  0.19838994530E-01 -0.37597476948E-02  0.11486388643E-01  0.10206994483E+01  0.10204350569E+01 0.  0.
     999903    2    3    3    0    0 -0.58046534239E-01 -0.75040712249E-01  0.88575408383E-01  0.13104229613E+00  0.18054688399E-01 0.  0.
         14    1    1    2    0    0 -0.19838994530E-01  0.37597476948E-02 -0.11486388643E-01  0.23230551667E-01  0.00000000000E+00 0. -1.
     999901    1    3    3    0    0  0.77885528768E-01  0.71280964555E-01 -0.77089019740E-01  0.88965715220E+00  0.88000000000E+00 0. -1.
        -11    1    4    4    0    0 -0.35718125124E-01 -0.37394154836E-01  0.57655254124E-01  0.77449962734E-01  0.51100000000E-03 0.  1.
         11    1    4    4    0    0 -0.22328409115E-01 -0.37646557413E-01  0.30920154259E-01  0.53592333398E-01  0.51100000000E-03 0. -1.
</event>
<event>
 8    1  0.1084146E+005  0.1043930E+01  0.7957747E-01            NaN
         13   -1    0    0    0    0  0.00000000000E+00  0.00000000000E+00  0.74505805969E-08  0.10566000000E+00  0.10566000000E+00 0.  1.
     999900   -1    0    0    0    0 -0.00000000000E+00 -0.00000000000E+00 -0.74505805969E-08  0.93827000000E+00  0.93827000000E+00 0.  1.
     999902    2    1    2    0    0 -0.23462252831E-01  0.96622256201E-03  0.44335382494E-02  0.10200329886E+01  0.10197530243E+01 0.  0.
     999903    2    3    3    0    0  0.98673303316E-01 -0.20704965154E-01  0.76880368639E-01  0.12838548104E+00  0.20177321176E-01 0.  0.
         14    1    1    2    0    0  0.23462252831E-01 -0.96622256201E-03 -0.44335382494E-02  0.23897011431E-01  0.00000000000E+00 0. -1.
     999901    1    3    3    0    0 -0.12213555615E+00  0.21671187716E-01 -0.72446830390E-01  0.89164750753E+00  0.88000000000E+00 0.  1.
        -11    1    4    4    0    0  0.29261978784E-01  0.30400903391E-02  0.20500134567E-01  0.35861151542E-01  0.51100000000E-03 0.  1.
         11    1    4    4    0    0  0.69411324533E-01 -0.23745055493E-01  0.56380234072E-01  0.92524329496E-01  0.51100000000E-03 0. -1.
</event>
<event>
 8    1  0.1084146E+005  0.1043930E+01  0.7957747E-01            NaN
         13   -1    0    0    0    0  0.00000000000E+00  0.00000000000E+00  0.74505805969E-08  0.10566000000E+00  0.10566000000E+00 0.  1.
     999900   -1    0    0    0    0 -0.00000000000E+00 -0.00000000000E+00 -0.74505805969E-08  0.93827000000E+00  0.93827000000E+00 0.  1.
     999902    2    1    2    0    0 -0.71491701669E-02 -0.13936063736E-01  0.17324761133E-01  0.10205746611E+01  0.10203073885E+01 0.  0.
     999903    2    3    3    0    0  0.11767838555E+00  0.49240630966E-01 -0.35725791670E-02  0.12927790230E+00  0.20668104358E-01 0.  0.
         14    1    1    2    0    0  0.71491701669E-02  0.13936063736E-01 -0.17324761133E-01  0.23355338894E-01  0.00000000000E+00 0. -1.
     999901    1    3    3    0    0 -0.12482755572E+00 -0.63176694702E-01  0.20897340300E-01  0.89129675880E+00  0.88000000000E+00 0.  1.
        -11    1    4    4    0    0  0.58706498719E-01  0.19382094909E-01 -0.10872144053E-01  0.62774064965E-01  0.51100000000E-03 0.  1.
         11    1    4    4    0    0  0.58971886834E-01  0.29858536057E-01  0.72995648860E-02  0.66503837339E-01  0.51100000000E-03 0. -1.
</event>
<event>
 8    1  0.1084146E+005  0.1043930E+01  0.7957747E-01            NaN
         13   -1    0    0    0    0  0.00000000000E+00  0.00000000000E+00  0.74505805969E-08  0.10566000000E+00  0.10566000000E+00 0.  1.
     999900   -1    0    0    0    0 -0.00000000000E+00 -0.00000000000E+00 -0.74505805969E-08  0.93827000000E+00  0.93827000000E+00 0.  1.
     999902    2    1    2    0    0 -0.66948663338E-03 -0.17836932945E-01  0.16496576516E-01  0.10196248272E+01  0.10193351003E+01 0.  0.
     999903    2    3    3    0    0  0.50268986553E-01  0.31670913277E-01 -0.11119229382E+00  0.12757650870E+00  0.19545373119E-01 0.  0.
         14    1    1    2    0    0  0.66948663338E-03  0.17836932945E-01 -0.16496576516E-01  0.24305172824E-01  0.00000000000E+00 0. -1.
     999901    1    3    3    0    0 -0.50938473186E-01 -0.49507846223E-01  0.12768887034E+00  0.89204831848E+00  0.88000000000E+00 0. -1.
        -11    1    4    4    0    0  0.30698382349E-01  0.26823999409E-01 -0.87007189191E-01  0.96085533328E-01  0.51100000000E-03 0.  1.
         11    1    4    4    0    0  0.19570604204E-01  0.48469138683E-02 -0.24185104629E-01  0.31490975372E-01  0.51100000000E-03 0. -1.
</event>
<event>
 8    1  0.1084146E+005  0.1043930E+01  0.7957747E-01            NaN
         13   -1    0    0    0    0  0.00000000000E+00  0.00000000000E+00  0.74505805969E-08  0.10566000000E+00  0.10566000000E+00 0.  1.
     999900   -1    0    0    0    0 -0.00000000000E+00 -0.00000000000E+00 -0.74505805969E-08  0.93827000000E+00  0.93827000000E+00 0. -1.
     999902    2    1    2    0    0  0.29346208299E-01 -0.15344288766E-01 -0.14550427827E-01  0.10077587118E+01  0.10071093581E+01 0.  0.
     999903    2    3    3    0    0 -0.46277735624E-02  0.68905133475E-01 -0.95281739939E-01  0.11940644984E+00  0.20247384785E-01 0.  0.
         14    1    1    2    0    0 -0.29346208299E-01  0.15344288766E-01  0.14550427827E-01  0.36171288188E-01  0.00000000000E+00 0.  1.
     999901    1    3    3    0    0  0.33973981861E-01 -0.84249422241E-01  0.80731312112E-01  0.88835226197E+00  0.88000000000E+00 0.  1.
        -11    1    4    4    0    0  0.16416310080E-02  0.45912865948E-01 -0.75725617239E-01  0.88573790927E-01  0.51100000000E-03 0. -1.
         11    1    4    4    0    0 -0.62694045704E-02  0.22992267527E-01 -0.19556122700E-01  0.30832658915E-01  0.51100000000E-03 0.  1.
</event>
<event>
 8    1  0.1084146E+005  0.1043930E+01  0.7957747E-01            NaN
         13   -1    0    0    0    0  0.00000000000E+00  0.00000000000E+00  0.74505805969E-08  0.10566000000E+00  0.10566000000E+00 0.  1.
     999900   -1    0    0    0    0 -0.00000000000E+00 -0.00000000000E+00 -0.74505805969E-08  0.93827000000E+00  0.93827000000E+00 0. -1.
     999902    2    1    2    0    0  0.12152901958E-01  0.19011701147E-01 -0.20815562508E-02  0.10212701085E+01  0.10210186893E+01 0.  0.
     999903    2    3    3    0    0 -0.10181181196E+00 -0.13620738258E-01 -0.76679318685E-01  0.13019342365E+00  0.22791228209E-01 0.  0.
         14    1    1    2    0    0 -0.12152901958E-01 -0.19011701147E-01  0.20815562508E-02  0.22659891503E-01  0.00000000000E+00 0.  1.
     999901    1    3    3    0    0  0.11396471391E+00  0.32632439404E-01  0.74597762434E-01  0.89107668485E+00  0.88000000000E+00 0.  1.
        -11    1    4    4    0    0 -0.68886301335E-01 -0.19842143494E-01 -0.53308548566E-01  0.89336978018E-01  0.51100000000E-03 0.  1.
         11    1    4    4    0    0 -0.32925510621E-01  0.62214052368E-02 -0.23370770119E-01  0.40856445632E-01  0.51100000000E-03 0. -1.
</event>
<event>
 8    1  0.1084146E+005  0.1043930E+01  0.7957747E-01            NaN
         13   -1    0    0    0    0  0.00000000000E+00  0.00000000000E+00  0.74505805969E-08  0.10566000000E+00  0.10566000000E+00 0.  1.
     999900   -1    0    0    0    0 -0.00000000000E+00 -0.00000000000E+00 -0.74505805969E-08  0.93827000000E+00  0.93827000000E+00 0.  1.
     999902    2    1    2    0    0  0.80602073694E-02  0.17843766422E-01 -0.96379595302E-02  0.10221066820E+01  0.10218736773E+01 0.  0.
     999903    2    3    3    0    0  0.20236655631E-01  0.57327057017E-01 -0.11830288284E+00  0.13446077196E+00  0.19703131961E-01 0.  0.
         14    1    1    2    0    0 -0.80602073694E-02 -0.17843766422E-01  0.96379595302E-02  0.21823317962E-01  0.00000000000E+00 0. -1.
     999901    1    3    3    0    0 -0.12176448262E-01 -0.39483290596E-01  0.10866492331E+00  0.88764591008E+00  0.88000000000E+00 0. -1.
        -11    1    4    4    0    0  0.14146338905E-01  0.51203822279E-01 -0.86577589535E-01  0.10157701734E+00  0.51100000000E-03 0. -1.
         11    1    4    4    0    0  0.60903167259E-02  0.61232347385E-02 -0.31725293306E-01  0.32883754619E-01  0.51100000000E-03 0.  1.
</event>
<event>
 8    1  0.1084146E+005  0.1043930E+01  0.7957747E-01            NaN
         13   -1    0    0    0    0  0.00000000000E+00  0.00000000000E+00  0.74505805969E-08  0.10566000000E+00  0.10566000000E+00 0. -1.
     999900   -1    0    0    0    0 -0.00000000000E+00 -0.00000000000E+00 -0.74505805969E-08  0.93827000000E+00  0.93827000000E+00 0. -1.
     999902    2    1    2    0    0  0.20190666263E-01 -0.73185639824E-02 -0.92285436779E-02  0.10205550048E+01  0.10202872769E+01 0.  0.
     999903    2    3    3    0    0 -0.10389918267E+00 -0.65948553177E-01 -0.35638218788E-01  0.12952569147E+00  0.19041278487E-01 0.  0.
         14    1    1    2    0    0 -0.20190666263E-01  0.73185639824E-02  0.92285436779E-02  0.23374995216E-01  0.00000000000E+00 0.  1.
     999901    1    3    3    0    0  0.12408984894E+00  0.58629989195E-01  0.26409675110E-01  0.89102931331E+00  0.88000000000E+00 0.  1.
        -11    1    4    4    0    0 -0.85882941359E-01 -0.48175261474E-01 -0.33931791931E-01  0.10415547542E+00  0.51100000000E-03 0. -1.
         11    1    4    4    0    0 -0.18016241315E-01 -0.17773291703E-01 -0.17064268569E-02  0.25370216056E-01  0.51100000000E-03 0.  1.
</event>
<event>
 8    1  0.1084146E+005  0.1043930E+01  0.7957747E-01            NaN
         13   -1    0    0    0    0  0.00000000000E+00  0.00000000000E+00  0.74505805969E-08  0.10566000000E+00  0.10566000000E+00 0.  1.
     999900   -1    0    0    0    0 -0.00000000000E+00 -0.00000000000E+00 -0.74505805969E-08  0.93827000000E+00  0.93827000000E+00 0.  1.
     999902    2    1    2    0    0  0.26771583254E-02  0.19677672788E-01 -0.14004478072E-01  0.10196297245E+01  0.10193401158E+01 0.  0.
     999903    2    3    3    0    0 -0.20376115936E-01  0.60823347881E-01 -0.11438769073E+00  0.13266793874E+00  0.20039272153E-01 0.  0.
         14    1    1    2    0    0 -0.26771583254E-02 -0.19677672788E-01  0.14004478072E-01  0.24300275494E-01  0.00000000000E+00 0.  1.
     999901    1    3    3    0    0  0.23053274261E-01 -0.41145675094E-01  0.10038321266E+00  0.88696178577E+00  0.88000000000E+00 0. -1.
        -11    1    4    4    0    0 -0.15060283209E-02  0.13834973632E-01 -0.42591761698E-01  0.44810644966E-01  0.51100000000E-03 0. -1.
         11    1    4    4    0    0 -0.18870087615E-01  0.46988374250E-01 -0.71795929037E-01  0.87857293769E-01  0.51100000000E-03 0.  1.
</event>
<event>
 8    1  0.1084146E+005  0.1043930E+01  0.7957747E-01            NaN
         13   -1    0    0    0    0  0.00000000000E+00  0.00000000000E+00  0.74505805969E-08  0.10566000000E+00  0.10566000000E+00 0. -1.
     999900   -1    0    0    0    0 -0.00000000000E+00 -0.00000000000E+00 -0.74505805969E-08  0.93827000000E+00  0.93827000000E+00 0. -1.
     999902    2    1    2    0    0  0.22799578481E-01 -0.30943128505E-02 -0.79682694068E-02  0.10195806906E+01  0.10192898978E+01 0.  0.
     999903    2    3    3    0    0 -0.25340129687E-01 -0.11280715878E+00  0.54541670071E-01  0.12926511026E+00  0.19159794112E-01 0.  0.
         14    1    1    2    0    0 -0.22799578481E-01  0.30943128505E-02  0.79682694068E-02  0.24349309401E-01  0.00000000000E+00 0. -1.
     999901    1    3    3    0    0  0.48139708169E-01  0.10971284593E+00 -0.62509939478E-01  0.89031558034E+00  0.88000000000E+00 0.  1.
        -11    1    4    4    0    0 -0.70932826082E-02 -0.73644967774E-01  0.34408033355E-01  0.81596996373E-01  0.51100000000E-03 0.  1.
         11    1    4    4    0    0 -0.18246847079E-01 -0.39162191009E-01  0.20133636716E-01  0.47668113885E-01  0.51100000000E-03 0. -1.
</event>
<event>
 8    1  0.1084146E+005  0.1043930E+01  0.7957747E-01            NaN
         13   -1    0    0    0    0  0.00000000000E+00  0.00000000000E+00  0.74505805969E-08  0.10566000000E+00  0.10566000000E+00 0. -1.
     999900   -1    0    0    0    0 -0.00000000000E+00 -0.00000000000E+00 -0.74505805969E-08  0.93827000000E+00  0.93827000000E+00 0. -1.
     999902    2    1    2    0    0 -0.39552283367E-02 -0.24498388036E-01  0.19482743834E-02  0.10190380210E+01  0.10187339582E+01 0.  0.
     999903    2    3    3    0    0  0.10053727515E+00 -0.11256572517E-01  0.79573272865E-01  0.12936410915E+00  0.12988951564E-01 0.  0.
         14    1    1    2    0    0  0.39552283367E-02  0.24498388036E-01 -0.19482743834E-02  0.24891979042E-01  0.00000000000E+00 0. -1.
     999901    1    3    3    0    0 -0.10449250348E+00 -0.13241815518E-01 -0.77624998481E-01  0.88967391181E+00  0.88000000000E+00 0.  1.
        -11    1    4    4    0    0  0.55037248597E-01 -0.10225443215E-01  0.37487080278E-01  0.67373590752E-01  0.51100000000E-03 0.  1.
         11    1    4    4    0    0  0.45500026551E-01 -0.10311293029E-02  0.42086192587E-01  0.61990518398E-01  0.51100000000E-03 0. -1.
</event>
<event>
 8    1  0.1084146E+005  0.1043930E+01  0.7957747E-01            NaN
         13   -1    0    0    0    0  0.00000000000E+00  0.00000000000E+00  0.74505805969E-08  0.10566000000E+00  0.10566000000E+00 0.  1.
     999900   -1    0    0    0    0 -0.00000000000E+00 -0.00000000000E+00 -0.74505805969E-08  0.93827000000E+00  0.93827000000E+00 0.  1.
     999902    2    1    2    0    0 -0.18016413028E-01  0.15182632159E-01  0.14257548298E-02  0.10203262665E+01  0.10200532113E+01 0.  0.
     999903    2    3    3    0    0  0.23176031927E-02  0.20258038771E-01  0.12765321896E+00  0.13107230691E+00  0.21652849921E-01 0.  0.
         14    1    1    2    0    0  0.18016413028E-01 -0.15182632159E-01 -0.14257548298E-02  0.23603733487E-01  0.00000000000E+00 0.  1.
     999901    1    3    3    0    0 -0.20334016221E-01 -0.50754066121E-02 -0.12622746413E+00  0.88925395960E+00  0.88000000000E+00 0.  1.
        -11    1    4    4    0    0  0.62556830452E-02  0.15574388503E-02  0.70719910947E-01  0.71014971038E-01  0.51100000000E-03 0. -1.
         11    1    4    4    0    0 -0.39380798525E-02  0.18700599921E-01  0.56933308009E-01  0.60057335873E-01  0.51100000000E-03 0.  1.
</event>
<event>
 8    1  0.1084146E+005  0.1043930E+01  0.7957747E-01            NaN
         13   -1    0    0    0    0  0.00000000000E+00  0.00000000000E+00  0.74505805969E-08  0.10566000000E+00  0.10566000000E+00 0.  1.
     999900   -1    0    0    0    0 -0.00000000000E+00 -0.00000000000E+00 -0.74505805969E-08  0.93827000000E+00  0.93827000000E+00 0.  1.
     999902    2    1    2    0    0 -0.12332340067E-01 -0.19245301460E-01  0.45377914792E-02  0.10206263567E+01  0.10203602796E+01 0.  0.
     999903    2    3    3    0    0  0.17027869159E-01 -0.11107406489E+00  0.67383924689E-01  0.13313315664E+00  0.23589147349E-01 0.  0.
         14    1    1    2    0    0  0.12332340067E-01  0.19245301460E-01 -0.45377914792E-02  0.23303643306E-01  0.00000000000E+00 0.  1.
     999901    1    3    3    0    0 -0.29360209226E-01  0.91828763425E-01 -0.62846133210E-01  0.88749320005E+00  0.88000000000E+00 0. -1.
        -11    1    4    4    0    0  0.14664939313E-01 -0.48258750214E-01  0.40823057428E-01  0.64890296317E-01  0.51100000000E-03 0. -1.
         11    1    4    4    0    0  0.23629298457E-02 -0.62815314672E-01  0.26560867261E-01  0.68242860326E-01  0.51100000000E-03 0.  1.
</event>
<event>
 8    1  0.1084146E+005  0.1043930E+01  0.7957747E-01            NaN
         13   -1    0    0    0    0  0.00000000000E+00  0.00000000000E+00  0.74505805969E-08  0.10566000000E+00  0.10566000000E+00 0.  1.
     999900   -1    0    0    0    0 -0.00000000000E+00 -0.00000000000E+00 -0.74505805969E-08  0.93827000000E+00  0.93827000000E+00 0.  1.
     999902    2    1    2    0    0  0.67233885925E-02  0.15773051527E-01  0.17059870376E-01  0.10197425593E+01  0.10194556660E+01 0.  0.
     999903    2    3    3    0    0  0.10024833532E-01  0.20583567424E-01  0.12911296459E+00  0.13261802663E+00  0.19829342552E-01 0.  0.
         14    1    1    2    0    0 -0.67233885925E-02 -0.15773051527E-01 -0.17059870376E-01  0.24187440664E-01  0.00000000000E+00 0. -1.
     999901    1    3    3    0    0 -0.33014449394E-02 -0.48105158975E-02 -0.11205309422E+00  0.88712453270E+00  0.88000000000E+00 0.  1.
        -11    1    4    4    0    0 -0.46260743566E-02 -0.37114557131E-03  0.22703322850E-01  0.23178444780E-01  0.51100000000E-03 0.  1.
         11    1    4    4    0    0  0.14650907889E-01  0.20954712996E-01  0.10640964174E+00  0.10943958185E+00  0.51100000000E-03 0. -1.
</event>
<event>
 8    1  0.1084146E+005  0.1043930E+01  0.7957747E-01            NaN
         13   -1    0    0    0    0  0.00000000000E+00  0.00000000000E+00  0.74505805969E-08  0.10566000000E+00  0.10566000000E+00 0. -1.
     999900   -1    0    0    0    0 -0.00000000000E+00 -0.00000000000E+00 -0.74505805969E-08  0.93827000000E+00  0.93827000000E+00 0. -1.
     999902    2    1    2    0    0 -0.13457340288E-01 -0.96077240491E-02  0.17374426022E-01  0.10199450245E+01  0.10196629708E+01 0.  0.
     999903    2    3    3    0    0 -0.46379809465E-01 -0.60543940615E-01  0.10685173271E+00  0.13333091706E+00  0.23306333717E-01 0.  0.
         14    1    1    2    0    0  0.13457340288E-01  0.96077240491E-02 -0.17374426022E-01  0.23984975477E-01  0.00000000000E+00 0.  1.
     999901    1    3    3    0    0  0.32922469178E-01  0.50936216566E-01 -0.89477306684E-01  0.88661410746E+00  0.88000000000E+00 0. -1.
        -11    1    4    4    0    0 -0.19575051081E-01 -0.23831059390E-01  0.25004226197E-01  0.39706101108E-01  0.51100000000E-03 0. -1.
         11    1    4    4    0    0 -0.26804758385E-01 -0.36712881225E-01  0.81847506510E-01  0.93624815956E-01  0.51100000000E-03 0.  1.
</event>
<event>
 8    1  0.1084146E+005  0.1043930E+01  0.7957747E-01            NaN
         13   -1    0    0    0    0  0.00000000000E+00  0.00000000000E+00  0.74505805969E-08  0.10566000000E+00  0.10566000000E+00 0.  1.
     999900   -1    0    0    0    0 -0.00000000000E+00 -0.00000000000E+00 -0.74505805969E-08  0.93827000000E+00  0.93827000000E+00 0.  1.
     999902    2    1    2    0    0  0.23901915312E-01  0.37641128606E-05 -0.21471676384E-02  0.10199318355E+01  0.10196494678E+01 0.  0.
     999903    2    3    3    0    0  0.10933650221E+00 -0.20684739411E-01 -0.69911912680E-01  0.13295993997E+00  0.20207447680E-01 0.  0.
         14    1    1    2    0    0 -0.23901915312E-01 -0.37641128606E-05  0.21471676384E-02  0.23998164484E-01  0.00000000000E+00 0. -1.
     999901    1    3    3    0    0 -0.85434586900E-01  0.20688503524E-01  0.67764745042E-01  0.88697189555E+00  0.88000000000E+00 0. -1.
        -11    1    4    4    0    0  0.62673854024E-01 -0.18138516155E-02 -0.40874806975E-01  0.74848600536E-01  0.51100000000E-03 0.  1.
         11    1    4    4    0    0  0.46662648188E-01 -0.18870887795E-01 -0.29037105706E-01  0.58111339435E-01  0.51100000000E-03 0. -1.
</event>
<event>
 8    1  0.1084146E+005  0.1043930E+01  0.7957747E-01            NaN
         13   -1    0    0    0    0  0.00000000000E+00  0.00000000000E+00  0.74505805969E-08  0.10566000000E+00  0.10566000000E+00 0.  1.
     999900   -1    0    0    0    0 -0.00000000000E+00 -0.00000000000E+00 -0.74505805969E-08  0.93827000000E+00  0.93827000000E+00 0.  1.
     999902    2    1    2    0    0 -0.68895706845E-02  0.12393355568E-01 -0.20019954896E-01  0.10193971640E+01  0.10191019174E+01 0.  0.
     999903    2    3    3    0    0  0.29705026945E-01  0.12348421605E+00  0.27097114479E-01  0.13040877149E+00  0.11893436314E-01 0.  0.
         14    1    1    2    0    0  0.68895706845E-02 -0.12393355568E-01  0.20019954896E-01  0.24532835965E-01  0.00000000000E+00 0.  1.
     999901    1    3    3    0    0 -0.36594597630E-01 -0.11109086049E+00 -0.47117069375E-01  0.88898839255E+00  0.88000000000E+00 0.  1.
        -11    1    4    4    0    0  0.19120378724E-02  0.27904843813E-01  0.44699994294E-02  0.28329811383E-01  0.51100000000E-03 0. -1.
         11    1    4    4    0    0  0.27792989073E-01  0.95579372241E-01  0.22627115050E-01  0.10207896010E+00  0.51100000000E-03 0.  1.
</event>
<event>
 8    1  0.1084146E+005  0.1043930E+01  0.7957747E-01            NaN
         13   -1    0    0    0    0  0.00000000000E+00  0.00000000000E+00  0.74505805969E-08  0.10566000000E+00  0.10566000000E+00 0.  1.
     999900   -1    0    0    0    0 -0.00000000000E+00 -0.00000000000E+00 -0.74505805969E-08  0.93827000000E+00  0.93827000000E+00 0. -1.
     999902    2    1    2    0    0  0.11801593914E-01 -0.11138295199E-01 -0.18551519249E-01  0.10192825233E+01  0.10189844770E+01 0.  0.
     999903    2    3    3    0    0 -0.37906092591E-01  0.10294257773E+00  0.60747295536E-01  0.12699691790E+00  0.20098185901E-01 0.  0.
         14    1    1    2    0    0 -0.11801593914E-01  0.11138295199E-01  0.18551519249E-01  0.24647476652E-01  0.00000000000E+00 0.  1.
     999901    1    3    3    0    0  0.49707686505E-01 -0.11408087293E+00 -0.79298814785E-01  0.89228560545E+00  0.88000000000E+00 0. -1.
        -11    1    4    4    0    0 -0.19681078219E-01  0.44643650660E-01  0.16258634049E-01  0.51429609042E-01  0.51100000000E-03 0.  1.
         11    1    4    4    0    0 -0.18225014372E-01  0.58298927067E-01  0.44488661487E-01  0.75567308857E-01  0.51100000000E-03 0. -1.
</event>
<event>
 8    1  0.1084146E+005  0.1043930E+01  0.7957747E-01            NaN
         13   -1    0    0    0    0  0.00000000000E+00  0.00000000000E+00  0.74505805969E-08  0.10566000000E+00  0.10566000000E+00 0. -1.
     999900   -1    0    0    0    0 -0.00000000000E+00 -0.00000000000E+00 -0.74505805969E-08  0.93827000000E+00  0.93827000000E+00 0. -1.
     999902    2    1    2    0    0 -0.21258256095E-01 -0.41660083872E-02 -0.52194950946E-02  0.10216474461E+01  0.10214044214E+01 0.  0.
     999903    2    3    3    0    0 -0.39101426152E-01  0.99355619773E-01 -0.75807448693E-01  0.13259302405E+00  0.20824986017E-01 0.  0.
         14    1    1    2    0    0  0.21258256095E-01  0.41660083872E-02  0.52194950946E-02  0.22282553873E-01  0.00000000000E+00 0. -1.
     999901    1    3    3    0    0  0.17843170058E-01 -0.10352162816E+00  0.70587953599E-01  0.88905442207E+00  0.88000000000E+00 0. -1.
        -11    1    4    4    0    0 -0.19300233087E-01  0.74626809330E-01 -0.54790990383E-01  0.94572582793E-01  0.51100000000E-03 0. -1.
         11    1    4    4    0    0 -0.19801193065E-01  0.24728810444E-01 -0.21016458311E-01  0.38020441261E-01  0.51100000000E-03 0.  1.
</event>
<event>
 8    1  0.1084146E+005  0.1043930E+01  0.7957747E-01            NaN
         13   -1    0    0    0    0  0.00000000000E+00  0.00000000000E+00  0.74505805969E-08  0.10566000000E+00  0.10566000000E+00 0. -1.
     999900   -1    0    0    0    0 -0.00000000000E+00 -0.00000000000E+00 -0.74505805969E-08  0.93827000000E+00  0.93827000000E+00 0.  1.
     999902    2    1    2    0    0  0.27646103849E-02 -0.20802804639E-01 -0.93759524692E-02  0.10209450433E+01  0.10206862756E+01 0.  0.
     999903    2    3    3    0    0  0.11090246441E+00 -0.69737739657E-01 -0.15822914481E-01  0.13295293370E+00  0.16229880188E-01 0.  0.
         14    1    1    2    0    0 -0.27646103849E-02  0.20802804639E-01  0.93759524692E-02  0.22984956735E-01  0.00000000000E+00 0. -1.
     999901    1    3    3    0    0 -0.10813785402E+00  0.48934935018E-01  0.64469620123E-02  0.88799210957E+00  0.88000000000E+00 0.  1.
        -11    1    4    4    0    0  0.67939402278E-01 -0.37000266674E-01 -0.29292934158E-02  0.77418499060E-01  0.51100000000E-03 0. -1.
         11    1    4    4    0    0  0.42963062131E-01 -0.32737472983E-01 -0.12893621066E-01  0.55534434635E-01  0.51100000000E-03 0.  1.
</event>
<event>
 8    1  0.1084146E+005  0.1043930E+01  0.7957747E-01            NaN
         13   -1    0    0    0    0  0.00000000000E+00  0.00000000000E+00  0.74505805969E-08  0.10566000000E+00  0.10566000000E+00 0. -1.
     999900   -1    0    0    0    0 -0.00000000000E+00 -0.00000000000E+00 -0.74505805969E-08  0.93827000000E+00  0.93827000000E+00 0.  1.
     999902    2    1    2    0    0  0.23717141142E-02  0.12283488118E-01 -0.18779873544E-01  0.10213647001E+01  0.10211153989E+01 0.  0.
     999903    2    3    3    0    0 -0.58618862615E-01  0.73471956066E-01 -0.93331819747E-01  0.13399675404E+00  0.20248509397E-01 0.  0.
         14    1    1    2    0    0 -0.23717141142E-02 -0.12283488118E-01  0.18779873544E-01  0.22565299876E-01  0.00000000000E+00 0. -1.
     999901    1    3    3    0    0  0.60990576729E-01 -0.61188467948E-01  0.74551946203E-01  0.88736794609E+00  0.88000000000E+00 0. -1.
        -11    1    4    4    0    0 -0.45342819855E-01  0.49061792463E-01 -0.54354591977E-01  0.86126149235E-01  0.51100000000E-03 0.  1.
         11    1    4    4    0    0 -0.13276042760E-01  0.24410163603E-01 -0.38977227769E-01  0.47870604801E-01  0.51100000000E-03 0. -1.
</event>
<event>
 8    1  0.1084146E+005  0.1043930E+01  0.7957747E-01            NaN
         13   -1    0    0    0    0  0.00000000000E+00  0.00000000000E+00  0.74505805969E-08  0.10566000000E+00  0.10566000000E+00 0. -1.
     999900   -1    0    0    0    0 -0.00000000000E+00 -0.00000000000E+00 -0.74505805969E-08  0.93827000000E+00  0.93827000000E+00 0. -1.
     999902    2    1    2    0    0 -0.62413434504E-02  0.11698411360E-01  0.20679166930E-01  0.10193650831E+01  0.10190690544E+01 0.  0.
     999903    2    3    3    0    0 -0.61870856300E-01 -0.95240409251E-01 -0.55093190898E-01  0.12792130796E+00  0.20733136141E-01 0.  0.
         14    1    1    2    0    0  0.62413434504E-02 -0.11698411360E-01 -0.20679166930E-01  0.24564916880E-01  0.00000000000E+00 0.  1.
     999901    1    3    3    0    0  0.55629512850E-01  0.10693882061E+00  0.75772357828E-01  0.89144377516E+00  0.88000000000E+00 0. -1.
        -11    1    4    4    0    0 -0.39897730420E-01 -0.68228406603E-01 -0.28191450333E-01  0.83916406937E-01  0.51100000000E-03 0. -1.
         11    1    4    4    0    0 -0.21973125881E-01 -0.27012002648E-01 -0.26901740565E-01  0.44004901027E-01  0.51100000000E-03 0.  1.
</event>
<event>
 8    1  0.1084146E+005  0.1043930E+01  0.7957747E-01            NaN
         13   -1    0    0    0    0  0.00000000000E+00  0.00000000000E+00  0.74505805969E-08  0.10566000000E+00  0.10566000000E+00 0. -1.
     999900   -1    0    0    0    0 -0.00000000000E+00 -0.00000000000E+00 -0.74505805969E-08  0.93827000000E+00  0.93827000000E+00 0.  1.
     999902    2    1    2    0    0  0.17272819590E-02  0.12045636788E-01  0.21115413203E-01  0.10195590841E+01  0.10192677687E+01 0.  0.
     999903    2    3    3    0    0  0.70918799451E-01  0.10821587534E+00 -0.79447221112E-02  0.13114438792E+00  0.19889195069E-01 0.  0.
         14    1    1    2    0    0 -0.17272819590E-02 -0.12045636788E-01 -0.21115413203E-01  0.24370915931E-01  0.00000000000E+00 0.  1.
     999901    1    3    3    0    0 -0.69191517492E-01 -0.96170238556E-01  0.29060135314E-01  0.88841469615E+00  0.88000000000E+00 0. -1.
        -11    1    4    4    0    0  0.28646436631E-01  0.60907875358E-01 -0.72104816445E-02  0.67695197605E-01  0.51100000000E-03 0.  1.
         11    1    4    4    0    0  0.42272362820E-01  0.47307999985E-01 -0.73424046665E-03  0.63449190310E-01  0.51100000000E-03 0. -1.
</event>
<event>
 7    1  0.1084146E+005  0.1043930E+01  0.7957747E-01            NaN
         13   -1    0    0    0    0  0.00000000000E+00  0.00000000000E+00  0.74505805969E-08  0.10566000000E+00  0.10566000000E+00 0.  1.
     999900   -1    0    0    0    0 -0.00000000000E+00 -0.00000000000E+00 -0.74505805969E-08  0.93827000000E+00  0.93827000000E+00 0.  1.
     999902    2    1    2    0    0  0.49457720106E-02  0.41192483394E-02 -0.25011535465E-01  0.10181035451E+01  0.10177759197E+01 0.  0.
         14    1    1    2    0    0 -0.49457720106E-02 -0.41192483394E-02  0.25011535465E-01  0.25826454924E-01  0.00000000000E+00 0.  1.
     999901    1    3    3    0    0 -0.10486402963E+00 -0.27839942905E-01  0.26749617009E-01  0.88706655283E+00  0.88000000000E+00 0.  1.
        -11    1    3    3    0    0  0.50675159873E-01 -0.12955200453E-02 -0.33546287105E-01  0.60788688914E-01  0.51100000000E-03 0. -1.
         11    1    3    3    0    0  0.59134641770E-01  0.33254711290E-01 -0.18214865369E-01  0.70248303336E-01  0.51100000000E-03 0.  1.
</event>
<event>
 8    1  0.1084146E+005  0.1043930E+01  0.7957747E-01            NaN
         13   -1    0    0    0    0  0.00000000000E+00  0.00000000000E+00  0.74505805969E-08  0.10566000000E+00  0.10566000000E+00 0. -1.
     999900   -1    0    0    0    0 -0.00000000000E+00 -0.00000000000E+00 -0.74505805969E-08  0.93827000000E+00  0.93827000000E+00 0.  1.
     999902    2    1    2    0    0 -0.72274279640E-02  0.21392740192E-01 -0.68397772726E-02  0.10203361957E+01  0.10200633729E+01 0.  0.
     999903    2    3    3    0    0 -0.53232713508E-03 -0.41609650995E-01  0.12035022095E+00  0.12893761969E+00  0.20225915567E-01 0.  0.
         14    1    1    2    0    0  0.72274279640E-02 -0.21392740192E-01  0.68397772726E-02  0.23593804294E-01  0.00000000000E+00 0.  1.
     999901    1    3    3    0    0 -0.66951008289E-02  0.63002391187E-01 -0.12718999823E+00  0.89139857601E+00  0.88000000000E+00 0.  1.
        -11    1    4    4    0    0  0.96608147324E-02 -0.16033573222E-01  0.49623182753E-01  0.53038930977E-01  0.51100000000E-03 0. -1.
         11    1    4    4    0    0 -0.10193141867E-01 -0.25576077772E-01  0.70727038199E-01  0.75898688716E-01  0.51100000000E-03 0.  1.
</event>
<event>
 8    1  0.1084146E+005  0.1043930E+01  0.7957747E-01            NaN
         13   -1    0    0    0    0  0.00000000000E+00  0.00000000000E+00  0.74505805969E-08  0.10566000000E+00  0.10566000000E+00 0.  1.
     999900   -1    0    0    0    0 -0.00000000000E+00 -0.00000000000E+00 -0.74505805969E-08  0.93827000000E+00  0.93827000000E+00 0.  1.
     999902    2    1    2    0    0  0.24543262303E-01  0.18186860164E-02  0.41969338283E-02  0.10189641514E+01  0.10186582588E+01 0.  0.
     999903    2    3    3    0    0  0.56318547170E-01  0.28777866724E-01 -0.11191075511E+00  0.13035993039E+00  0.21673716156E-01 0.  0.
         14    1    1    2    0    0 -0.24543262303E-01 -0.18186860164E-02 -0.41969338283E-02  0.24965848610E-01  0.00000000000E+00 0.  1.
     999901    1    3    3    0    0 -0.31775284868E-01 -0.26959180708E-01  0.11610768894E+00  0.88860422100E+00  0.88000000000E+00 0. -1.
        -11    1    4    4    0    0  0.27215371894E-01  0.19782921949E-01 -0.76959722247E-01  0.83994645290E-01  0.51100000000E-03 0. -1.
         11    1    4    4    0    0  0.29103175277E-01  0.89949447753E-02 -0.34951032866E-01  0.46365285096E-01  0.51100000000E-03 0.  1.
</event>
<event>
 8    1  0.1084146E+005  0.1043930E+01  0.7957747E-01            NaN
         13   -1    0    0    0    0  0.00000000000E+00  0.00000000000E+00  0.74505805969E-08  0.10566000000E+00  0.10566000000E+00 0.  1.
     999900   -1    0    0    0    0 -0.00000000000E+00 -0.00000000000E+00 -0.74505805969E-08  0.93827000000E+00  0.93827000000E+00 0.  1.
     999902    2    1    2    0    0  0.35321639463E-02 -0.18531134093E-01 -0.13914526890E-01  0.10204887293E+01  0.10202194634E+01 0.  0.
     999903    2    3    3    0    0  0.64440076077E-01 -0.10939232874E+00 -0.35649288222E-01  0.13344987430E+00  0.20464413227E-01 0.  0.
         14    1    1    2    0    0 -0.35321639463E-02  0.18531134093E-01  0.13914526890E-01  0.23441270689E-01  0.00000000000E+00 0.  1.
     999901    1    3    3    0    0 -0.60907912131E-01  0.90861194642E-01  0.21734761332E-01  0.88703885501E+00  0.88000000000E+00 0.  1.
        -11    1    4    4    0    0  0.35212848999E-01 -0.78656540251E-01 -0.23460411249E-01  0.89316561039E-01  0.51100000000E-03 0.  1.
         11    1    4    4    0    0  0.29227227078E-01 -0.30735788484E-01 -0.12188876973E-01  0.44133313259E-01  0.51100000000E-03 0. -1.
</event>
<event>
 8    1  0.1084146E+005  0.1043930E+01  0.7957747E-01            NaN
         13   -1    0    0    0    0  0.00000000000E+00  0.00000000000E+00  0.74505805969E-08  0.10566000000E+00  0.10566000000E+00 0.  1.
     999900   -1    0    0    0    0 -0.00000000000E+00 -0.00000000000E+00 -0.74505805969E-08  0.93827000000E+00  0.93827000000E+00 0. -1.
     999902    2    1    2    0    0  0.40793548958E-02 -0.21311035670E-01  0.10150530102E-01  0.10199751542E+01  0.10196938170E+01 0.  0.
     999903    2    3    3    0    0 -0.31487300323E-01 -0.11775256961E+00 -0.48290937425E-01  0.13206673458E+00  0.15889934394E-01 0.  0.
         14    1    1    2    0    0 -0.40793548958E-02  0.21311035670E-01 -0.10150530102E-01  0.23954845836E-01  0.00000000000E+00 0. -1.
     999901    1    3    3    0    0  0.35566655219E-01  0.96441533941E-01  0.58441467528E-01  0.88790841958E+00  0.88000000000E+00 0. -1.
        -11    1    4    4    0    0 -0.12594396833E-01 -0.76647935044E-01 -0.30136550864E-01  0.83318650956E-01  0.51100000000E-03 0.  1.
         11    1    4    4    0    0 -0.18892903490E-01 -0.41104634566E-01 -0.18154386561E-01  0.48748083629E-01  0.51100000000E-03 0. -1.
</event>
<event>
 8    1  0.1084146E+005  0.1043930E+01  0.7957747E-01            NaN
         13   -1    0    0    0    0  0.00000000000E+00  0.00000000000E+00  0.74505805969E-08  0.10566000000E+00  0.10566000000E+00 0. -1.
     999900   -1    0    0    0    0 -0.00000000000E+00 -0.00000000000E+00 -0.74505805969E-08  0.93827000000E+00  0.93827000000E+00 0.  1.
     999902    2    1    2    0    0  0.12706826069E-03  0.95610772777E-02 -0.22495925359E-01  0.10194862482E+01  0.10191931678E+01 0.  0.
     999903    2    3    3    0    0  0.79238757719E-02 -0.16352797360E-01  0.12397276570E+00  0.12696991973E+00  0.20540498807E-01 0.  0.
         14    1    1    2    0    0 -0.12706826069E-03 -0.95610772777E-02  0.22495925359E-01  0.24443751816E-01  0.00000000000E+00 0. -1.
     999901    1    3    3    0    0 -0.77968075112E-02  0.25913874638E-01 -0.14646869106E+00  0.89251632846E+00  0.88000000000E+00 0.  1.
        -11    1    4    4    0    0  0.67593513056E-02 -0.21117628714E-01  0.93073118378E-01  0.95679201283E-01  0.51100000000E-03 0.  1.
         11    1    4    4    0    0  0.11645244663E-02  0.47648313540E-02  0.30899647321E-01  0.31290718442E-01  0.51100000000E-03 0. -1.
</event>
<event>
 8    1  0.1084146E+005  0.1043930E+01  0.7957747E-01            NaN
         13   -1    0    0    0    0  0.00000000000E+00  0.00000000000E+00  0.74505805969E-08  0.10566000000E+00  0.10566000000E+00 0.  1.
     999900   -1    0    0    0    0 -0.00000000000E+00 -0.00000000000E+00 -0.74505805969E-08  0.93827000000E+00  0.93827000000E+00 0.  1.
     999902    2    1    2    0    0 -0.15123659576E-01 -0.71448432595E-02  0.21040448458E-01  0.10170511173E+01  0.10166958743E+01 0.  0.
     999903    2    3    3    0    0  0.90746231483E-01  0.44640812069E-01  0.74616453481E-01  0.12757904002E+00  0.21934349614E-01 0.  0.
         14    1    1    2    0    0  0.15123659576E-01  0.71448432595E-02 -0.21040448458E-01  0.26878882705E-01  0.00000000000E+00 0. -1.
     999901    1    3    3    0    0 -0.10586989106E+00 -0.51785655328E-01 -0.53576005023E-01  0.88947207727E+00  0.88000000000E+00 0.  1.
        -11    1    4    4    0    0  0.73629058583E-01  0.41250005647E-01  0.69656710795E-01  0.10943089012E+00  0.51100000000E-03 0. -1.
         11    1    4    4    0    0  0.17117172900E-01  0.33908064221E-02  0.49597426858E-02  0.18148149900E-01  0.51100000000E-03 0.  1.
</event>
<event>
 8    1  0.1084146E+005  0.1043930E+01  0.7957747E-01            NaN
         13   -1    0    0    0    0  0.00000000000E+00  0.00000000000E+00  0.74505805969E-08  0.10566000000E+00  0.10566000000E+00 0.  1.
     999900   -1    0    0    0    0 -0.00000000000E+00 -0.00000000000E+00 -0.74505805969E-08  0.93827000000E+00  0.93827000000E+00 0. -1.
     999902    2    1    2    0    0  0.22108374350E-01 -0.91266626803E-02 -0.83831242065E-02  0.10185853169E+01  0.10182699519E+01 0.  0.
     999903    2    3    3    0    0  0.36486927172E-01  0.10027220723E+00  0.68641526399E-01  0.12835632824E+00  0.19439044606E-01 0.  0.
         14    1    1    2    0    0 -0.22108374350E-01  0.91266626803E-02  0.83831242065E-02  0.25344683062E-01  0.00000000000E+00 0.  1.
     999901    1    3    3    0    0 -0.14378552822E-01 -0.10939886991E+00 -0.77024650606E-01  0.89022898870E+00  0.88000000000E+00 0. -1.
        -11    1    4    4    0    0  0.21106566028E-02  0.23512136236E-01  0.90939776483E-02  0.25302904421E-01  0.51100000000E-03 0. -1.
         11    1    4    4    0    0  0.34376270569E-01  0.76760070994E-01  0.59547548751E-01  0.10305342382E+00  0.51100000000E-03 0.  1.
</event>
<event>
 8    1  0.1084146E+005  0.1043930E+01  0.7957747E-01            NaN
         13   -1    0    0    0    0  0.00000000000E+00  0.00000000000E+00  0.74505805969E-08  0.10566000000E+00  0.10566000000E+00 0.  1.
     999900   -1    0    0    0    0 -0.00000000000E+00 -0.00000000000E+00 -0.74505805969E-08  0.93827000000E+00  0.93827000000E+00 0.  1.
     999902    2    1    2    0    0  0.18894374003E-01 -0.12579619069E-01 -0.56865182927E-02  0.10205295582E+01  0.10202612403E+01 0.  0.
     999903    2    3    3    0    0 -0.10267591993E+00 -0.40817881410E-01 -0.65190668795E-01  0.12973357723E+00  0.19301134359E-01 0.  0.
         14    1    1    2    0    0 -0.18894374003E-01  0.12579619069E-01  0.56865182927E-02  0.23400441774E-01  0.00000000000E+00 0.  1.
     999901    1    3    3    0    0  0.12157029393E+00  0.28238262341E-01  0.59504150502E-01  0.89079598099E+00  0.88000000000E+00 0. -1.
        -11    1    4    4    0    0 -0.10309950663E+00 -0.39686364620E-01 -0.65434084669E-01  0.12839936277E+00  0.51100000000E-03 0.  1.
         11    1    4    4    0    0  0.42358669542E-03 -0.11315167907E-02  0.24341587488E-03  0.13342144597E-02  0.51100000000E-03 0. -1.
</event>
<event>
 8    1  0.1084146E+005  0.1043930E+01  0.7957747E-01            NaN
         13   -1    0    0    0    0  0.00000000000E+00  0.00000000000E+00  0.74505805969E-08  0.10566000000E+00  0.10566000000E+00 0. -1.
     999900   -1    0    0    0    0 -0.00000000000E+00 -0.00000000000E+00 -0.74505805969E-08  0.93827000000E+00  0.93827000000E+00 0. -1.
     999902    2    1    2    0    0  0.61042639640E-02 -0.14003581873E-01  0.17582847594E-01  0.10206379655E+01  0.10203721564E+01 0.  0.
     999903    2    3    3    0    0 -0.26073502450E-01 -0.59022916025E-01 -0.11081662747E+00  0.12960004578E+00  0.18770050482E-01 0.  0.
         14    1    1    2    0    0 -0.61042639640E-02  0.14003581873E-01 -0.17582847594E-01  0.23292034547E-01  0.00000000000E+00 0.  1.
     999901    1    3    3    0    0  0.32177766414E-01  0.45019334153E-01  0.12839947507E+00  0.89103791967E+00  0.88000000000E+00 0.  1.
        -11    1    4    4    0    0 -0.27706850774E-01 -0.43572166537E-01 -0.83931128173E-01  0.98543892119E-01  0.51100000000E-03 0. -1.
         11    1    4    4    0    0  0.16333483244E-02 -0.15450749489E-01 -0.26885499301E-01  0.31056153660E-01  0.51100000000E-03 0.  1.
</event>
<event>
 8    1  0.1084146E+005  0.1043930E+01  0.7957747E-01            NaN
         13   -1    0    0    0    0  0.00000000000E+00  0.00000000000E+00  0.74505805969E-08  0.10566000000E+00  0.10566000000E+00 0. -1.
     999900   -1    0    0    0    0 -0.00000000000E+00 -0.00000000000E+00 -0.74505805969E-08  0.93827000000E+00  0.93827000000E+00 0. -1.
     999902    2    1    2    0    0  0.14936310408E-01  0.16867333936E-01  0.73327777676E-02  0.10202367530E+01  0.10199615984E+01 0.  0.
     999903    2    3    3    0    0  0.44034014711E-01 -0.11301253700E+00  0.41222513277E-01  0.12958307653E+00  0.19535868321E-01 0.  0.
         14    1    1    2    0    0 -0.14936310408E-01 -0.16867333936E-01 -0.73327777676E-02  0.23693246981E-01  0.00000000000E+00 0.  1.
     999901    1    3    3    0    0 -0.29097704303E-01  0.12987987094E+00 -0.33889735509E-01  0.89065367649E+00  0.88000000000E+00 0. -1.
        -11    1    4    4    0    0  0.33748167913E-01 -0.71918775818E-01  0.18752078310E-01  0.81628124532E-01  0.51100000000E-03 0.  1.
         11    1    4    4    0    0  0.10285846797E-01 -0.41093761184E-01  0.22470434966E-01  0.47954951999E-01  0.51100000000E-03 0. -1.
</event>
<event>
 7    1  0.1084146E+005  0.1043930E+01  0.7957747E-01            NaN
         13   -1    0    0    0    0  0.00000000000E+00  0.00000000000E+00  0.74505805969E-08  0.10566000000E+00  0.10566000000E+00 0.  1.
     999900   -1    0    0    0    0 -0.00000000000E+00 -0.00000000000E+00 -0.74505805969E-08  0.93827000000E+00  0.93827000000E+00 0.  1.
     999903    2    1    2    0    0 -0.36581304528E-01 -0.10120006488E+00  0.13585976069E-01  0.11051448080E+00  0.21194969892E-01 0.  0.
         14    1    1    2    0    0 -0.20324225366E-01 -0.35372076002E-01 -0.42462407340E-02  0.41015709890E-01  0.00000000000E+00 0. -1.
     999901    1    1    2    0    0  0.56905529894E-01  0.13657214088E+00 -0.93397353353E-02  0.89239980931E+00  0.88000000000E+00 0. -1.
        -11    1    3    3    0    0 -0.22390739975E-01 -0.43067653613E-01 -0.23088988548E-02  0.48597943982E-01  0.51100000000E-03 0.  1.
         11    1    3    3    0    0 -0.14190564552E-01 -0.58132411266E-01  0.15894874924E-01  0.61916536820E-01  0.51100000000E-03 0. -1.
</event>
<event>
 8    1  0.1084146E+005  0.1043930E+01  0.7957747E-01            NaN
         13   -1    0    0    0    0  0.00000000000E+00  0.00000000000E+00  0.74505805969E-08  0.10566000000E+00  0.10566000000E+00 0. -1.
     999900   -1    0    0    0    0 -0.00000000000E+00 -0.00000000000E+00 -0.74505805969E-08  0.93827000000E+00  0.93827000000E+00 0. -1.
     999902    2    1    2    0    0 -0.42357632136E-02 -0.15734415605E-01 -0.20087079131E-01  0.10180648831E+01  0.10177362634E+01 0.  0.
     999903    2    3    3    0    0  0.31294052444E-01 -0.41427075893E-02 -0.12534939951E+00  0.13100406692E+00  0.21286471018E-01 0.  0.
         14    1    1    2    0    0  0.42357632136E-02  0.15734415605E-01  0.20087079131E-01  0.25865116904E-01  0.00000000000E+00 0.  1.
     999901    1    3    3    0    0 -0.35529815657E-01 -0.11591708016E-01  0.10526232038E+00  0.88706081617E+00  0.88000000000E+00 0.  1.
        -11    1    4    4    0    0  0.11591249608E-03 -0.64463539674E-02 -0.28827546531E-01  0.29544161440E-01  0.51100000000E-03 0.  1.
         11    1    4    4    0    0  0.31178139948E-01  0.23036463781E-02 -0.96521852980E-01  0.10145990548E+00  0.51100000000E-03 0. -1.
</event>
<event>
 8    1  0.1084146E+005  0.1043930E+01  0.7957747E-01            NaN
         13   -1    0    0    0    0  0.00000000000E+00  0.00000000000E+00  0.74505805969E-08  0.10566000000E+00  0.10566000000E+00 0.  1.
     999900   -1    0    0    0    0 -0.00000000000E+00 -0.00000000000E+00 -0.74505805969E-08  0.93827000000E+00  0.93827000000E+00 0.  1.
     999902    2    1    2    0    0  0.19415914275E-02  0.21868414491E-01  0.84212712484E-02  0.10204158524E+01  0.10201448900E+01 0.  0.
     999903    2    3    3    0    0  0.33143896587E-01 -0.12227423847E+00  0.10272552580E-02  0.12811245120E+00  0.19032541207E-01 0.  0.
         14    1    1    2    0    0 -0.19415914275E-02 -0.21868414491E-01 -0.84212712484E-02  0.23514147636E-01  0.00000000000E+00 0. -1.
     999901    1    3    3    0    0 -0.31202305160E-01  0.14414265296E+00  0.73940159904E-02  0.89230340116E+00  0.88000000000E+00 0.  1.
        -11    1    4    4    0    0  0.12989255409E-01 -0.71519999118E-01  0.76820210766E-02  0.73096549841E-01  0.51100000000E-03 0. -1.
         11    1    4    4    0    0  0.20154641178E-01 -0.50754239355E-01 -0.66547658186E-02  0.55015901362E-01  0.51100000000E-03 0.  1.
</event>
<event>
 7    1  0.1293020E+005  0.1043930E+01  0.7957747E-01            NaN
         13   -1    0    0    0    0  0.00000000000E+00  0.00000000000E+00  0.74505805969E-08  0.10566000000E+00  0.10566000000E+00 0.  1.
     999900   -1    0    0    0    0 -0.00000000000E+00 -0.00000000000E+00 -0.74505805969E-08  0.93827000000E+00  0.93827000000E+00 0. -1.
     999903    2    1    2    0    0  0.48478620282E-01  0.16417980440E-01 -0.10673927578E+00  0.12001155365E+00  0.19742677371E-01 0.  0.
         14    1    1    2    0    0 -0.23205748506E-01  0.14131820923E-01  0.28785714566E-01  0.39583234954E-01  0.00000000000E+00 0.  1.
     999901    1    1    2    0    0 -0.25272871776E-01 -0.30549801363E-01  0.77953561211E-01  0.88433521140E+00  0.88000000000E+00 0. -1.
        -11    1    3    3    0    0  0.28527456178E-01  0.74180475629E-02 -0.39437480321E-01  0.49238391126E-01  0.51100000000E-03 0.  1.
         11    1    3    3    0    0  0.19951164104E-01  0.89999328774E-02 -0.67301795456E-01  0.70773162523E-01  0.51100000000E-03 0. -1.
</event>
<event>
 8    1  0.1084146E+005  0.1043930E+01  0.7957747E-01            NaN
         13   -1    0    0    0    0  0.00000000000E+00  0.00000000000E+00  0.74505805969E-08  0.10566000000E+00  0.10566000000E+00 0. -1.
     999900   -1    0    0    0    0 -0.00000000000E+00 -0.00000000000E+00 -0.74505805969E-08  0.93827000000E+00  0.93827000000E+00 0.  1.
     999902    2    1    2    0    0 -0.48640305614E-02 -0.22317510837E-01  0.53816246451E-02  0.10204631731E+01  0.10201933129E+01 0.  0.
     999903    2    3    3    0    0  0.12028563371E+00  0.42027574217E-01 -0.82383607943E-02  0.12917857628E+00  0.19603145365E-01 0.  0.
         14    1    1    2    0    0  0.48640305614E-02  0.22317510837E-01 -0.53816246451E-02  0.23466826950E-01  0.00000000000E+00 0.  1.
     999901    1    3    3    0    0 -0.12514966428E+00 -0.64345085054E-01  0.13619985439E-01  0.89128459677E+00  0.88000000000E+00 0. -1.
        -11    1    4    4    0    0  0.10798700680E+00  0.42785148799E-01 -0.43085292782E-02  0.11623505126E+00  0.51100000000E-03 0.  1.
         11    1    4    4    0    0  0.12298626911E-01 -0.75757458170E-03 -0.39298315160E-02  0.12943525017E-01  0.51100000000E-03 0. -1.
</event>
<event>
 8    1  0.1084146E+005  0.1043930E+01  0.7957747E-01            NaN
         13   -1    0    0    0    0  0.00000000000E+00  0.00000000000E+00  0.74505805969E-08  0.10566000000E+00  0.10566000000E+00 0.  1.
     999900   -1    0    0    0    0 -0.00000000000E+00 -0.00000000000E+00 -0.74505805969E-08  0.93827000000E+00  0.93827000000E+00 0. -1.
     999902    2    1    2    0    0 -0.51165566011E-02 -0.20691244050E-01 -0.59308176988E-02  0.10218057750E+01  0.10215662292E+01 0.  0.
     999903    2    3    3    0    0  0.60481515681E-01 -0.11773609939E+00 -0.83777641153E-02  0.13404071682E+00  0.19414530556E-01 0.  0.
         14    1    1    2    0    0  0.51165566011E-02  0.20691244050E-01  0.59308176988E-02  0.22124224966E-01  0.00000000000E+00 0.  1.
     999901    1    3    3    0    0 -0.65598072283E-01  0.97044855337E-01  0.24469464165E-02  0.88776505821E+00  0.88000000000E+00 0.  1.
        -11    1    4    4    0    0  0.26959001069E-01 -0.56828933459E-01  0.55106875725E-02  0.63142253802E-01  0.51100000000E-03 0.  1.
         11    1    4    4    0    0  0.33522514612E-01 -0.60907165928E-01 -0.13888451688E-01  0.70898463020E-01  0.51100000000E-03 0. -1.
</event>
<event>
 8    1  0.1084146E+005  0.1043930E+01  0.7957747E-01            NaN
         13   -1    0    0    0    0  0.00000000000E+00  0.00000000000E+00  0.74505805969E-08  0.10566000000E+00  0.10566000000E+00 0.  1.
     999900   -1    0    0    0    0 -0.00000000000E+00 -0.00000000000E+00 -0.74505805969E-08  0.93827000000E+00  0.93827000000E+00 0.  1.
     999902    2    1    2    0    0  0.13457070891E-02 -0.10708513029E-01 -0.20294578085E-01  0.10209440678E+01  0.10206852779E+01 0.  0.
     999903    2    3    3    0    0 -0.84293502471E-01 -0.43135654478E-01 -0.91776969469E-01  0.13330938733E+00  0.19552528722E-01 0.  0.
         14    1    1    2    0    0 -0.13457070891E-02  0.10708513029E-01  0.20294578085E-01  0.22985932187E-01  0.00000000000E+00 0.  1.
     999901    1    3    3    0    0  0.85639209560E-01  0.32427141449E-01  0.71482391384E-01  0.88763468048E+00  0.88000000000E+00 0. -1.
        -11    1    4    4    0    0 -0.85498588921E-02 -0.10874540037E-01 -0.18406801244E-01  0.23031004345E-01  0.51100000000E-03 0. -1.
         11    1    4    4    0    0 -0.75743643579E-01 -0.32261114442E-01 -0.73370168224E-01  0.11027838299E+00  0.51100000000E-03 0.  1.
</event>
<event>
 8    1  0.1084146E+005  0.1043930E+01  0.7957747E-01            NaN
         13   -1    0    0    0    0  0.00000000000E+00  0.00000000000E+00  0.74505805969E-08  0.10566000000E+00  0.10566000000E+00 0.  1.
     999900   -1    0    0    0    0 -0.00000000000E+00 -0.00000000000E+00 -0.74505805969E-08  0.93827000000E+00  0.93827000000E+00 0.  1.
     999902    2    1    2    0    0 -0.12274393554E-02 -0.12706915626E-01 -0.19616169814E-01  0.10205255895E+01  0.10202571795E+01 0.  0.
     999903    2    3    3    0    0 -0.31239675370E-01  0.16024577584E-01 -0.12697927766E+00  0.13302738110E+00  0.18434824689E-01 0.  0.
         14    1    1    2    0    0  0.12274393554E-02  0.12706915626E-01  0.19616169814E-01  0.23404410488E-01  0.00000000000E+00 0.  1.
     999901    1    3    3    0    0  0.30012236015E-01 -0.28731493210E-01  0.10736310785E+00  0.88749820842E+00  0.88000000000E+00 0. -1.
        -11    1    4    4    0    0 -0.96328555033E-02  0.14956752458E-01 -0.64312178669E-01  0.66729407276E-01  0.51100000000E-03 0. -1.
         11    1    4    4    0    0 -0.21606819867E-01  0.10678251262E-02 -0.62667098995E-01  0.66297973821E-01  0.51100000000E-03 0.  1.
</event>
<event>
 8    1  0.1084146E+005  0.1043930E+01  0.7957747E-01            NaN
         13   -1    0    0    0    0  0.00000000000E+00  0.00000000000E+00  0.74505805969E-08  0.10566000000E+00  0.10566000000E+00 0.  1.
     999900   -1    0    0    0    0 -0.00000000000E+00 -0.00000000000E+00 -0.74505805969E-08  0.93827000000E+00  0.93827000000E+00 0. -1.
     999902    2    1    2    0    0  0.18515011060E-01  0.12831573501E-01 -0.79586378900E-02  0.10200386871E+01  0.10197588580E+01 0.  0.
     999903    2    3    3    0    0 -0.10459025369E+00  0.22026975197E-01 -0.69944591471E-01  0.12926277814E+00  0.19806845578E-01 0.  0.
         14    1    1    2    0    0 -0.18515011060E-01 -0.12831573501E-01  0.79586378900E-02  0.23891312859E-01  0.00000000000E+00 0.  1.
     999901    1    3    3    0    0  0.12310526475E+00 -0.91954016953E-02  0.61985953581E-01  0.89077590900E+00  0.88000000000E+00 0. -1.
        -11    1    4    4    0    0 -0.80159476466E-01  0.13333478182E-01 -0.43298602595E-01  0.92077974649E-01  0.51100000000E-03 0. -1.
         11    1    4    4    0    0 -0.24430777226E-01  0.86934970149E-02 -0.26645988876E-01  0.37184803487E-01  0.51100000000E-03 0.  1.
</event>
<event>
 8    1  0.1084146E+005  0.1043930E+01  0.7957747E-01            NaN
         13   -1    0    0    0    0  0.00000000000E+00  0.00000000000E+00  0.74505805969E-08  0.10566000000E+00  0.10566000000E+00 0.  1.
     999900   -1    0    0    0    0 -0.00000000000E+00 -0.00000000000E+00 -0.74505805969E-08  0.93827000000E+00  0.93827000000E+00 0.  1.
     999902    2    1    2    0    0 -0.69723155382E-02 -0.16323062371E-01 -0.16347328180E-01  0.10197992999E+01  0.10195137671E+01 0.  0.
     999903    2    3    3    0    0  0.77776512884E-01 -0.10126541605E+00  0.24324275216E-01  0.13072576711E+00  0.13917089413E-01 0.  0.
         14    1    1    2    0    0  0.69723155382E-02  0.16323062371E-01  0.16347328180E-01  0.24130700110E-01  0.00000000000E+00 0.  1.
     999901    1    3    3    0    0 -0.84748828422E-01  0.84942353678E-01 -0.40671603396E-01  0.88907353278E+00  0.88000000000E+00 0. -1.
        -11    1    4    4    0    0  0.72797581078E-01 -0.87675644671E-01  0.21405884647E-01  0.11595248811E+00  0.51100000000E-03 0.  1.
         11    1    4    4    0    0  0.49789318058E-02 -0.13589771378E-01  0.29183905684E-02  0.14773279005E-01  0.51100000000E-03 0. -1.
</event>
<event>
 8    1  0.1084146E+005  0.1043930E+01  0.7957747E-01            NaN
         13   -1    0    0    0    0  0.00000000000E+00  0.00000000000E+00  0.74505805969E-08  0.10566000000E+00  0.10566000000E+00 0. -1.
     999900   -1    0    0    0    0 -0.00000000000E+00 -0.00000000000E+00 -0.74505805969E-08  0.93827000000E+00  0.93827000000E+00 0. -1.
     999902    2    1    2    0    0 -0.15508288040E-01  0.23268341659E-01 -0.53108378501E-02  0.10154672573E+01  0.10150682849E+01 0.  0.
     999903    2    3    3    0    0 -0.12407942476E+00  0.22425039142E-01  0.14865220605E-01  0.12856507771E+00  0.20234089855E-01 0.  0.
         14    1    1    2    0    0  0.15508288040E-01 -0.23268341659E-01  0.53108378501E-02  0.28462742667E-01  0.00000000000E+00 0.  1.
     999901    1    3    3    0    0  0.10857113672E+00  0.84330251632E-03 -0.20176058455E-01  0.88690217962E+00  0.88000000000E+00 0. -1.
        -11    1    4    4    0    0 -0.53276280207E-01 -0.30977044029E-03  0.42997596487E-02  0.53452848796E-01  0.51100000000E-03 0.  1.
         11    1    4    4    0    0 -0.70803144556E-01  0.22734809583E-01  0.10565460956E-01  0.75112228911E-01  0.51100000000E-03 0. -1.
</event>
<event>
 8    1  0.1084146E+005  0.1043930E+01  0.7957747E-01            NaN
         13   -1    0    0    0    0  0.00000000000E+00  0.00000000000E+00  0.74505805969E-08  0.10566000000E+00  0.10566000000E+00 0.  1.
     999900   -1    0    0    0    0 -0.00000000000E+00 -0.00000000000E+00 -0.74505805969E-08  0.93827000000E+00  0.93827000000E+00 0. -1.
     999902    2    1    2    0    0 -0.16629888323E-01  0.96692087126E-02  0.38142786863E-02  0.10243188933E+01  0.10241311438E+01 0.  0.
     999903    2    3    3    0    0 -0.13089401297E+00  0.62607970033E-03  0.32964347471E-01  0.13640685103E+00  0.19660778083E-01 0.  0.
         14    1    1    2    0    0  0.16629888323E-01 -0.96692087126E-02 -0.38142786863E-02  0.19611106666E-01  0.00000000000E+00 0. -1.
     999901    1    3    3    0    0  0.11426412465E+00  0.90431290123E-02 -0.29150068785E-01  0.88791204231E+00  0.88000000000E+00 0. -1.
        -11    1    4    4    0    0 -0.30451223698E-01 -0.67193357332E-02  0.30021562730E-02  0.31332101122E-01  0.51100000000E-03 0. -1.
         11    1    4    4    0    0 -0.10044278927E+00  0.73454154335E-02  0.29962191198E-01  0.10507474991E+00  0.51100000000E-03 0.  1.
</event>
<event>
 8    1  0.1084146E+005  0.1043930E+01  0.7957747E-01            NaN
         13   -1    0    0    0    0  0.00000000000E+00  0.00000000000E+00  0.74505805969E-08  0.10566000000E+00  0.10566000000E+00 0.  1.
     999900   -1    0    0    0    0 -0.00000000000E+00 -0.00000000000E+00 -0.74505805969E-08  0.93827000000E+00  0.93827000000E+00 0. -1.
     999902    2    1    2    0    0  0.19787051374E-01  0.10936631784E-01  0.58541428298E-02  0.10205760216E+01  0.10203087805E+01 0.  0.
     999903    2    3    3    0    0 -0.23313233055E-02 -0.12772864757E+00  0.42347643618E-03  0.12942689028E+00  0.20762902368E-01 0.  0.
         14    1    1    2    0    0 -0.19787051374E-01 -0.10936631784E-01 -0.58541428298E-02  0.23353978358E-01  0.00000000000E+00 0. -1.
     999901    1    3    3    0    0  0.22118374680E-01  0.13866527936E+00  0.54306663936E-02  0.89114913137E+00  0.88000000000E+00 0. -1.
        -11    1    4    4    0    0  0.30942144603E-02 -0.23185953015E-01  0.73197485424E-02  0.24515350703E-01  0.51100000000E-03 0.  1.
         11    1    4    4    0    0 -0.54255377658E-02 -0.10454269456E+00 -0.68962721062E-02  0.10491153957E+00  0.51100000000E-03 0. -1.
</event>
<event>
 8    1  0.1084146E+005  0.1043930E+01  0.7957747E-01            NaN
         13   -1    0    0    0    0  0.00000000000E+00  0.00000000000E+00  0.74505805969E-08  0.10566000000E+00  0.10566000000E+00 0. -1.
     999900   -1    0    0    0    0 -0.00000000000E+00 -0.00000000000E+00 -0.74505805969E-08  0.93827000000E+00  0.93827000000E+00 0. -1.
     999902    2    1    2    0    0 -0.95995063504E-02 -0.72255856623E-02 -0.21149431409E-01  0.10196059777E+01  0.10193157959E+01 0.  0.
     999903    2    3    3    0    0  0.27169803237E-01  0.71202156943E-01  0.99873007981E-01  0.12710985798E+00  0.19348201759E-01 0.  0.
         14    1    1    2    0    0  0.95995063504E-02  0.72255856623E-02  0.21149431409E-01  0.24324022267E-01  0.00000000000E+00 0. -1.
     999901    1    3    3    0    0 -0.36769309588E-01 -0.78427742605E-01 -0.12102243939E+00  0.89249611975E+00  0.88000000000E+00 0. -1.
        -11    1    4    4    0    0  0.18268372756E-01  0.32136476438E-01  0.60704966247E-01  0.71076301318E-01  0.51100000000E-03 0. -1.
         11    1    4    4    0    0  0.89014304813E-02  0.39065680505E-01  0.39168041734E-01  0.56033556662E-01  0.51100000000E-03 0.  1.
</event>
<event>
 8    1  0.1084146E+005  0.1043930E+01  0.7957747E-01            NaN
         13   -1    0    0    0    0  0.00000000000E+00  0.00000000000E+00  0.74505805969E-08  0.10566000000E+00  0.10566000000E+00 0. -1.
     999900   -1    0    0    0    0 -0.00000000000E+00 -0.00000000000E+00 -0.74505805969E-08  0.93827000000E+00  0.93827000000E+00 0. -1.
     999902    2    1    2    0    0 -0.37598504444E-02  0.23064849958E-01 -0.91810424640E-03  0.10205426809E+01  0.10202746674E+01 0.  0.
     999903    2    3    3    0    0  0.81068345142E-01 -0.56563374181E-01 -0.80917521674E-01  0.12928717117E+00  0.19900639007E-01 0.  0.
         14    1    1    2    0    0  0.37598504444E-02 -0.23064849958E-01  0.91810424640E-03  0.23387319093E-01  0.00000000000E+00 0. -1.
     999901    1    3    3    0    0 -0.84828195586E-01  0.79628224139E-01  0.79999417427E-01  0.89125550974E+00  0.88000000000E+00 0.  1.
        -11    1    4    4    0    0  0.30611808326E-01 -0.10211330687E-01 -0.27677679182E-01  0.42516692361E-01  0.51100000000E-03 0.  1.
         11    1    4    4    0    0  0.50456536816E-01 -0.46352043493E-01 -0.53239842491E-01  0.86770478810E-01  0.51100000000E-03 0. -1.
</event>
<event>
 8    1  0.1084146E+005  0.1043930E+01  0.7957747E-01            NaN
         13   -1    0    0    0    0  0.00000000000E+00  0.00000000000E+00  0.74505805969E-08  0.10566000000E+00  0.10566000000E+00 0.  1.
     999900   -1    0    0    0    0 -0.00000000000E+00 -0.00000000000E+00 -0.74505805969E-08  0.93827000000E+00  0.93827000000E+00 0. -1.
     999902    2    1    2    0    0 -0.11624839036E-01  0.19366665388E-01 -0.56519353204E-02  0.10206459071E+01  0.10203802814E+01 0.  0.
     999903    2    3    3    0    0  0.10620651312E+00  0.76586655030E-02  0.69975968312E-01  0.12950008027E+00  0.23133440312E-01 0.  0.
         14    1    1    2    0    0  0.11624839036E-01 -0.19366665388E-01  0.56519353204E-02  0.23284092933E-01  0.00000000000E+00 0.  1.
     999901    1    3    3    0    0 -0.11783135216E+00  0.11707999885E-01 -0.75627903633E-01  0.89114582680E+00  0.88000000000E+00 0. -1.
        -11    1    4    4    0    0  0.32832751263E-01  0.13138832404E-01  0.23838722280E-01  0.42651662024E-01  0.51100000000E-03 0. -1.
         11    1    4    4    0    0  0.73373761862E-01 -0.54801669014E-02  0.46137246032E-01  0.86848418244E-01  0.51100000000E-03 0.  1.
</event>
<event>
 8    1  0.1084146E+005  0.1043930E+01  0.7957747E-01            NaN
         13   -1    0    0    0    0  0.00000000000E+00  0.00000000000E+00  0.74505805969E-08  0.10566000000E+00  0.10566000000E+00 0. -1.
     999900   -1    0    0    0    0 -0.00000000000E+00 -0.00000000000E+00 -0.74505805969E-08  0.93827000000E+00  0.93827000000E+00 0. -1.
     999902    2    1    2    0    0 -0.20811506041E-01  0.10875361412E-01 -0.27564238655E-02  0.10202870276E+01  0.10200130532E+01 0.  0.
     999903    2    3    3    0    0  0.45133835325E-01  0.95114990697E-01  0.74512669009E-01  0.13044680833E+00  0.19501472097E-01 0.  0.
         14    1    1    2    0    0  0.20811506041E-01 -0.10875361412E-01  0.27564238655E-02  0.23642972361E-01  0.00000000000E+00 0. -1.
     999901    1    3    3    0    0 -0.65945341366E-01 -0.84239629285E-01 -0.77269092874E-01  0.88984021931E+00  0.88000000000E+00 0. -1.
        -11    1    4    4    0    0 -0.59465759744E-03  0.10583036503E-01  0.44329782454E-02  0.11500725908E-01  0.51100000000E-03 0.  1.
         11    1    4    4    0    0  0.45728492922E-01  0.84531954193E-01  0.70079690763E-01  0.11894608242E+00  0.51100000000E-03 0. -1.
</event>
<event>
 8    1  0.1084146E+005  0.1043930E+01  0.7957747E-01            NaN
         13   -1    0    0    0    0  0.00000000000E+00  0.00000000000E+00  0.74505805969E-08  0.10566000000E+00  0.10566000000E+00 0.  1.
     999900   -1    0    0    0    0 -0.00000000000E+00 -0.00000000000E+00 -0.74505805969E-08  0.93827000000E+00  0.93827000000E+00 0.  1.
     999902    2    1    2    0    0 -0.12797224188E-01  0.13972224984E-01  0.10102233214E-01  0.10224579919E+01  0.10222325068E+01 0.  0.
     999903    2    3    3    0    0  0.14117169663E-01  0.95801751201E-01 -0.88464168757E-01  0.13277501935E+00  0.20640411777E-01 0.  0.
         14    1    1    2    0    0  0.12797224188E-01 -0.13972224984E-01 -0.10102233214E-01  0.21472008146E-01  0.00000000000E+00 0. -1.
     999901    1    3    3    0    0 -0.26914393850E-01 -0.81829526217E-01  0.98566401971E-01  0.88968297250E+00  0.88000000000E+00 0. -1.
        -11    1    4    4    0    0  0.17941116937E-01  0.54578774736E-01 -0.55047006917E-01  0.79568589406E-01  0.51100000000E-03 0.  1.
         11    1    4    4    0    0 -0.38239472741E-02  0.41222976465E-01 -0.33417161840E-01  0.53206429949E-01  0.51100000000E-03 0. -1.
</event>
<event>
 8    1  0.1084146E+005  0.1043930E+01  0.7957747E-01            NaN
         13   -1    0    0    0    0  0.00000000000E+00  0.00000000000E+00  0.74505805969E-08  0.10566000000E+00  0.10566000000E+00 0. -1.
     999900   -1    0    0    0    0 -0.00000000000E+00 -0.00000000000E+00 -0.74505805969E-08  0.93827000000E+00  0.93827000000E+00 0. -1.
     999902    2    1    2    0    0  0.19246502254E-01  0.13053152933E-01 -0.21552287573E-02  0.10205749650E+01  0.10203076994E+01 0.  0.
     999903    2    3    3    0    0 -0.43446588677E-01  0.17037870336E-02  0.12066888296E+00  0.12976354038E+00  0.19674555603E-01 0.  0.
         14    1    1    2    0    0 -0.19246502254E-01 -0.13053152933E-01  0.21552287573E-02  0.23355035036E-01  0.00000000000E+00 0.  1.
     999901    1    3    3    0    0  0.62693090931E-01  0.11349365900E-01 -0.12282411172E+00  0.89081142459E+00  0.88000000000E+00 0. -1.
        -11    1    4    4    0    0 -0.13702465306E-01  0.77431595386E-03  0.16718621508E-01  0.21636324706E-01  0.51100000000E-03 0. -1.
         11    1    4    4    0    0 -0.29744123371E-01  0.92947107974E-03  0.10395026145E+00  0.10812721567E+00  0.51100000000E-03 0.  1.
</event>
<event>
 8    1  0.1084146E+005  0.1043930E+01  0.7957747E-01            NaN
         13   -1    0    0    0    0  0.00000000000E+00  0.00000000000E+00  0.74505805969E-08  0.10566000000E+00  0.10566000000E+00 0. -1.
     999900   -1    0    0    0    0 -0.00000000000E+00 -0.00000000000E+00 -0.74505805969E-08  0.93827000000E+00  0.93827000000E+00 0.  1.
     999902    2    1    2    0    0  0.92851042348E-02 -0.61303451708E-02  0.21279467904E-01  0.10199172941E+01  0.10196345800E+01 0.  0.
     999903    2    3    3    0    0  0.86571904743E-01  0.62718769003E-01  0.75011898703E-01  0.13222330164E+00  0.20685209023E-01 0.  0.
         14    1    1    2    0    0 -0.92851042348E-02  0.61303451708E-02 -0.21279467904E-01  0.24012705946E-01  0.00000000000E+00 0.  1.
     999901    1    3    3    0    0 -0.77286800508E-01 -0.68849114174E-01 -0.53732430799E-01  0.88769399242E+00  0.88000000000E+00 0.  1.
        -11    1    4    4    0    0  0.45871671628E-01  0.22401079080E-01  0.41952555041E-01  0.66077958483E-01  0.51100000000E-03 0.  1.
         11    1    4    4    0    0  0.40700233115E-01  0.40317689924E-01  0.33059343663E-01  0.66145343153E-01  0.51100000000E-03 0. -1.
</event>
<event>
 8    1  0.1084146E+005  0.1043930E+01  0.7957747E-01            NaN
         13   -1    0    0    0    0  0.00000000000E+00  0.00000000000E+00  0.74505805969E-08  0.10566000000E+00  0.10566000000E+00 0.  1.
     999900   -1    0    0    0    0 -0.00000000000E+00 -0.00000000000E+00 -0.74505805969E-08  0.93827000000E+00  0.93827000000E+00 0.  1.
     999902    2    1    2    0    0  0.18491207633E-01 -0.82735973832E-02  0.10749906739E-01  0.10209966691E+01  0.10207390756E+01 0.  0.
     999903    2    3    3    0    0 -0.11760136686E+00 -0.39669418885E-01 -0.28819875746E-01  0.12910393216E+00  0.20820561468E-01 0.  0.
         14    1    1    2    0    0 -0.18491207633E-01  0.82735973832E-02 -0.10749906739E-01  0.22933330946E-01  0.00000000000E+00 0. -1.
     999901    1    3    3    0    0  0.13609257449E+00  0.31395821502E-01  0.39569782485E-01  0.89189273689E+00  0.88000000000E+00 0. -1.
        -11    1    4    4    0    0 -0.28649272122E-01 -0.22150418165E-02 -0.11944174665E-01  0.31122526132E-01  0.51100000000E-03 0.  1.
         11    1    4    4    0    0 -0.88952094734E-01 -0.37454377069E-01 -0.16875701081E-01  0.97981406028E-01  0.51100000000E-03 0. -1.
</event>
<event>
 8    1  0.1084146E+005  0.1043930E+01  0.7957747E-01            NaN
         13   -1    0    0    0    0  0.00000000000E+00  0.00000000000E+00  0.74505805969E-08  0.10566000000E+00  0.10566000000E+00 0. -1.
     999900   -1    0    0    0    0 -0.00000000000E+00 -0.00000000000E+00 -0.74505805969E-08  0.93827000000E+00  0.93827000000E+00 0. -1.
     999902    2    1    2    0    0 -0.21167144878E-01  0.88626019226E-03 -0.10108681255E-01  0.10204562079E+01  0.10201861856E+01 0.  0.
     999903    2    3    3    0    0 -0.86555738955E-02  0.11233235551E+00 -0.65037932430E-01  0.13164014469E+00  0.20142442364E-01 0.  0.
         14    1    1    2    0    0  0.21167144878E-01 -0.88626019225E-03  0.10108681255E-01  0.23473792112E-01  0.00000000000E+00 0. -1.
     999901    1    3    3    0    0 -0.12511570983E-01 -0.11144609532E+00  0.54929251175E-01  0.88881606320E+00  0.88000000000E+00 0.  1.
        -11    1    4    4    0    0  0.46956124372E-03  0.63874563858E-01 -0.26946709956E-01  0.69329407140E-01  0.51100000000E-03 0. -1.
         11    1    4    4    0    0 -0.91251351392E-02  0.48457791651E-01 -0.38091222474E-01  0.62310737547E-01  0.51100000000E-03 0.  1.
</event>
<event>
 8    1  0.1084146E+005  0.1043930E+01  0.7957747E-01            NaN
         13   -1    0    0    0    0  0.00000000000E+00  0.00000000000E+00  0.74505805969E-08  0.10566000000E+00  0.10566000000E+00 0. -1.
     999900   -1    0    0    0    0 -0.00000000000E+00 -0.00000000000E+00 -0.74505805969E-08  0.93827000000E+00  0.93827000000E+00 0. -1.
     999902    2    1    2    0    0  0.14469655097E-01  0.15738904896E-01  0.13201182416E-01  0.10188032162E+01  0.10184933177E+01 0.  0.
     999903    2    3    3    0    0  0.76315762166E-02 -0.12266598916E+00 -0.25298314913E-01  0.12712789116E+00  0.20403679111E-01 0.  0.
         14    1    1    2    0    0 -0.14469655097E-01 -0.15738904896E-01 -0.13201182416E-01  0.25126783780E-01  0.00000000000E+00 0.  1.
     999901    1    3    3    0    0  0.68380788803E-02  0.13840489406E+00  0.38499497329E-01  0.89167532506E+00  0.88000000000E+00 0. -1.
        -11    1    4    4    0    0  0.11534645351E-01 -0.98255401938E-01 -0.26347181305E-01  0.10237972034E+00  0.51100000000E-03 0. -1.
         11    1    4    4    0    0 -0.39030691347E-02 -0.24410587224E-01  0.10488663917E-02  0.24748170822E-01  0.51100000000E-03 0.  1.
</event>
<event>
 8    1  0.1084146E+005  0.1043930E+01  0.7957747E-01            NaN
         13   -1    0    0    0    0  0.00000000000E+00  0.00000000000E+00  0.74505805969E-08  0.10566000000E+00  0.10566000000E+00 0.  1.
     999900   -1    0    0    0    0 -0.00000000000E+00 -0.00000000000E+00 -0.74505805969E-08  0.93827000000E+00  0.93827000000E+00 0. -1.
     999902    2    1    2    0    0  0.14798610755E-01 -0.17117425475E-01  0.34378906087E-02  0.10210427934E+01  0.10207862468E+01 0.  0.
     999903    2    3    3    0    0 -0.96596539364E-01 -0.24951196840E-01  0.81898711154E-01  0.13052252533E+00  0.19372069805E-01 0.  0.
         14    1    1    2    0    0 -0.14798610755E-01  0.17117425475E-01 -0.34378906087E-02  0.22887206623E-01  0.00000000000E+00 0.  1.
     999901    1    3    3    0    0  0.11139515012E+00  0.78337713653E-02 -0.78460820546E-01  0.89052026805E+00  0.88000000000E+00 0.  1.
        -11    1    4    4    0    0 -0.11026140247E-01 -0.92907044797E-03  0.25284904360E-02  0.11361924376E-01  0.51100000000E-03 0.  1.
         11    1    4    4    0    0 -0.85570399117E-01 -0.24022126392E-01  0.79370220718E-01  0.11916060095E+00  0.51100000000E-03 0. -1.
</event>
<event>
 8    1  0.1084146E+005  0.1043930E+01  0.7957747E-01            NaN
         13   -1    0    0    0    0  0.00000000000E+00  0.00000000000E+00  0.74505805969E-08  0.10566000000E+00  0.10566000000E+00 0. -1.
     999900   -1    0    0    0    0 -0.00000000000E+00 -0.00000000000E+00 -0.74505805969E-08  0.93827000000E+00  0.93827000000E+00 0. -1.
     999902    2    1    2    0    0 -0.31474846518E-02 -0.22860745353E-01 -0.55571577636E-03  0.10208469075E+01  0.10205859001E+01 0.  0.
     999903    2    3    3    0    0 -0.46440772472E-01 -0.12010715570E+00  0.31002115816E-01  0.13387054380E+00  0.19434945705E-01 0.  0.
         14    1    1    2    0    0  0.31474846518E-02  0.22860745353E-01  0.55571577636E-03  0.23083092465E-01  0.00000000000E+00 0. -1.
     999901    1    3    3    0    0  0.43293287820E-01  0.97246410343E-01 -0.31557831593E-01  0.88697636374E+00  0.88000000000E+00 0. -1.
        -11    1    4    4    0    0 -0.24689485010E-01 -0.38696889860E-01  0.90171097696E-02  0.46782361468E-01  0.51100000000E-03 0.  1.
         11    1    4    4    0    0 -0.21751287462E-01 -0.81410265835E-01  0.21985006047E-01  0.87088182330E-01  0.51100000000E-03 0. -1.
</event>
<event>
 8    1  0.1084146E+005  0.1043930E+01  0.7957747E-01            NaN
         13   -1    0    0    0    0  0.00000000000E+00  0.00000000000E+00  0.74505805969E-08  0.10566000000E+00  0.10566000000E+00 0. -1.
     999900   -1    0    0    0    0 -0.00000000000E+00 -0.00000000000E+00 -0.74505805969E-08  0.93827000000E+00  0.93827000000E+00 0.  1.
     999902    2    1    2    0    0  0.18035413982E-01  0.71802129699E-02  0.12632310328E-01  0.10207695406E+01  0.10205067604E+01 0.  0.
     999903    2    3    3    0    0  0.11757936354E+00 -0.49889011824E-01  0.31810123107E-01  0.13311325417E+00  0.19835177658E-01 0.  0.
         14    1    1    2    0    0 -0.18035413982E-01 -0.71802129699E-02 -0.12632310328E-01  0.23160459409E-01  0.00000000000E+00 0.  1.
     999901    1    3    3    0    0 -0.99543949561E-01  0.57069224794E-01 -0.19177812779E-01  0.88765628642E+00  0.88000000000E+00 0.  1.
        -11    1    4    4    0    0  0.80760989627E-01 -0.29567864287E-01  0.12773480759E-01  0.86948369598E-01  0.51100000000E-03 0.  1.
         11    1    4    4    0    0  0.36818373916E-01 -0.20321147537E-01  0.19036642348E-01  0.46164884576E-01  0.51100000000E-03 0. -1.
</event>
<event>
 8    1  0.1084146E+005  0.1043930E+01  0.7957747E-01            NaN
         13   -1    0    0    0    0  0.00000000000E+00  0.00000000000E+00  0.74505805969E-08  0.10566000000E+00  0.10566000000E+00 0. -1.
     999900   -1    0    0    0    0 -0.00000000000E+00 -0.00000000000E+00 -0.74505805969E-08  0.93827000000E+00  0.93827000000E+00 0.  1.
     999902    2    1    2    0    0 -0.10044379144E-01 -0.13764589176E-01  0.16344721831E-01  0.10203184901E+01  0.10200452528E+01 0.  0.
     999903    2    3    3    0    0 -0.60019451803E-01  0.60788651363E-03 -0.11274534961E+00  0.12938172328E+00  0.20625526438E-01 0.  0.
         14    1    1    2    0    0  0.10044379144E-01  0.13764589176E-01 -0.16344721831E-01  0.23611509890E-01  0.00000000000E+00 0.  1.
     999901    1    3    3    0    0  0.49975072659E-01 -0.14372475690E-01  0.12909007144E+00  0.89093676683E+00  0.88000000000E+00 0. -1.
        -11    1    4    4    0    0 -0.50867482244E-01 -0.69533247855E-02 -0.95708658352E-01  0.10861057904E+00  0.51100000000E-03 0. -1.
         11    1    4    4    0    0 -0.91519695592E-02  0.75612112992E-02 -0.17036691253E-01  0.20771144238E-01  0.51100000000E-03 0.  1.
</event>
<event>
 8    1  0.1084146E+005  0.1043930E+01  0.7957747E-01            NaN
         13   -1    0    0    0    0  0.00000000000E+00  0.00000000000E+00  0.74505805969E-08  0.10566000000E+00  0.10566000000E+00 0. -1.
     999900   -1    0    0    0    0 -0.00000000000E+00 -0.00000000000E+00 -0.74505805969E-08  0.93827000000E+00  0.93827000000E+00 0. -1.
     999902    2    1    2    0    0  0.86426297949E-02  0.11884934086E-01 -0.17878976631E-01  0.10207868690E+01  0.10205244864E+01 0.  0.
     999903    2    3    3    0    0  0.47101753484E-01 -0.11755162231E+00  0.20252896256E-01  0.12967129508E+00  0.19170442662E-01 0.  0.
         14    1    1    2    0    0 -0.86426297949E-02 -0.11884934086E-01  0.17878976631E-01  0.23143131019E-01  0.00000000000E+00 0. -1.
     999901    1    3    3    0    0 -0.38459123690E-01  0.12943655639E+00 -0.38131872887E-01  0.89111557390E+00  0.88000000000E+00 0.  1.
        -11    1    4    4    0    0  0.33252649680E-01 -0.92610665334E-01  0.22855145679E-01  0.10102025960E+00  0.51100000000E-03 0.  1.
         11    1    4    4    0    0  0.13849103805E-01 -0.24940956972E-01 -0.26022494231E-02  0.28651035478E-01  0.51100000000E-03 0. -1.
</event>
<event>
 8    1  0.1084146E+005  0.1043930E+01  0.7957747E-01            NaN
         13   -1    0    0    0    0  0.00000000000E+00  0.00000000000E+00  0.74505805969E-08  0.10566000000E+00  0.10566000000E+00 0. -1.
     999900   -1    0    0    0    0 -0.00000000000E+00 -0.00000000000E+00 -0.74505805969E-08  0.93827000000E+00  0.93827000000E+00 0. -1.
     999902    2    1    2    0    0  0.17660515376E-01  0.60905860757E-02  0.11994434812E-01  0.10217296507E+01  0.10214884354E+01 0.  0.
     999903    2    3    3    0    0  0.64057724054E-01  0.10483498820E+00 -0.47086051191E-01  0.13302629089E+00  0.19624757064E-01 0.  0.
         14    1    1    2    0    0 -0.17660515376E-01 -0.60905860757E-02 -0.11994434812E-01  0.22200349289E-01  0.00000000000E+00 0.  1.
     999901    1    3    3    0    0 -0.46397208678E-01 -0.98744402126E-01  0.59080486003E-01  0.88870335982E+00  0.88000000000E+00 0.  1.
        -11    1    4    4    0    0  0.41886784126E-01  0.65672416363E-01 -0.19715876558E-01  0.80351389937E-01  0.51100000000E-03 0.  1.
         11    1    4    4    0    0  0.22170939929E-01  0.39162571839E-01 -0.27370174633E-01  0.52674900957E-01  0.51100000000E-03 0. -1.
</event>
<event>
 8    1  0.1084146E+005  0.1043930E+01  0.7957747E-01            NaN
         13   -1    0    0    0    0  0.00000000000E+00  0.00000000000E+00  0.74505805969E-08  0.10566000000E+00  0.10566000000E+00 0.  1.
     999900   -1    0    0    0    0 -0.00000000000E+00 -0.00000000000E+00 -0.74505805969E-08  0.93827000000E+00  0.93827000000E+00 0. -1.
     999902    2    1    2    0    0  0.19435822985E-01 -0.71509596293E-02  0.15346510577E-01  0.10181539874E+01  0.10178276569E+01 0.  0.
     999903    2    3    3    0    0 -0.48980584342E-01  0.11535902247E+00  0.33798732501E-02  0.12695664622E+00  0.19994118357E-01 0.  0.
         14    1    1    2    0    0 -0.19435822985E-01  0.71509596293E-02 -0.15346510577E-01  0.25776012601E-01  0.00000000000E+00 0. -1.
     999901    1    3    3    0    0  0.68416407327E-01 -0.12250998210E+00  0.11966637327E-01  0.89119734117E+00  0.88000000000E+00 0.  1.
        -11    1    4    4    0    0 -0.22687948718E-01  0.63454776308E-01 -0.73471591184E-02  0.67790069490E-01  0.51100000000E-03 0. -1.
         11    1    4    4    0    0 -0.26292635624E-01  0.51904246166E-01  0.10727032368E-01  0.59166576735E-01  0.51100000000E-03 0.  1.
</event>
<event>
 8    1  0.1084146E+005  0.1043930E+01  0.7957747E-01            NaN
         13   -1    0    0    0    0  0.00000000000E+00  0.00000000000E+00  0.74505805969E-08  0.10566000000E+00  0.10566000000E+00 0.  1.
     999900   -1    0    0    0    0 -0.00000000000E+00 -0.00000000000E+00 -0.74505805969E-08  0.93827000000E+00  0.93827000000E+00 0. -1.
     999902    2    1    2    0    0 -0.44956021987E-02  0.18444697142E-01  0.20301251317E-01  0.10161350707E+01  0.10157548542E+01 0.  0.
     999903    2    3    3    0    0 -0.89176364788E-01 -0.41601656189E-01 -0.74330986195E-01  0.12499442156E+00  0.20381071583E-01 0.  0.
         14    1    1    2    0    0  0.44956021987E-02 -0.18444697142E-01 -0.20301251317E-01  0.27794929336E-01  0.00000000000E+00 0. -1.
     999901    1    3    3    0    0  0.84680762590E-01  0.60046353331E-01  0.94632237512E-01  0.89114064910E+00  0.88000000000E+00 0.  1.
        -11    1    4    4    0    0 -0.52350804455E-01 -0.28281877354E-01 -0.56158212064E-01  0.81819784997E-01  0.51100000000E-03 0. -1.
         11    1    4    4    0    0 -0.36825560333E-01 -0.13319778835E-01 -0.18172774132E-01  0.43174636567E-01  0.51100000000E-03 0.  1.
</event>
<event>
 8    1  0.1084146E+005  0.1043930E+01  0.7957747E-01            NaN
         13   -1    0    0    0    0  0.00000000000E+00  0.00000000000E+00  0.74505805969E-08  0.10566000000E+00  0.10566000000E+00 0. -1.
     999900   -1    0    0    0    0 -0.00000000000E+00 -0.00000000000E+00 -0.74505805969E-08  0.93827000000E+00  0.93827000000E+00 0. -1.
     999902    2    1    2    0    0  0.15864012277E-01  0.15459394912E-01  0.98641192907E-02  0.10196821006E+01  0.10193937540E+01 0.  0.
     999903    2    3    3    0    0 -0.27677038217E-01  0.40545045958E-01  0.12008890526E+00  0.13138338033E+00  0.20744354985E-01 0.  0.
         14    1    1    2    0    0 -0.15864012277E-01 -0.15459394912E-01 -0.98641192907E-02  0.24247899414E-01  0.00000000000E+00 0. -1.
     999901    1    3    3    0    0  0.43541050495E-01 -0.25085651045E-01 -0.11022478597E+00  0.88829872026E+00  0.88000000000E+00 0. -1.
        -11    1    4    4    0    0 -0.22341683568E-01  0.37481517717E-01  0.82884525755E-01  0.93670276639E-01  0.51100000000E-03 0. -1.
         11    1    4    4    0    0 -0.53353546490E-02  0.30635282412E-02  0.37204379507E-01  0.37713103691E-01  0.51100000000E-03 0.  1.
</event>
<event>
 8    1  0.1084146E+005  0.1043930E+01  0.7957747E-01            NaN
         13   -1    0    0    0    0  0.00000000000E+00  0.00000000000E+00  0.74505805969E-08  0.10566000000E+00  0.10566000000E+00 0. -1.
     999900   -1    0    0    0    0 -0.00000000000E+00 -0.00000000000E+00 -0.74505805969E-08  0.93827000000E+00  0.93827000000E+00 0. -1.
     999902    2    1    2    0    0  0.60122972036E-02 -0.14048215439E-01  0.17762720702E-01  0.10204989454E+01  0.10202299168E+01 0.  0.
     999903    2    3    3    0    0  0.11054353388E+00  0.18827769406E-01 -0.64858746394E-01  0.12986214136E+00  0.91192648787E-02 0.  0.
         14    1    1    2    0    0 -0.60122972036E-02  0.14048215439E-01 -0.17762720702E-01  0.23431054638E-01  0.00000000000E+00 0.  1.
     999901    1    3    3    0    0 -0.10453123667E+00 -0.32875984845E-01  0.82621467096E-01  0.89063680400E+00  0.88000000000E+00 0.  1.
        -11    1    4    4    0    0  0.44070883527E-01  0.45009509310E-02 -0.29408891154E-01  0.53175608450E-01  0.51100000000E-03 0.  1.
         11    1    4    4    0    0  0.66472650349E-01  0.14326818475E-01 -0.35449855240E-01  0.76686532909E-01  0.51100000000E-03 0. -1.
</event>
<event>
 8    1  0.1084146E+005  0.1043930E+01  0.7957747E-01            NaN
         13   -1    0    0    0    0  0.00000000000E+00  0.00000000000E+00  0.74505805969E-08  0.10566000000E+00  0.10566000000E+00 0.  1.
     999900   -1    0    0    0    0 -0.00000000000E+00 -0.00000000000E+00 -0.74505805969E-08  0.93827000000E+00  0.93827000000E+00 0. -1.
     999902    2    1    2    0    0 -0.24541267668E-01 -0.23418002227E-02 -0.77114918618E-02  0.10180993021E+01  0.10177715677E+01 0.  0.
     999903    2    3    3    0    0 -0.37707843312E-01  0.10207777494E+00 -0.68033338613E-01  0.12977755207E+00  0.19285338328E-01 0.  0.
         14    1    1    2    0    0  0.24541267668E-01  0.23418002227E-02  0.77114918618E-02  0.25830697896E-01  0.00000000000E+00 0. -1.
     999901    1    3    3    0    0  0.13166575643E-01 -0.10441957516E+00  0.60321846752E-01  0.88832175004E+00  0.88000000000E+00 0.  1.
        -11    1    4    4    0    0 -0.27331070314E-01  0.58366956204E-01 -0.49097201833E-01  0.81021511526E-01  0.51100000000E-03 0. -1.
         11    1    4    4    0    0 -0.10376772997E-01  0.43710818734E-01 -0.18936136780E-01  0.48756040543E-01  0.51100000000E-03 0.  1.
</event>
<event>
 8    1  0.1084146E+005  0.1043930E+01  0.7957747E-01            NaN
         13   -1    0    0    0    0  0.00000000000E+00  0.00000000000E+00  0.74505805969E-08  0.10566000000E+00  0.10566000000E+00 0.  1.
     999900   -1    0    0    0    0 -0.00000000000E+00 -0.00000000000E+00 -0.74505805969E-08  0.93827000000E+00  0.93827000000E+00 0. -1.
     999902    2    1    2    0    0  0.13580725842E-01 -0.16097109071E-01 -0.10127564144E-01  0.10205607769E+01  0.10202931827E+01 0.  0.
     999903    2    3    3    0    0  0.58284814647E-01 -0.11382151030E+00 -0.33521564540E-01  0.13371479620E+00  0.20087200105E-01 0.  0.
         14    1    1    2    0    0 -0.13580725842E-01  0.16097109071E-01  0.10127564144E-01  0.23369223144E-01  0.00000000000E+00 0.  1.
     999901    1    3    3    0    0 -0.44704088804E-01  0.97724401229E-01  0.23394000396E-01  0.88684598066E+00  0.88000000000E+00 0. -1.
        -11    1    4    4    0    0  0.53900738455E-01 -0.88527140358E-01 -0.29160358662E-01  0.10767047796E+00  0.51100000000E-03 0.  1.
         11    1    4    4    0    0  0.43840761919E-02 -0.25294369943E-01 -0.43612058782E-02  0.26044318240E-01  0.51100000000E-03 0. -1.
</event>
<event>
 8    1  0.1084146E+005  0.1043930E+01  0.7957747E-01            NaN
         13   -1    0    0    0    0  0.00000000000E+00  0.00000000000E+00  0.74505805969E-08  0.10566000000E+00  0.10566000000E+00 0.  1.
     999900   -1    0    0    0    0 -0.00000000000E+00 -0.00000000000E+00 -0.74505805969E-08  0.93827000000E+00  0.93827000000E+00 0.  1.
     999902    2    1    2    0    0 -0.10704440910E-01 -0.17956973543E-01 -0.93740177029E-02  0.10210190820E+01  0.10207619976E+01 0.  0.
     999903    2    3    3    0    0  0.78291085960E-01 -0.10378538587E+00  0.10309055173E-01  0.13215793229E+00  0.21413593570E-01 0.  0.
         14    1    1    2    0    0  0.10704440910E-01  0.17956973543E-01  0.93740177029E-02  0.22910917964E-01  0.00000000000E+00 0.  1.
     999901    1    3    3    0    0 -0.88995526870E-01  0.85828412322E-01 -0.19683072876E-01  0.88886114974E+00  0.88000000000E+00 0.  1.
        -11    1    4    4    0    0  0.37516445845E-01 -0.67221307455E-01  0.56926612984E-02  0.77193622783E-01  0.51100000000E-03 0. -1.
         11    1    4    4    0    0  0.40774640115E-01 -0.36564078410E-01  0.46163938751E-02  0.54964309510E-01  0.51100000000E-03 0.  1.
</event>
<event>
 8    1  0.1084146E+005  0.1043930E+01  0.7957747E-01            NaN
         13   -1    0    0    0    0  0.00000000000E+00  0.00000000000E+00  0.74505805969E-08  0.10566000000E+00  0.10566000000E+00 0. -1.
     999900   -1    0    0    0    0 -0.00000000000E+00 -0.00000000000E+00 -0.74505805969E-08  0.93827000000E+00  0.93827000000E+00 0.  1.
     999902    2    1    2    0    0  0.20549411781E-01  0.77948977283E-02 -0.10295734385E-01  0.10196598352E+01  0.10193709524E+01 0.  0.
     999903    2    3    3    0    0  0.91181631695E-01 -0.71977144530E-02  0.91278968071E-01  0.13087914843E+00  0.20775091585E-01 0.  0.
         14    1    1    2    0    0 -0.20549411781E-01 -0.77948977283E-02  0.10295734385E-01  0.24270164846E-01  0.00000000000E+00 0.  1.
     999901    1    3    3    0    0 -0.70632219915E-01  0.14992612181E-01 -0.10157470246E+00  0.88878068672E+00  0.88000000000E+00 0.  1.
        -11    1    4    4    0    0  0.49945287364E-01 -0.63866614966E-02  0.35965939085E-01  0.61879973095E-01  0.51100000000E-03 0.  1.
         11    1    4    4    0    0  0.41236344332E-01 -0.81105295637E-03  0.55313028986E-01  0.68999175338E-01  0.51100000000E-03 0. -1.
</event>
<event>
 8    1  0.1084146E+005  0.1043930E+01  0.7957747E-01            NaN
         13   -1    0    0    0    0  0.00000000000E+00  0.00000000000E+00  0.74505805969E-08  0.10566000000E+00  0.10566000000E+00 0. -1.
     999900   -1    0    0    0    0 -0.00000000000E+00 -0.00000000000E+00 -0.74505805969E-08  0.93827000000E+00  0.93827000000E+00 0.  1.
     999902    2    1    2    0    0  0.13634304922E-01  0.18703113346E-01 -0.76131855776E-02  0.10195648340E+01  0.10192736578E+01 0.  0.
     999903    2    3    3    0    0  0.63293419862E-01 -0.69513644988E-02  0.11152613647E+00  0.12977926546E+00  0.18713635701E-01 0.  0.
         14    1    1    2    0    0 -0.13634304922E-01 -0.18703113346E-01  0.76131855776E-02  0.24365165999E-01  0.00000000000E+00 0.  1.
     999901    1    3    3    0    0 -0.49659114941E-01  0.25654477845E-01 -0.11913932204E+00  0.88978556854E+00  0.88000000000E+00 0.  1.
        -11    1    4    4    0    0  0.38905502156E-01  0.59139350698E-03  0.81860667836E-01  0.90638942535E-01  0.51100000000E-03 0.  1.
         11    1    4    4    0    0  0.24387917707E-01 -0.75427580058E-02  0.29665468631E-01  0.39140322923E-01  0.51100000000E-03 0. -1.
</event>
<event>
 8    1  0.1084146E+005  0.1043930E+01  0.7957747E-01            NaN
         13   -1    0    0    0    0  0.00000000000E+00  0.00000000000E+00  0.74505805969E-08  0.10566000000E+00  0.10566000000E+00 0.  1.
     999900   -1    0    0    0    0 -0.00000000000E+00 -0.00000000000E+00 -0.74505805969E-08  0.93827000000E+00  0.93827000000E+00 0.  1.
     999902    2    1    2    0    0 -0.10797677106E-01 -0.18655512103E-01 -0.79929628695E-02  0.10209407543E+01  0.10206818889E+01 0.  0.
     999903    2    3    3    0    0  0.11979838878E+00 -0.48455899579E-01  0.20287749874E-02  0.13074761191E+00  0.19778623159E-01 0.  0.
         14    1    1    2    0    0  0.10797677106E-01  0.18655512103E-01  0.79929628695E-02  0.22989245706E-01  0.00000000000E+00 0.  1.
     999901    1    3    3    0    0 -0.13059606588E+00  0.29800387477E-01 -0.10021737857E-01  0.89019314238E+00  0.88000000000E+00 0.  1.
        -11    1    4    4    0    0  0.12810776454E-01 -0.86116384522E-02  0.58523783791E-02  0.16516287836E-01  0.51100000000E-03 0. -1.
         11    1    4    4    0    0  0.10698761232E+00 -0.39844261127E-01 -0.38236033917E-02  0.11423132407E+00  0.51100000000E-03 0.  1.
</event>
<event>
 8    1  0.1084146E+005  0.1043930E+01  0.7957747E-01            NaN
         13   -1    0    0    0    0  0.00000000000E+00  0.00000000000E+00  0.74505805969E-08  0.10566000000E+00  0.10566000000E+00 0.  1.
     999900   -1    0    0    0    0 -0.00000000000E+00 -0.00000000000E+00 -0.74505805969E-08  0.93827000000E+00  0.93827000000E+00 0.  1.
     999902    2    1    2    0    0  0.71896078177E-02 -0.41002341016E-02  0.22291682195E-01  0.10201514072E+01  0.10198742433E+01 0.  0.
     999903    2    3    3    0    0  0.76890727909E-01 -0.10462968965E+00 -0.15623300204E-02  0.13136941398E+00  0.19897890843E-01 0.  0.
         14    1    1    2    0    0 -0.71896078177E-02  0.41002341016E-02 -0.22291682195E-01  0.23778592795E-01  0.00000000000E+00 0. -1.
     999901    1    3    3    0    0 -0.69701120092E-01  0.10052945555E+00  0.23854012215E-01  0.88878199322E+00  0.88000000000E+00 0. -1.
        -11    1    4    4    0    0  0.40295663675E-01 -0.45238995566E-01  0.73950301253E-02  0.61034865629E-01  0.51100000000E-03 0. -1.
         11    1    4    4    0    0  0.36595064235E-01 -0.59390694087E-01 -0.89573601456E-02  0.70334548355E-01  0.51100000000E-03 0.  1.
</event>
<event>
 8    1  0.1084146E+005  0.1043930E+01  0.7957747E-01            NaN
         13   -1    0    0    0    0  0.00000000000E+00  0.00000000000E+00  0.74505805969E-08  0.10566000000E+00  0.10566000000E+00 0.  1.
     999900   -1    0    0    0    0 -0.00000000000E+00 -0.00000000000E+00 -0.74505805969E-08  0.93827000000E+00  0.93827000000E+00 0. -1.
     999902    2    1    2    0    0 -0.25540255512E-01 -0.62698733811E-02  0.66112454690E-02  0.10168131320E+01  0.10164514848E+01 0.  0.
     999903    2    3    3    0    0 -0.10224974385E+00 -0.77746245643E-01  0.12120714651E-01  0.13057187159E+00  0.20065221080E-01 0.  0.
         14    1    1    2    0    0  0.25540255512E-01  0.62698733811E-02 -0.66112454690E-02  0.27116868006E-01  0.00000000000E+00 0.  1.
     999901    1    3    3    0    0  0.76709488342E-01  0.71476372262E-01 -0.55094691817E-02  0.88624126040E+00  0.88000000000E+00 0. -1.
        -11    1    4    4    0    0 -0.35166584127E-01 -0.34168861505E-01 -0.31291219635E-02  0.49135041070E-01  0.51100000000E-03 0.  1.
         11    1    4    4    0    0 -0.67083159726E-01 -0.43577384137E-01  0.15249836614E-01  0.81436830518E-01  0.51100000000E-03 0. -1.
</event>
<event>
 8    1  0.1084146E+005  0.1043930E+01  0.7957747E-01            NaN
         13   -1    0    0    0    0  0.00000000000E+00  0.00000000000E+00  0.74505805969E-08  0.10566000000E+00  0.10566000000E+00 0.  1.
     999900   -1    0    0    0    0 -0.00000000000E+00 -0.00000000000E+00 -0.74505805969E-08  0.93827000000E+00  0.93827000000E+00 0.  1.
     999902    2    1    2    0    0  0.84264633993E-02 -0.22588625322E-02 -0.17891550702E-01  0.10240248416E+01  0.10238313635E+01 0.  0.
     999903    2    3    3    0    0  0.22024867481E-01  0.12774215939E+00  0.25392537363E-01  0.13331799049E+00  0.18048588854E-01 0.  0.
         14    1    1    2    0    0 -0.84264633993E-02  0.22588625322E-02  0.17891550702E-01  0.19905158424E-01  0.00000000000E+00 0.  1.
     999901    1    3    3    0    0 -0.13598404082E-01 -0.13000102193E+00 -0.43284088066E-01  0.89070685109E+00  0.88000000000E+00 0. -1.
        -11    1    4    4    0    0  0.19220579844E-01  0.60277953667E-01  0.14653434852E-01  0.64944951011E-01  0.51100000000E-03 0. -1.
         11    1    4    4    0    0  0.28042876375E-02  0.67464205727E-01  0.10739102511E-01  0.68373039477E-01  0.51100000000E-03 0.  1.
</event>
<event>
 8    1  0.1084146E+005  0.1043930E+01  0.7957747E-01            NaN
         13   -1    0    0    0    0  0.00000000000E+00  0.00000000000E+00  0.74505805969E-08  0.10566000000E+00  0.10566000000E+00 0. -1.
     999900   -1    0    0    0    0 -0.00000000000E+00 -0.00000000000E+00 -0.74505805969E-08  0.93827000000E+00  0.93827000000E+00 0. -1.
     999902    2    1    2    0    0 -0.17127204580E-01  0.13376400895E-01  0.93758816031E-02  0.10202619542E+01  0.10199873915E+01 0.  0.
     999903    2    3    3    0    0  0.61579433173E-01  0.61808424465E-01  0.95939276881E-01  0.13119861720E+00  0.19910408916E-01 0.  0.
         14    1    1    2    0    0  0.17127204580E-01 -0.13376400895E-01 -0.93758816031E-02  0.23668045831E-01  0.00000000000E+00 0.  1.
     999901    1    3    3    0    0 -0.78706637752E-01 -0.48432023570E-01 -0.86563395278E-01  0.88906333697E+00  0.88000000000E+00 0. -1.
        -11    1    4    4    0    0  0.10271238749E-01  0.22322592308E-02  0.15319562290E-01  0.18585785872E-01  0.51100000000E-03 0. -1.
         11    1    4    4    0    0  0.51308194424E-01  0.59576165234E-01  0.80619714591E-01  0.11261283133E+00  0.51100000000E-03 0.  1.
</event>
<event>
 8    1  0.1084146E+005  0.1043930E+01  0.7957747E-01            NaN
         13   -1    0    0    0    0  0.00000000000E+00  0.00000000000E+00  0.74505805969E-08  0.10566000000E+00  0.10566000000E+00 0. -1.
     999900   -1    0    0    0    0 -0.00000000000E+00 -0.00000000000E+00 -0.74505805969E-08  0.93827000000E+00  0.93827000000E+00 0. -1.
     999902    2    1    2    0    0  0.18693381216E-01  0.12827043991E-02 -0.16124112800E-01  0.10192100719E+01  0.10189102491E+01 0.  0.
     999903    2    3    3    0    0 -0.89770577358E-01 -0.84179333284E-01 -0.30311695964E-01  0.12832877918E+00  0.20113675509E-01 0.  0.
         14    1    1    2    0    0 -0.18693381216E-01 -0.12827043991E-02  0.16124112800E-01  0.24719928104E-01  0.00000000000E+00 0. -1.
     999901    1    3    3    0    0  0.10846395857E+00  0.85462037683E-01  0.14187583163E-01  0.89088129272E+00  0.88000000000E+00 0.  1.
        -11    1    4    4    0    0 -0.25196535928E-01 -0.14509773788E-01 -0.12622509413E-01  0.31701542912E-01  0.51100000000E-03 0.  1.
         11    1    4    4    0    0 -0.64574041430E-01 -0.69669559496E-01 -0.17689186551E-01  0.96627236268E-01  0.51100000000E-03 0. -1.
</event>
<event>
 8    1  0.1084146E+005  0.1043930E+01  0.7957747E-01            NaN
         13   -1    0    0    0    0  0.00000000000E+00  0.00000000000E+00  0.74505805969E-08  0.10566000000E+00  0.10566000000E+00 0. -1.
     999900   -1    0    0    0    0 -0.00000000000E+00 -0.00000000000E+00 -0.74505805969E-08  0.93827000000E+00  0.93827000000E+00 0. -1.
     999902    2    1    2    0    0 -0.22130604345E-01  0.83256410761E-02  0.34112685145E-02  0.10200403223E+01  0.10197605319E+01 0.  0.
     999903    2    3    3    0    0  0.97133874877E-02 -0.46472114578E-01 -0.11855311653E+00  0.12937082969E+00  0.20687261899E-01 0.  0.
         14    1    1    2    0    0  0.22130604345E-01 -0.83256410761E-02 -0.34112685145E-02  0.23889677705E-01  0.00000000000E+00 0.  1.
     999901    1    3    3    0    0 -0.31843991832E-01  0.54797755654E-01  0.12196438505E+00  0.89066949261E+00  0.88000000000E+00 0.  1.
        -11    1    4    4    0    0 -0.40226960359E-02 -0.27695752371E-01 -0.55461555711E-01  0.62124729904E-01  0.51100000000E-03 0. -1.
         11    1    4    4    0    0  0.13736083524E-01 -0.18776362207E-01 -0.63091560821E-01  0.67246099784E-01  0.51100000000E-03 0.  1.
</event>
<event>
 8    1  0.1084146E+005  0.1043930E+01  0.7957747E-01            NaN
         13   -1    0    0    0    0  0.00000000000E+00  0.00000000000E+00  0.74505805969E-08  0.10566000000E+00  0.10566000000E+00 0. -1.
     999900   -1    0    0    0    0 -0.00000000000E+00 -0.00000000000E+00 -0.74505805969E-08  0.93827000000E+00  0.93827000000E+00 0. -1.
     999902    2    1    2    0    0 -0.95223864481E-02 -0.13336681817E-01  0.14102916631E-01  0.10223097506E+01  0.10220811079E+01 0.  0.
     999903    2    3    3    0    0  0.78804468385E-01 -0.27685359405E-01  0.10207480248E+00  0.13340786035E+00  0.20044164716E-01 0.  0.
         14    1    1    2    0    0  0.95223864481E-02  0.13336681817E-01 -0.14102916631E-01  0.21620249375E-01  0.00000000000E+00 0.  1.
     999901    1    3    3    0    0 -0.88326854833E-01  0.14348677588E-01 -0.87971885848E-01  0.88890189027E+00  0.88000000000E+00 0. -1.
        -11    1    4    4    0    0  0.61077647139E-01 -0.25673673384E-01  0.90400656732E-01  0.11208102580E+00  0.51100000000E-03 0.  1.
         11    1    4    4    0    0  0.17726821247E-01 -0.20116860215E-02  0.11674145747E-01  0.21326834554E-01  0.51100000000E-03 0. -1.
</event>
<event>
 8    1  0.1084146E+005  0.1043930E+01  0.7957747E-01            NaN
         13   -1    0    0    0    0  0.00000000000E+00  0.00000000000E+00  0.74505805969E-08  0.10566000000E+00  0.10566000000E+00 0.  1.
     999900   -1    0    0    0    0 -0.00000000000E+00 -0.00000000000E+00 -0.74505805969E-08  0.93827000000E+00  0.93827000000E+00 0.  1.
     999902    2    1    2    0    0 -0.35896964799E-03 -0.23300706278E-01 -0.62699367578E-02  0.10197977834E+01  0.10195122143E+01 0.  0.
     999903    2    3    3    0    0  0.20504530221E-01 -0.12759283611E+00 -0.25208603638E-01  0.13319144059E+00  0.20102700396E-01 0.  0.
         14    1    1    2    0    0  0.35896964799E-03  0.23300706278E-01  0.62699367578E-02  0.24132216624E-01  0.00000000000E+00 0.  1.
     999901    1    3    3    0    0 -0.20863499869E-01  0.10429212983E+00  0.18938666880E-01  0.88660634279E+00  0.88000000000E+00 0. -1.
        -11    1    4    4    0    0 -0.15307149184E-02 -0.41421386120E-01 -0.32791342464E-02  0.41582305837E-01  0.51100000000E-03 0.  1.
         11    1    4    4    0    0  0.22035245139E-01 -0.86171449985E-01 -0.21929469391E-01  0.91609134750E-01  0.51100000000E-03 0. -1.
</event>
<event>
 8    1  0.1084146E+005  0.1043930E+01  0.7957747E-01            NaN
         13   -1    0    0    0    0  0.00000000000E+00  0.00000000000E+00  0.74505805969E-08  0.10566000000E+00  0.10566000000E+00 0.  1.
     999900   -1    0    0    0    0 -0.00000000000E+00 -0.00000000000E+00 -0.74505805969E-08  0.93827000000E+00  0.93827000000E+00 0. -1.
     999902    2    1    2    0    0 -0.23919902431E-01  0.41821259454E-02  0.92843806482E-02  0.10179328534E+01  0.10176008266E+01 0.  0.
     999903    2    3    3    0    0  0.63097617177E-01 -0.53293837031E-02  0.10936832548E+00  0.12794447503E+00  0.19966132543E-01 0.  0.
         14    1    1    2    0    0  0.23919902431E-01 -0.41821259454E-02 -0.92843806482E-02  0.25997146647E-01  0.00000000000E+00 0.  1.
     999901    1    3    3    0    0 -0.87017519608E-01  0.95115096485E-02 -0.10008394483E+00  0.88998837832E+00  0.88000000000E+00 0. -1.
        -11    1    4    4    0    0  0.45762411610E-01 -0.45550746971E-02  0.59907825633E-01  0.75525861233E-01  0.51100000000E-03 0. -1.
         11    1    4    4    0    0  0.17335205567E-01 -0.77430900594E-03  0.49460499847E-01  0.52418613799E-01  0.51100000000E-03 0.  1.
</event>
<event>
 8    1  0.1084146E+005  0.1043930E+01  0.7957747E-01            NaN
         13   -1    0    0    0    0  0.00000000000E+00  0.00000000000E+00  0.74505805969E-08  0.10566000000E+00  0.10566000000E+00 0.  1.
     999900   -1    0    0    0    0 -0.00000000000E+00 -0.00000000000E+00 -0.74505805969E-08  0.93827000000E+00  0.93827000000E+00 0.  1.
     999902    2    1    2    0    0  0.62499830019E-02  0.12393099564E-01  0.19646082365E-01  0.10198754837E+01  0.10195917724E+01 0.  0.
     999903    2    3    3    0    0  0.37328885939E-01 -0.11832494379E+00  0.31686298614E-01  0.12959571197E+00  0.19919563065E-01 0.  0.
         14    1    1    2    0    0 -0.62499830019E-02 -0.12393099564E-01 -0.19646082365E-01  0.24054516346E-01  0.00000000000E+00 0. -1.
     999901    1    3    3    0    0 -0.31078902937E-01  0.13071804335E+00 -0.12040216249E-01  0.89027977169E+00  0.88000000000E+00 0.  1.
        -11    1    4    4    0    0  0.13866362268E-01 -0.27132810325E-01  0.14995060334E-01  0.33964368890E-01  0.51100000000E-03 0.  1.
         11    1    4    4    0    0  0.23462523670E-01 -0.91192133464E-01  0.16691238280E-01  0.95631343078E-01  0.51100000000E-03 0. -1.
</event>
<event>
 8    1  0.1084146E+005  0.1043930E+01  0.7957747E-01            NaN
         13   -1    0    0    0    0  0.00000000000E+00  0.00000000000E+00  0.74505805969E-08  0.10566000000E+00  0.10566000000E+00 0. -1.
     999900   -1    0    0    0    0 -0.00000000000E+00 -0.00000000000E+00 -0.74505805969E-08  0.93827000000E+00  0.93827000000E+00 0.  1.
     999902    2    1    2    0    0  0.22872236557E-01 -0.65354182830E-02  0.10049899469E-01  0.10181065344E+01  0.10177789858E+01 0.  0.
     999903    2    3    3    0    0  0.19839522805E-01  0.12083278604E+00  0.33775260214E-01  0.12861524743E+00  0.20172873420E-01 0.  0.
         14    1    1    2    0    0 -0.22872236557E-01  0.65354182830E-02 -0.10049899469E-01  0.25823465619E-01  0.00000000000E+00 0.  1.
     999901    1    3    3    0    0  0.30327137519E-02 -0.12736820432E+00 -0.23725360745E-01  0.88949128695E+00  0.88000000000E+00 0. -1.
        -11    1    4    4    0    0  0.11100609391E-01  0.45779275046E-01  0.35844737540E-02  0.47244842319E-01  0.51100000000E-03 0.  1.
         11    1    4    4    0    0  0.87389134134E-02  0.75053510989E-01  0.30190786460E-01  0.81370405108E-01  0.51100000000E-03 0. -1.
</event>
<event>
 8    1  0.1084146E+005  0.1043930E+01  0.7957747E-01            NaN
         13   -1    0    0    0    0  0.00000000000E+00  0.00000000000E+00  0.74505805969E-08  0.10566000000E+00  0.10566000000E+00 0. -1.
     999900   -1    0    0    0    0 -0.00000000000E+00 -0.00000000000E+00 -0.74505805969E-08  0.93827000000E+00  0.93827000000E+00 0. -1.
     999902    2    1    2    0    0 -0.14337880783E-02  0.15641893830E-01  0.22321927967E-01  0.10166354390E+01  0.10162689717E+01 0.  0.
     999903    2    3    3    0    0 -0.53265764616E-01  0.13848177210E-01 -0.11052530271E+00  0.12515455986E+00  0.20464789846E-01 0.  0.
         14    1    1    2    0    0  0.14337880783E-02 -0.15641893830E-01 -0.22321927967E-01  0.27294560978E-01  0.00000000000E+00 0. -1.
     999901    1    3    3    0    0  0.51831976538E-01  0.17937166201E-02  0.13284723067E+00  0.89148087916E+00  0.88000000000E+00 0.  1.
        -11    1    4    4    0    0 -0.17802605155E-01  0.14913714251E-01 -0.42875740644E-01  0.48764145434E-01  0.51100000000E-03 0. -1.
         11    1    4    4    0    0 -0.35463159461E-01 -0.10655370417E-02 -0.67649562062E-01  0.76390414427E-01  0.51100000000E-03 0.  1.
</event>
<event>
 8    1  0.1084146E+005  0.1043930E+01  0.7957747E-01            NaN
         13   -1    0    0    0    0  0.00000000000E+00  0.00000000000E+00  0.74505805969E-08  0.10566000000E+00  0.10566000000E+00 0. -1.
     999900   -1    0    0    0    0 -0.00000000000E+00 -0.00000000000E+00 -0.74505805969E-08  0.93827000000E+00  0.93827000000E+00 0.  1.
     999902    2    1    2    0    0  0.44050809918E-02  0.23510720195E-01  0.15913507232E-01  0.10152002521E+01  0.10147936507E+01 0.  0.
     999903    2    3    3    0    0 -0.96551191698E-01 -0.52395876395E-01 -0.53086638665E-01  0.12350804032E+00  0.19198550375E-01 0.  0.
         14    1    1    2    0    0 -0.44050809918E-02 -0.23510720195E-01 -0.15913507232E-01  0.28729747912E-01  0.00000000000E+00 0.  1.
     999901    1    3    3    0    0  0.10095627269E+00  0.75906596590E-01  0.69000145897E-01  0.89169221177E+00  0.88000000000E+00 0. -1.
        -11    1    4    4    0    0 -0.31426486168E-01 -0.24861351813E-01 -0.12496970347E-01  0.41977925576E-01  0.51100000000E-03 0. -1.
         11    1    4    4    0    0 -0.65124705530E-01 -0.27534524582E-01 -0.40589668318E-01  0.81530114740E-01  0.51100000000E-03 0.  1.
</event>
<event>
 8    1  0.1084146E+005  0.1043930E+01  0.7957747E-01            NaN
         13   -1    0    0    0    0  0.00000000000E+00  0.00000000000E+00  0.74505805969E-08  0.10566000000E+00  0.10566000000E+00 0. -1.
     999900   -1    0    0    0    0 -0.00000000000E+00 -0.00000000000E+00 -0.74505805969E-08  0.93827000000E+00  0.93827000000E+00 0.  1.
     999902    2    1    2    0    0 -0.12038004850E-01  0.17237616126E-02 -0.21069293827E-01  0.10196030590E+01  0.10193128067E+01 0.  0.
     999903    2    3    3    0    0 -0.11188169120E+00 -0.56816392973E-01  0.29472923855E-01  0.13058662095E+00  0.20942707407E-01 0.  0.
         14    1    1    2    0    0  0.12038004850E-01 -0.17237616126E-02  0.21069293827E-01  0.24326940976E-01  0.00000000000E+00 0. -1.
     999901    1    3    3    0    0  0.99843686350E-01  0.58540154586E-01 -0.50542217682E-01  0.88901643808E+00  0.88000000000E+00 0.  1.
        -11    1    4    4    0    0 -0.71449013335E-01 -0.42860054185E-01  0.27587957591E-01  0.87768458323E-01  0.51100000000E-03 0.  1.
         11    1    4    4    0    0 -0.40432677865E-01 -0.13956338788E-01  0.18849662639E-02  0.42818162624E-01  0.51100000000E-03 0. -1.
</event>
<event>
 8    1  0.1084146E+005  0.1043930E+01  0.7957747E-01            NaN
         13   -1    0    0    0    0  0.00000000000E+00  0.00000000000E+00  0.74505805969E-08  0.10566000000E+00  0.10566000000E+00 0. -1.
     999900   -1    0    0    0    0 -0.00000000000E+00 -0.00000000000E+00 -0.74505805969E-08  0.93827000000E+00  0.93827000000E+00 0.  1.
     999902    2    1    2    0    0 -0.14585653037E-01  0.15244247456E-01 -0.10904907041E-01  0.10201803610E+01  0.10199038796E+01 0.  0.
     999903    2    3    3    0    0 -0.72449456621E-01  0.10369972505E+00  0.34534451330E-01  0.13269102215E+00  0.20290941080E-01 0.  0.
         14    1    1    2    0    0  0.14585653037E-01 -0.15244247456E-01  0.10904907041E-01  0.23749639000E-01  0.00000000000E+00 0. -1.
     999901    1    3    3    0    0  0.57863803583E-01 -0.88455477597E-01 -0.45439358372E-01  0.88748933885E+00  0.88000000000E+00 0.  1.
        -11    1    4    4    0    0 -0.16576565808E-01  0.13487870844E-01  0.10820687365E-01  0.23959415476E-01  0.51100000000E-03 0. -1.
         11    1    4    4    0    0 -0.55872890813E-01  0.90211854210E-01  0.23713763965E-01  0.10873160668E+00  0.51100000000E-03 0.  1.
</event>
<event>
 8    1  0.1084146E+005  0.1043930E+01  0.7957747E-01            NaN
         13   -1    0    0    0    0  0.00000000000E+00  0.00000000000E+00  0.74505805969E-08  0.10566000000E+00  0.10566000000E+00 0. -1.
     999900   -1    0    0    0    0 -0.00000000000E+00 -0.00000000000E+00 -0.74505805969E-08  0.93827000000E+00  0.93827000000E+00 0.  1.
     999902    2    1    2    0    0  0.20961648152E-01 -0.18959128026E-02 -0.15087044662E-02  0.10228287828E+01  0.10226110979E+01 0.  0.
     999903    2    3    3    0    0 -0.10124372767E+00 -0.23977975258E-01  0.76494215116E-01  0.13069301575E+00  0.20101336548E-01 0.  0.
         14    1    1    2    0    0 -0.20961648152E-01  0.18959128026E-02  0.15087044662E-02  0.21101217211E-01  0.00000000000E+00 0. -1.
     999901    1    3    3    0    0  0.12220537582E+00  0.22082062455E-01 -0.78002919582E-01  0.89213576704E+00  0.88000000000E+00 0.  1.
        -11    1    4    4    0    0 -0.16238121535E-01 -0.59615995892E-02  0.22512507128E-01  0.28395270008E-01  0.51100000000E-03 0.  1.
         11    1    4    4    0    0 -0.85005606133E-01 -0.18016375668E-01  0.53981707987E-01  0.10229774575E+00  0.51100000000E-03 0. -1.
</event>
<event>
 8    1  0.1084146E+005  0.1043930E+01  0.7957747E-01            NaN
         13   -1    0    0    0    0  0.00000000000E+00  0.00000000000E+00  0.74505805969E-08  0.10566000000E+00  0.10566000000E+00 0.  1.
     999900   -1    0    0    0    0 -0.00000000000E+00 -0.00000000000E+00 -0.74505805969E-08  0.93827000000E+00  0.93827000000E+00 0. -1.
     999902    2    1    2    0    0 -0.18603093933E-01 -0.57823838073E-02 -0.13037939633E-01  0.10204886064E+01  0.10202193376E+01 0.  0.
     999903    2    3    3    0    0  0.13526416376E-01  0.12403405797E+00 -0.31441941990E-01  0.13019465417E+00  0.19865567748E-01 0.  0.
         14    1    1    2    0    0  0.18603093933E-01  0.57823838073E-02  0.13037939633E-01  0.23441393650E-01  0.00000000000E+00 0. -1.
     999901    1    3    3    0    0 -0.32129510309E-01 -0.12981644178E+00  0.18404002356E-01  0.89029395218E+00  0.88000000000E+00 0. -1.
        -11    1    4    4    0    0  0.16538057456E-01  0.81167947897E-01 -0.15013575991E-01  0.84186766747E-01  0.51100000000E-03 0. -1.
         11    1    4    4    0    0 -0.30116410803E-02  0.42866110071E-01 -0.16428365998E-01  0.46007887422E-01  0.51100000000E-03 0.  1.
</event>
<event>
 8    1  0.1084146E+005  0.1043930E+01  0.7957747E-01            NaN
         13   -1    0    0    0    0  0.00000000000E+00  0.00000000000E+00  0.74505805969E-08  0.10566000000E+00  0.10566000000E+00 0. -1.
     999900   -1    0    0    0    0 -0.00000000000E+00 -0.00000000000E+00 -0.74505805969E-08  0.93827000000E+00  0.93827000000E+00 0. -1.
     999902    2    1    2    0    0 -0.11965571336E-01  0.18399413504E-01  0.88299436109E-02  0.10202724173E+01  0.10199981001E+01 0.  0.
     999903    2    3    3    0    0 -0.60757411318E-02  0.11921766072E+00  0.55862116164E-01  0.13324872296E+00  0.19618381491E-01 0.  0.
         14    1    1    2    0    0  0.11965571336E-01 -0.18399413504E-01 -0.88299436109E-02  0.23657582693E-01  0.00000000000E+00 0. -1.
     999901    1    3    3    0    0 -0.58898302046E-02 -0.10081824721E+00 -0.47032172554E-01  0.88702369434E+00  0.88000000000E+00 0. -1.
        -11    1    4    4    0    0  0.67348834123E-02  0.25400742387E-01  0.11869631162E-01  0.28839307088E-01  0.51100000000E-03 0. -1.
         11    1    4    4    0    0 -0.12810624544E-01  0.93816918328E-01  0.43992485003E-01  0.10440941588E+00  0.51100000000E-03 0.  1.
</event>
<event>
 8    1  0.1084146E+005  0.1043930E+01  0.7957747E-01            NaN
         13   -1    0    0    0    0  0.00000000000E+00  0.00000000000E+00  0.74505805969E-08  0.10566000000E+00  0.10566000000E+00 0.  1.
     999900   -1    0    0    0    0 -0.00000000000E+00 -0.00000000000E+00 -0.74505805969E-08  0.93827000000E+00  0.93827000000E+00 0.  1.
     999902    2    1    2    0    0  0.73073782649E-02 -0.17680669039E-01 -0.14464865498E-01  0.10199459184E+01  0.10196638860E+01 0.  0.
     999903    2    3    3    0    0  0.65946211941E-01  0.98981109401E-01 -0.47755046813E-01  0.12968937140E+00  0.19814784128E-01 0.  0.
         14    1    1    2    0    0 -0.73073782649E-02  0.17680669039E-01  0.14464865498E-01  0.23984081568E-01  0.00000000000E+00 0.  1.
     999901    1    3    3    0    0 -0.58638833677E-01 -0.11666177844E+00  0.33290181316E-01  0.89025654703E+00  0.88000000000E+00 0. -1.
        -11    1    4    4    0    0  0.46633021932E-01  0.83614452752E-01 -0.40545823092E-01  0.10397230561E+00  0.51100000000E-03 0. -1.
         11    1    4    4    0    0  0.19313190010E-01  0.15366656649E-01 -0.72092237214E-02  0.25717065785E-01  0.51100000000E-03 0.  1.
</event>
<event>
 8    1  0.1084146E+005  0.1043930E+01  0.7957747E-01            NaN
         13   -1    0    0    0    0  0.00000000000E+00  0.00000000000E+00  0.74505805969E-08  0.10566000000E+00  0.10566000000E+00 0.  1.
     999900   -1    0    0    0    0 -0.00000000000E+00 -0.00000000000E+00 -0.74505805969E-08  0.93827000000E+00  0.93827000000E+00 0. -1.
     999902    2    1    2    0    0  0.15473948857E-01 -0.16095208363E-01  0.86044996128E-02  0.10200022705E+01  0.10197215775E+01 0.  0.
     999903    2    3    3    0    0  0.11018248693E+00 -0.58931454143E-01  0.42371339410E-01  0.13324139484E+00  0.18569926811E-01 0.  0.
         14    1    1    2    0    0 -0.15473948857E-01  0.16095208363E-01 -0.86044996128E-02  0.23927729501E-01  0.00000000000E+00 0. -1.
     999901    1    3    3    0    0 -0.94708538070E-01  0.42836245780E-01 -0.33766839798E-01  0.88676087566E+00  0.88000000000E+00 0.  1.
        -11    1    4    4    0    0  0.60500756250E-01 -0.42390590808E-01  0.22397049961E-01  0.77195807294E-01  0.51100000000E-03 0. -1.
         11    1    4    4    0    0  0.49681730677E-01 -0.16540863334E-01  0.19974289449E-01  0.56045587542E-01  0.51100000000E-03 0.  1.
</event>
<event>
 8    1  0.1084146E+005  0.1043930E+01  0.7957747E-01            NaN
         13   -1    0    0    0    0  0.00000000000E+00  0.00000000000E+00  0.74505805969E-08  0.10566000000E+00  0.10566000000E+00 0. -1.
     999900   -1    0    0    0    0 -0.00000000000E+00 -0.00000000000E+00 -0.74505805969E-08  0.93827000000E+00  0.93827000000E+00 0. -1.
     999902    2    1    2    0    0  0.74169694433E-02 -0.18013735748E-01 -0.18070596222E-01  0.10173583505E+01  0.10170112884E+01 0.  0.
     999903    2    3    3    0    0 -0.12076657627E+00 -0.63244825565E-02 -0.36305558005E-01  0.12780780448E+00  0.19803442140E-01 0.  0.
         14    1    1    2    0    0 -0.74169694433E-02  0.18013735748E-01  0.18070596222E-01  0.26571649537E-01  0.00000000000E+00 0. -1.
     999901    1    3    3    0    0  0.12818354571E+00 -0.11689253192E-01  0.18234961784E-01  0.88955054598E+00  0.88000000000E+00 0.  1.
        -11    1    4    4    0    0 -0.16247904800E-01  0.55663801854E-02 -0.28183683468E-02  0.17412160116E-01  0.51100000000E-03 0. -1.
         11    1    4    4    0    0 -0.10451867147E+00 -0.11890862742E-01 -0.33487189659E-01  0.11039564436E+00  0.51100000000E-03 0.  1.
</event>
<event>
 8    1  0.1084146E+005  0.1043930E+01  0.7957747E-01            NaN
         13   -1    0    0    0    0  0.00000000000E+00  0.00000000000E+00  0.74505805969E-08  0.10566000000E+00  0.10566000000E+00 0. -1.
     999900   -1    0    0    0    0 -0.00000000000E+00 -0.00000000000E+00 -0.74505805969E-08  0.93827000000E+00  0.93827000000E+00 0. -1.
     999902    2    1    2    0    0  0.10876901098E-01 -0.20441791639E-01  0.43812254812E-02  0.10203637326E+01  0.10200915536E+01 0.  0.
     999903    2    3    3    0    0 -0.21795146038E-01  0.87837776909E-01 -0.88667536310E-01  0.12825947876E+00  0.19951402300E-01 0.  0.
         14    1    1    2    0    0 -0.10876901098E-01  0.20441791639E-01 -0.43812254812E-02  0.23566267410E-01  0.00000000000E+00 0. -1.
     999901    1    3    3    0    0  0.32672047136E-01 -0.10827956855E+00  0.93048761791E-01  0.89210425383E+00  0.88000000000E+00 0.  1.
        -11    1    4    4    0    0 -0.11036562685E-01  0.60211213755E-01 -0.47293568003E-01  0.77357214745E-01  0.51100000000E-03 0.  1.
         11    1    4    4    0    0 -0.10758583354E-01  0.27626563154E-01 -0.41373968307E-01  0.50902264016E-01  0.51100000000E-03 0. -1.
</event>
<event>
 8    1  0.1084146E+005  0.1043930E+01  0.7957747E-01            NaN
         13   -1    0    0    0    0  0.00000000000E+00  0.00000000000E+00  0.74505805969E-08  0.10566000000E+00  0.10566000000E+00 0.  1.
     999900   -1    0    0    0    0 -0.00000000000E+00 -0.00000000000E+00 -0.74505805969E-08  0.93827000000E+00  0.93827000000E+00 0. -1.
     999902    2    1    2    0    0 -0.47136896960E-02  0.55916874169E-02 -0.23766811714E-01  0.10190634124E+01  0.10187599773E+01 0.  0.
     999903    2    3    3    0    0  0.58628050320E-01  0.11287174427E+00 -0.20022658058E-01  0.13028042130E+00  0.19869635111E-01 0.  0.
         14    1    1    2    0    0  0.47136896960E-02 -0.55916874169E-02  0.23766811714E-01  0.24866587578E-01  0.00000000000E+00 0.  1.
     999901    1    3    3    0    0 -0.63341740016E-01 -0.10728005685E+00 -0.37441536558E-02  0.88878299112E+00  0.88000000000E+00 0.  1.
        -11    1    4    4    0    0  0.65536402758E-02  0.24286212787E-01 -0.98487442889E-02  0.27019052860E-01  0.51100000000E-03 0.  1.
         11    1    4    4    0    0  0.52074410045E-01  0.88585531480E-01 -0.10173913769E-01  0.10326136844E+00  0.51100000000E-03 0. -1.
</event>
<event>
 7    1  0.1084146E+005  0.1043930E+01  0.7957747E-01            NaN
         13   -1    0    0    0    0  0.00000000000E+00  0.00000000000E+00  0.74505805969E-08  0.10566000000E+00  0.10566000000E+00 0. -1.
     999900   -1    0    0    0    0 -0.00000000000E+00 -0.00000000000E+00 -0.74505805969E-08  0.93827000000E+00  0.93827000000E+00 0. -1.
     999902    2    1    2    0    0 -0.47868252115E-02 -0.93977117811E-02  0.18742679247E-01  0.10224237519E+01  0.10221975395E+01 0.  0.
         14    1    1    2    0    0  0.47868252115E-02  0.93977117811E-02 -0.18742679247E-01  0.21506248108E-01  0.00000000000E+00 0.  1.
     999901    1    3    3    0    0 -0.10870119902E+00  0.21797740373E-01 -0.49963353408E-01  0.88836221714E+00  0.88000000000E+00 0.  1.
        -11    1    3    3    0    0  0.16326822948E-01 -0.21421068566E-01  0.14495944603E-01  0.30591189206E-01  0.51100000000E-03 0.  1.
         11    1    3    3    0    0  0.87587550862E-01 -0.97743835878E-02  0.54210088051E-01  0.10347034555E+00  0.51100000000E-03 0. -1.
</event>
<event>
 8    1  0.1084146E+005  0.1043930E+01  0.7957747E-01            NaN
         13   -1    0    0    0    0  0.00000000000E+00  0.00000000000E+00  0.74505805969E-08  0.10566000000E+00  0.10566000000E+00 0. -1.
     999900   -1    0    0    0    0 -0.00000000000E+00 -0.00000000000E+00 -0.74505805969E-08  0.93827000000E+00  0.93827000000E+00 0. -1.
     999902    2    1    2    0    0 -0.10264126457E-01 -0.75830597372E-02 -0.19396805606E-01  0.10207116634E+01  0.10204475531E+01 0.  0.
     999903    2    3    3    0    0  0.46369849632E-01 -0.11534808226E+00 -0.39611980626E-01  0.13210074706E+00  0.20643529973E-01 0.  0.
         14    1    1    2    0    0  0.10264126457E-01  0.75830597372E-02  0.19396805606E-01  0.23218336603E-01  0.00000000000E+00 0. -1.
     999901    1    3    3    0    0 -0.56633976088E-01  0.10776502252E+00  0.20215175019E-01  0.88861091633E+00  0.88000000000E+00 0. -1.
        -11    1    4    4    0    0  0.29087774575E-01 -0.70998146939E-01 -0.13822505688E-01  0.77962544102E-01  0.51100000000E-03 0. -1.
         11    1    4    4    0    0  0.17282075057E-01 -0.44349935321E-01 -0.25789474938E-01  0.54138202961E-01  0.51100000000E-03 0.  1.
</event>
<event>
 8    1  0.1084146E+005  0.1043930E+01  0.7957747E-01            NaN
         13   -1    0    0    0    0  0.00000000000E+00  0.00000000000E+00  0.74505805969E-08  0.10566000000E+00  0.10566000000E+00 0.  1.
     999900   -1    0    0    0    0 -0.00000000000E+00 -0.00000000000E+00 -0.74505805969E-08  0.93827000000E+00  0.93827000000E+00 0.  1.
     999902    2    1    2    0    0  0.15113122142E-01  0.55828603391E-03  0.18786944176E-01  0.10198122179E+01  0.10195269944E+01 0.  0.
     999903    2    3    3    0    0 -0.46058950195E-01 -0.11473230725E+00  0.34969505942E-01  0.13003931501E+00  0.20060605204E-01 0.  0.
         14    1    1    2    0    0 -0.15113122142E-01 -0.55828603391E-03 -0.18786944176E-01  0.24117782146E-01  0.00000000000E+00 0. -1.
     999901    1    3    3    0    0  0.61172072337E-01  0.11529059329E+00 -0.16182561767E-01  0.88977290285E+00  0.88000000000E+00 0. -1.
        -11    1    4    4    0    0 -0.22473936649E-01 -0.81156212916E-01  0.23871048185E-01  0.87529976499E-01  0.51100000000E-03 0.  1.
         11    1    4    4    0    0 -0.23585013546E-01 -0.33576094337E-01  0.11098457757E-01  0.42509338509E-01  0.51100000000E-03 0. -1.
</event>
<event>
 8    1  0.1084146E+005  0.1043930E+01  0.7957747E-01            NaN
         13   -1    0    0    0    0  0.00000000000E+00  0.00000000000E+00  0.74505805969E-08  0.10566000000E+00  0.10566000000E+00 0.  1.
     999900   -1    0    0    0    0 -0.00000000000E+00 -0.00000000000E+00 -0.74505805969E-08  0.93827000000E+00  0.93827000000E+00 0.  1.
     999902    2    1    2    0    0 -0.17780937235E-01 -0.75107539181E-02  0.10761197884E-01  0.10218307572E+01  0.10215917579E+01 0.  0.
     999903    2    3    3    0    0 -0.10723348727E+00  0.76393972870E-01  0.53025815106E-02  0.13330863681E+00  0.20199390941E-01 0.  0.
         14    1    1    2    0    0  0.17780937235E-01  0.75107539181E-02 -0.10761197884E-01  0.22099242821E-01  0.00000000000E+00 0. -1.
     999901    1    3    3    0    0  0.89452550040E-01 -0.83904726788E-01  0.54586163735E-02  0.88852212037E+00  0.88000000000E+00 0. -1.
        -11    1    4    4    0    0 -0.52122100063E-01  0.47561128481E-01 -0.25896366414E-02  0.70609783998E-01  0.51100000000E-03 0. -1.
         11    1    4    4    0    0 -0.55111387212E-01  0.28832844390E-01  0.78922181521E-02  0.62698852816E-01  0.51100000000E-03 0.  1.
</event>
<event>
 8    1  0.1084146E+005  0.1043930E+01  0.7957747E-01            NaN
         13   -1    0    0    0    0  0.00000000000E+00  0.00000000000E+00  0.74505805969E-08  0.10566000000E+00  0.10566000000E+00 0.  1.
     999900   -1    0    0    0    0 -0.00000000000E+00 -0.00000000000E+00 -0.74505805969E-08  0.93827000000E+00  0.93827000000E+00 0.  1.
     999902    2    1    2    0    0  0.23529169491E-01 -0.32180565044E-02  0.52943531908E-03  0.10201758844E+01  0.10198992976E+01 0.  0.
     999903    2    3    3    0    0  0.10145326314E+00  0.38638723298E-01 -0.73872350031E-01  0.13261755956E+00  0.18562797863E-01 0.  0.
         14    1    1    2    0    0 -0.23529169491E-01  0.32180565044E-02 -0.52943531908E-03  0.23754115567E-01  0.00000000000E+00 0. -1.
     999901    1    3    3    0    0 -0.77924093651E-01 -0.41856779802E-01  0.74401785350E-01  0.88755832487E+00  0.88000000000E+00 0. -1.
        -11    1    4    4    0    0  0.54217180586E-01  0.27008761696E-01 -0.32427480953E-01  0.68707921822E-01  0.51100000000E-03 0.  1.
         11    1    4    4    0    0  0.47236082556E-01  0.11629961602E-01 -0.41444869077E-01  0.63909637739E-01  0.51100000000E-03 0. -1.
</event>
<event>
 8    1  0.1084146E+005  0.1043930E+01  0.7957747E-01            NaN
         13   -1    0    0    0    0  0.00000000000E+00  0.00000000000E+00  0.74505805969E-08  0.10566000000E+00  0.10566000000E+00 0.  1.
     999900   -1    0    0    0    0 -0.00000000000E+00 -0.00000000000E+00 -0.74505805969E-08  0.93827000000E+00  0.93827000000E+00 0. -1.
     999902    2    1    2    0    0  0.35356581922E-02  0.17563887896E-01 -0.16103487781E-01  0.10198403060E+01  0.10195557545E+01 0.  0.
     999903    2    3    3    0    0  0.80145470831E-01  0.50772576357E-02  0.98935119097E-01  0.12896497221E+00  0.19867844061E-01 0.  0.
         14    1    1    2    0    0 -0.35356581922E-02 -0.17563887896E-01  0.16103487781E-01  0.24089693970E-01  0.00000000000E+00 0. -1.
     999901    1    3    3    0    0 -0.76609812639E-01  0.12486630260E-01 -0.11503860688E+00  0.89087533382E+00  0.88000000000E+00 0. -1.
        -11    1    4    4    0    0  0.56007139264E-01  0.10504664551E-01  0.59331162268E-01  0.82265397118E-01  0.51100000000E-03 0. -1.
         11    1    4    4    0    0  0.24138331567E-01 -0.54274069153E-02  0.39603956829E-01  0.46699575097E-01  0.51100000000E-03 0.  1.
</event>
<event>
 8    1  0.1084146E+005  0.1043930E+01  0.7957747E-01            NaN
         13   -1    0    0    0    0  0.00000000000E+00  0.00000000000E+00  0.74505805969E-08  0.10566000000E+00  0.10566000000E+00 0.  1.
     999900   -1    0    0    0    0 -0.00000000000E+00 -0.00000000000E+00 -0.74505805969E-08  0.93827000000E+00  0.93827000000E+00 0. -1.
     999902    2    1    2    0    0 -0.65320685718E-02  0.22658287870E-01 -0.39691999927E-03  0.10203456095E+01  0.10200730069E+01 0.  0.
     999903    2    3    3    0    0 -0.61114189550E-01 -0.11115168129E+00  0.52368414431E-02  0.12854066725E+00  0.20140462075E-01 0.  0.
         14    1    1    2    0    0  0.65320685718E-02 -0.22658287870E-01  0.39691999927E-03  0.23584390484E-01  0.00000000000E+00 0.  1.
     999901    1    3    3    0    0  0.54582120979E-01  0.13380996916E+00 -0.56337614424E-02  0.89180494226E+00  0.88000000000E+00 0.  1.
        -11    1    4    4    0    0 -0.31714583891E-01 -0.76512207469E-01  0.20796515191E-03  0.82826548242E-01  0.51100000000E-03 0.  1.
         11    1    4    4    0    0 -0.29399605660E-01 -0.34639473817E-01  0.50288762912E-02  0.45714119011E-01  0.51100000000E-03 0. -1.
</event>
<event>
 8    1  0.1084146E+005  0.1043930E+01  0.7957747E-01            NaN
         13   -1    0    0    0    0  0.00000000000E+00  0.00000000000E+00  0.74505805969E-08  0.10566000000E+00  0.10566000000E+00 0.  1.
     999900   -1    0    0    0    0 -0.00000000000E+00 -0.00000000000E+00 -0.74505805969E-08  0.93827000000E+00  0.93827000000E+00 0. -1.
     999902    2    1    2    0    0 -0.37042096694E-02 -0.20520867192E-01 -0.13032493030E-01  0.10193398997E+01  0.10190432562E+01 0.  0.
     999903    2    3    3    0    0  0.84038249506E-01 -0.94898638953E-01  0.27633746164E-01  0.13092302957E+00  0.17579439386E-01 0.  0.
         14    1    1    2    0    0  0.37042096694E-02  0.20520867192E-01  0.13032493030E-01  0.24590100328E-01  0.00000000000E+00 0.  1.
     999901    1    3    3    0    0 -0.87742459175E-01  0.74377771762E-01 -0.40666239194E-01  0.88841687010E+00  0.88000000000E+00 0. -1.
        -11    1    4    4    0    0  0.15462177104E-01 -0.28890132371E-01  0.61339950186E-02  0.33340751118E-01  0.51100000000E-03 0. -1.
         11    1    4    4    0    0  0.68576072402E-01 -0.66008506582E-01  0.21499751146E-01  0.97582278451E-01  0.51100000000E-03 0.  1.
</event>
<event>
 8    1  0.1084146E+005  0.1043930E+01  0.7957747E-01            NaN
         13   -1    0    0    0    0  0.00000000000E+00  0.00000000000E+00  0.74505805969E-08  0.10566000000E+00  0.10566000000E+00 0.  1.
     999900   -1    0    0    0    0 -0.00000000000E+00 -0.00000000000E+00 -0.74505805969E-08  0.93827000000E+00  0.93827000000E+00 0.  1.
     999902    2    1    2    0    0 -0.32772172272E-02  0.50676952110E-02 -0.22176431843E-01  0.10209470538E+01  0.10206883319E+01 0.  0.
     999903    2    3    3    0    0 -0.65094728702E-02 -0.95335358571E-01 -0.89920088872E-01  0.13264506473E+00  0.19439315420E-01 0.  0.
         14    1    1    2    0    0  0.32772172272E-02 -0.50676952110E-02  0.22176431843E-01  0.22982946217E-01  0.00000000000E+00 0.  1.
     999901    1    3    3    0    0  0.32322556429E-02  0.10040305378E+00  0.67743657029E-01  0.88830198905E+00  0.88000000000E+00 0. -1.
        -11    1    4    4    0    0  0.50772872306E-02 -0.47920021035E-01 -0.51451437440E-01  0.70495523243E-01  0.51100000000E-03 0.  1.
         11    1    4    4    0    0 -0.11586760101E-01 -0.47415337537E-01 -0.38468651432E-01  0.62149541489E-01  0.51100000000E-03 0. -1.
</event>
<event>
 8    1  0.1084146E+005  0.1043930E+01  0.7957747E-01            NaN
         13   -1    0    0    0    0  0.00000000000E+00  0.00000000000E+00  0.74505805969E-08  0.10566000000E+00  0.10566000000E+00 0.  1.
     999900   -1    0    0    0    0 -0.00000000000E+00 -0.00000000000E+00 -0.74505805969E-08  0.93827000000E+00  0.93827000000E+00 0. -1.
     999902    2    1    2    0    0  0.81268008710E-02 -0.16704869945E-01 -0.14924540262E-01  0.10201006174E+01  0.10198222542E+01 0.  0.
     999903    2    3    3    0    0 -0.95525475219E-01  0.65171610533E-01  0.51050769822E-01  0.12780005486E+00  0.18820671826E-01 0.  0.
         14    1    1    2    0    0 -0.81268008710E-02  0.16704869945E-01  0.14924540262E-01  0.23829382583E-01  0.00000000000E+00 0. -1.
     999901    1    3    3    0    0  0.10365227609E+00 -0.81876480478E-01 -0.65975310084E-01  0.89230056255E+00  0.88000000000E+00 0. -1.
        -11    1    4    4    0    0 -0.58421824545E-01  0.39067558267E-01  0.40872470189E-01  0.81303158810E-01  0.51100000000E-03 0.  1.
         11    1    4    4    0    0 -0.37103650674E-01  0.26104052267E-01  0.10178299633E-01  0.46496896052E-01  0.51100000000E-03 0. -1.
</event>
<event>
 8    1  0.1084146E+005  0.1043930E+01  0.7957747E-01            NaN
         13   -1    0    0    0    0  0.00000000000E+00  0.00000000000E+00  0.74505805969E-08  0.10566000000E+00  0.10566000000E+00 0.  1.
     999900   -1    0    0    0    0 -0.00000000000E+00 -0.00000000000E+00 -0.74505805969E-08  0.93827000000E+00  0.93827000000E+00 0. -1.
     999902    2    1    2    0    0  0.13733031337E-02 -0.23001589640E-01 -0.49714291618E-02  0.10203572574E+01  0.10200849271E+01 0.  0.
     999903    2    3    3    0    0  0.92384378588E-01 -0.75025399293E-01  0.53942954967E-01  0.13217912361E+00  0.19944783301E-01 0.  0.
         14    1    1    2    0    0 -0.13733031337E-02  0.23001589640E-01  0.49714291618E-02  0.23572742636E-01  0.00000000000E+00 0. -1.
     999901    1    3    3    0    0 -0.91011075455E-01  0.52023809653E-01 -0.58914384129E-01  0.88817813376E+00  0.88000000000E+00 0. -1.
        -11    1    4    4    0    0  0.30255269225E-01 -0.25801188560E-01  0.28515174563E-01  0.48933209054E-01  0.51100000000E-03 0. -1.
         11    1    4    4    0    0  0.62129109363E-01 -0.49224210733E-01  0.25427780404E-01  0.83245914553E-01  0.51100000000E-03 0.  1.
</event>
<event>
 8    1  0.1084146E+005  0.1043930E+01  0.7957747E-01            NaN
         13   -1    0    0    0    0  0.00000000000E+00  0.00000000000E+00  0.74505805969E-08  0.10566000000E+00  0.10566000000E+00 0. -1.
     999900   -1    0    0    0    0 -0.00000000000E+00 -0.00000000000E+00 -0.74505805969E-08  0.93827000000E+00  0.93827000000E+00 0.  1.
     999902    2    1    2    0    0 -0.11753199510E-01  0.19056602538E-01  0.77467004161E-02  0.10202381625E+01  0.10199630410E+01 0.  0.
     999903    2    3    3    0    0  0.87117088301E-01  0.95085830008E-01 -0.12718814487E-01  0.13120800855E+00  0.20568692819E-01 0.  0.
         14    1    1    2    0    0  0.11753199510E-01 -0.19056602538E-01 -0.77467004161E-02  0.23691837547E-01  0.00000000000E+00 0. -1.
     999901    1    3    3    0    0 -0.98870287812E-01 -0.76029227469E-01  0.20465514903E-01  0.88903015390E+00  0.88000000000E+00 0. -1.
        -11    1    4    4    0    0  0.46740721371E-01  0.51647051956E-01  0.34215676179E-02  0.69742965638E-01  0.51100000000E-03 0.  1.
         11    1    4    4    0    0  0.40376366930E-01  0.43438778052E-01 -0.16140382105E-01  0.61465042915E-01  0.51100000000E-03 0. -1.
</event>
<event>
 8    1  0.1132336E+005  0.1043930E+01  0.7957747E-01            NaN
         13   -1    0    0    0    0  0.00000000000E+00  0.00000000000E+00  0.74505805969E-08  0.10566000000E+00  0.10566000000E+00 0.  1.
     999900   -1    0    0    0    0 -0.00000000000E+00 -0.00000000000E+00 -0.74505805969E-08  0.93827000000E+00  0.93827000000E+00 0. -1.
     999902    2    1    2    0    0  0.18131034713E-01  0.13656272654E-01  0.62369742325E-02  0.10203900754E+01  0.10201185117E+01 0.  0.
     999903    2    3    3    0    0  0.41813107068E-01 -0.34481789189E-01  0.11832102140E+00  0.13166011238E+00  0.19929660722E-01 0.  0.
         14    1    1    2    0    0 -0.18131034713E-01 -0.13656272654E-01 -0.62369742325E-02  0.23539924599E-01  0.00000000000E+00 0. -1.
     999901    1    3    3    0    0 -0.23682072355E-01  0.48138061844E-01 -0.11208404717E+00  0.88872996303E+00  0.88000000000E+00 0. -1.
        -11    1    4    4    0    0  0.88864692652E-02 -0.15957979523E-01  0.54635519333E-01  0.57610134007E-01  0.51100000000E-03 0. -1.
         11    1    4    4    0    0  0.32926637802E-01 -0.18523809666E-01  0.63685502070E-01  0.74049978369E-01  0.51100000000E-03 0.  1.
</event>
<event>
 8    1  0.1084146E+005  0.1043930E+01  0.7957747E-01            NaN
         13   -1    0    0    0    0  0.00000000000E+00  0.00000000000E+00  0.74505805969E-08  0.10566000000E+00  0.10566000000E+00 0. -1.
     999900   -1    0    0    0    0 -0.00000000000E+00 -0.00000000000E+00 -0.74505805969E-08  0.93827000000E+00  0.93827000000E+00 0.  1.
     999902    2    1    2    0    0  0.14178225543E-01  0.10580840597E-01 -0.20626469082E-01  0.10167559776E+01  0.10163927836E+01 0.  0.
     999903    2    3    3    0    0  0.12435979730E+00  0.97555513568E-02 -0.30039406573E-01  0.12983475039E+00  0.19853626778E-01 0.  0.
         14    1    1    2    0    0 -0.14178225543E-01 -0.10580840597E-01  0.20626469082E-01  0.27174022412E-01  0.00000000000E+00 0. -1.
     999901    1    3    3    0    0 -0.11018157175E+00  0.82528924006E-03  0.94129374910E-02  0.88692122719E+00  0.88000000000E+00 0.  1.
        -11    1    4    4    0    0  0.65070733435E-01  0.47544366440E-02 -0.25867557243E-01  0.70186869544E-01  0.51100000000E-03 0.  1.
         11    1    4    4    0    0  0.59289063862E-01  0.50011147129E-02 -0.41718493300E-02  0.59647880849E-01  0.51100000000E-03 0. -1.
</event>
<event>
 8    1  0.1084146E+005  0.1043930E+01  0.7957747E-01            NaN
         13   -1    0    0    0    0  0.00000000000E+00  0.00000000000E+00  0.74505805969E-08  0.10566000000E+00  0.10566000000E+00 0.  1.
     999900   -1    0    0    0    0 -0.00000000000E+00 -0.00000000000E+00 -0.74505805969E-08  0.93827000000E+00  0.93827000000E+00 0. -1.
     999902    2    1    2    0    0  0.46392604291E-02  0.22901606382E-01  0.47007169518E-02  0.10200950875E+01  0.10198165936E+01 0.  0.
     999903    2    3    3    0    0 -0.12659185632E+00  0.12682037953E-01 -0.17515106802E-01  0.13002790558E+00  0.20350555009E-01 0.  0.
         14    1    1    2    0    0 -0.46392604291E-02 -0.22901606382E-01 -0.47007169518E-02  0.23834912462E-01  0.00000000000E+00 0. -1.
     999901    1    3    3    0    0  0.13123111675E+00  0.10219568429E-01  0.22215823754E-01  0.89006718196E+00  0.88000000000E+00 0.  1.
        -11    1    4    4    0    0 -0.56077422800E-01  0.14072382695E-01 -0.22344650087E-02  0.57861587063E-01  0.51100000000E-03 0.  1.
         11    1    4    4    0    0 -0.70514433519E-01 -0.13903447422E-02 -0.15280641793E-01  0.72166318512E-01  0.51100000000E-03 0. -1.
</event>
<event>
 8    1  0.1084146E+005  0.1043930E+01  0.7957747E-01            NaN
         13   -1    0    0    0    0  0.00000000000E+00  0.00000000000E+00  0.74505805969E-08  0.10566000000E+00  0.10566000000E+00 0. -1.
     999900   -1    0    0    0    0 -0.00000000000E+00 -0.00000000000E+00 -0.74505805969E-08  0.93827000000E+00  0.93827000000E+00 0.  1.
     999902    2    1    2    0    0 -0.22555372002E-01  0.29572004983E-02 -0.40105244594E-02  0.10208307760E+01  0.10205693995E+01 0.  0.
     999903    2    3    3    0    0  0.27464157983E-01 -0.51461319213E-01  0.11428688325E+00  0.12984390446E+00  0.19884679877E-01 0.  0.
         14    1    1    2    0    0  0.22555372002E-01 -0.29572004983E-02  0.40105244594E-02  0.23099223956E-01  0.00000000000E+00 0. -1.
     999901    1    3    3    0    0 -0.50019529985E-01  0.54418519711E-01 -0.11829740771E+00  0.89098687159E+00  0.88000000000E+00 0.  1.
        -11    1    4    4    0    0  0.22828338722E-01 -0.21721097029E-01  0.57360556199E-01  0.65447945983E-01  0.51100000000E-03 0.  1.
         11    1    4    4    0    0  0.46358192615E-02 -0.29740222184E-01  0.56926327048E-01  0.64395958476E-01  0.51100000000E-03 0. -1.
</event>
<event>
 8    1  0.1084146E+005  0.1043930E+01  0.7957747E-01            NaN
         13   -1    0    0    0    0  0.00000000000E+00  0.00000000000E+00  0.74505805969E-08  0.10566000000E+00  0.10566000000E+00 0.  1.
     999900   -1    0    0    0    0 -0.00000000000E+00 -0.00000000000E+00 -0.74505805969E-08  0.93827000000E+00  0.93827000000E+00 0. -1.
     999902    2    1    2    0    0  0.65173681958E-02 -0.67139831413E-03  0.22781676234E-01  0.10202249027E+01  0.10199494696E+01 0.  0.
     999903    2    3    3    0    0  0.96956097860E-01 -0.85576266028E-01 -0.48399212955E-02  0.13109557973E+00  0.20948603013E-01 0.  0.
         14    1    1    2    0    0 -0.65173681958E-02  0.67139831413E-03 -0.22781676234E-01  0.23705097256E-01  0.00000000000E+00 0. -1.
     999901    1    3    3    0    0 -0.90438729664E-01  0.84904867714E-01  0.27621597530E-01  0.88912932301E+00  0.88000000000E+00 0. -1.
        -11    1    4    4    0    0  0.37482114086E-02 -0.35145636777E-02 -0.45913278020E-02  0.69096062546E-02  0.51100000000E-03 0. -1.
         11    1    4    4    0    0  0.93207886451E-01 -0.82061702350E-01 -0.24859349353E-03  0.12418597348E+00  0.51100000000E-03 0.  1.
</event>
<event>
 8    1  0.1084146E+005  0.1043930E+01  0.7957747E-01            NaN
         13   -1    0    0    0    0  0.00000000000E+00  0.00000000000E+00  0.74505805969E-08  0.10566000000E+00  0.10566000000E+00 0.  1.
     999900   -1    0    0    0    0 -0.00000000000E+00 -0.00000000000E+00 -0.74505805969E-08  0.93827000000E+00  0.93827000000E+00 0. -1.
     999902    2    1    2    0    0  0.17278173268E-01  0.73155888362E-03  0.15852188095E-01  0.10204701978E+01  0.10202005011E+01 0.  0.
     999903    2    3    3    0    0  0.16897528999E-01  0.11693574678E+00 -0.51397997315E-01  0.13028698883E+00  0.19324853619E-01 0.  0.
         14    1    1    2    0    0 -0.17278173268E-01 -0.73155888362E-03 -0.15852188095E-01  0.23459802158E-01  0.00000000000E+00 0.  1.
     999901    1    3    3    0    0  0.38064426946E-03 -0.11620418790E+00  0.67250185410E-01  0.89018320902E+00  0.88000000000E+00 0.  1.
        -11    1    4    4    0    0  0.14521079670E-01  0.62420160752E-01 -0.36352600781E-01  0.73681143637E-01  0.51100000000E-03 0. -1.
         11    1    4    4    0    0  0.23764493291E-02  0.54515586032E-01 -0.15045396534E-01  0.56605845190E-01  0.51100000000E-03 0.  1.
</event>
<event>
 8    1  0.1084146E+005  0.1043930E+01  0.7957747E-01            NaN
         13   -1    0    0    0    0  0.00000000000E+00  0.00000000000E+00  0.74505805969E-08  0.10566000000E+00  0.10566000000E+00 0. -1.
     999900   -1    0    0    0    0 -0.00000000000E+00 -0.00000000000E+00 -0.74505805969E-08  0.93827000000E+00  0.93827000000E+00 0. -1.
     999902    2    1    2    0    0 -0.12974905890E-01  0.42935950683E-02  0.19301172638E-01  0.10202800865E+01  0.10200059493E+01 0.  0.
     999903    2    3    3    0    0 -0.96941101651E-01  0.13296289061E-02 -0.84295905540E-01  0.13022870503E+00  0.21315975692E-01 0.  0.
         14    1    1    2    0    0  0.12974905890E-01 -0.42935950683E-02 -0.19301172638E-01  0.23649913460E-01  0.00000000000E+00 0.  1.
     999901    1    3    3    0    0  0.83966195761E-01  0.29639661622E-02  0.10359707818E+00  0.89005138151E+00  0.88000000000E+00 0.  1.
        -11    1    4    4    0    0 -0.40478302000E-01 -0.92205961432E-02 -0.40443936889E-01  0.57961068642E-01  0.51100000000E-03 0.  1.
         11    1    4    4    0    0 -0.56462799651E-01  0.10550225049E-01 -0.43851968651E-01  0.72267636385E-01  0.51100000000E-03 0. -1.
</event>
<event>
 8    1  0.1084146E+005  0.1043930E+01  0.7957747E-01            NaN
         13   -1    0    0    0    0  0.00000000000E+00  0.00000000000E+00  0.74505805969E-08  0.10566000000E+00  0.10566000000E+00 0.  1.
     999900   -1    0    0    0    0 -0.00000000000E+00 -0.00000000000E+00 -0.74505805969E-08  0.93827000000E+00  0.93827000000E+00 0.  1.
     999902    2    1    2    0    0  0.83273635458E-02 -0.22651865834E-01 -0.14884905185E-02  0.10197500990E+01  0.10194633867E+01 0.  0.
     999903    2    3    3    0    0  0.93850459660E-01  0.50357827081E-01 -0.71376552510E-01  0.12984619606E+00  0.20532969955E-01 0.  0.
         14    1    1    2    0    0 -0.83273635458E-02  0.22651865834E-01  0.14884905185E-02  0.24179901021E-01  0.00000000000E+00 0. -1.
     999901    1    3    3    0    0 -0.85523096114E-01 -0.73009692915E-01  0.69888061991E-01  0.88990390292E+00  0.88000000000E+00 0. -1.
        -11    1    4    4    0    0  0.43623981928E-01  0.34724808081E-01 -0.39557630901E-01  0.68366156679E-01  0.51100000000E-03 0.  1.
         11    1    4    4    0    0  0.50226477732E-01  0.15633019000E-01 -0.31818921609E-01  0.61480039377E-01  0.51100000000E-03 0. -1.
</event>
<event>
 8    1  0.1084146E+005  0.1043930E+01  0.7957747E-01            NaN
         13   -1    0    0    0    0  0.00000000000E+00  0.00000000000E+00  0.74505805969E-08  0.10566000000E+00  0.10566000000E+00 0.  1.
     999900   -1    0    0    0    0 -0.00000000000E+00 -0.00000000000E+00 -0.74505805969E-08  0.93827000000E+00  0.93827000000E+00 0. -1.
     999902    2    1    2    0    0  0.38187913101E-02 -0.21255806070E-01 -0.64380745827E-02  0.10213946663E+01  0.10211460342E+01 0.  0.
     999903    2    3    3    0    0  0.43430473232E-01  0.78161391410E-01  0.91403647597E-01  0.12952815890E+00  0.20676267592E-01 0.  0.
         14    1    1    2    0    0 -0.38187913101E-02  0.21255806070E-01  0.64380745827E-02  0.22535333658E-01  0.00000000000E+00 0.  1.
     999901    1    3    3    0    0 -0.39611681922E-01 -0.99417197479E-01 -0.97841722180E-01  0.89186650744E+00  0.88000000000E+00 0. -1.
        -11    1    4    4    0    0  0.62590321414E-02  0.29551413783E-01  0.24869844100E-01  0.39130957137E-01  0.51100000000E-03 0.  1.
         11    1    4    4    0    0  0.37171441090E-01  0.48609977627E-01  0.66533803497E-01  0.90397201762E-01  0.51100000000E-03 0. -1.
</event>
<event>
 8    1  0.1084146E+005  0.1043930E+01  0.7957747E-01            NaN
         13   -1    0    0    0    0  0.00000000000E+00  0.00000000000E+00  0.74505805969E-08  0.10566000000E+00  0.10566000000E+00 0.  1.
     999900   -1    0    0    0    0 -0.00000000000E+00 -0.00000000000E+00 -0.74505805969E-08  0.93827000000E+00  0.93827000000E+00 0.  1.
     999902    2    1    2    0    0 -0.80742342467E-02  0.22167647006E-01 -0.40434040544E-02  0.10199936897E+01  0.10197127930E+01 0.  0.
     999903    2    3    3    0    0 -0.71445522880E-01  0.33294398517E-01  0.10319247725E+00  0.13115216334E+00  0.18418004117E-01 0.  0.
         14    1    1    2    0    0  0.80742342467E-02 -0.22167647006E-01  0.40434040544E-02  0.23936310259E-01  0.00000000000E+00 0.  1.
     999901    1    3    3    0    0  0.63371288633E-01 -0.11126751511E-01 -0.10723588130E+00  0.88884152640E+00  0.88000000000E+00 0. -1.
        -11    1    4    4    0    0 -0.24306788210E-01  0.20814777797E-01  0.36719267157E-01  0.48709759077E-01  0.51100000000E-03 0. -1.
         11    1    4    4    0    0 -0.47138734670E-01  0.12479620720E-01  0.66473210089E-01  0.82442404260E-01  0.51100000000E-03 0.  1.
</event>
<event>
 8    1  0.1084146E+005  0.1043930E+01  0.7957747E-01            NaN
         13   -1    0    0    0    0  0.00000000000E+00  0.00000000000E+00  0.74505805969E-08  0.10566000000E+00  0.10566000000E+00 0. -1.
     999900   -1    0    0    0    0 -0.00000000000E+00 -0.00000000000E+00 -0.74505805969E-08  0.93827000000E+00  0.93827000000E+00 0. -1.
     999902    2    1    2    0    0 -0.16285731773E-01 -0.87355164873E-03  0.17118888373E-01  0.10202858783E+01  0.10200118769E+01 0.  0.
     999903    2    3    3    0    0 -0.68520618932E-01 -0.82312857178E-01 -0.72125287436E-01  0.13049637126E+00  0.18888201308E-01 0.  0.
         14    1    1    2    0    0  0.16285731773E-01  0.87355164873E-03 -0.17118888373E-01  0.23644121700E-01  0.00000000000E+00 0.  1.
     999901    1    3    3    0    0  0.52234887159E-01  0.81439305529E-01  0.89244175809E-01  0.88978950704E+00  0.88000000000E+00 0.  1.
        -11    1    4    4    0    0 -0.22378906934E-01 -0.39528465745E-01 -0.24766612920E-01  0.51739359450E-01  0.51100000000E-03 0.  1.
         11    1    4    4    0    0 -0.46141711998E-01 -0.42784391433E-01 -0.47358674516E-01  0.78757011810E-01  0.51100000000E-03 0. -1.
</event>
<event>
 8    1  0.1084146E+005  0.1043930E+01  0.7957747E-01            NaN
         13   -1    0    0    0    0  0.00000000000E+00  0.00000000000E+00  0.74505805969E-08  0.10566000000E+00  0.10566000000E+00 0. -1.
     999900   -1    0    0    0    0 -0.00000000000E+00 -0.00000000000E+00 -0.74505805969E-08  0.93827000000E+00  0.93827000000E+00 0.  1.
     999902    2    1    2    0    0  0.29101834865E-01 -0.58263787349E-02 -0.13340280445E-01  0.10113903847E+01  0.10108667982E+01 0.  0.
     999903    2    3    3    0    0 -0.76130178805E-01 -0.33545767027E-01  0.83416961180E-01  0.11942395876E+00  0.19559394261E-01 0.  0.
         14    1    1    2    0    0 -0.29101834865E-01  0.58263787349E-02  0.13340280445E-01  0.32539615302E-01  0.00000000000E+00 0. -1.
     999901    1    3    3    0    0  0.10523201367E+00  0.27719388292E-01 -0.96757241625E-01  0.89196642593E+00  0.88000000000E+00 0.  1.
        -11    1    4    4    0    0 -0.33127292442E-01 -0.11963723933E-01  0.48635755157E-01  0.60052027406E-01  0.51100000000E-03 0.  1.
         11    1    4    4    0    0 -0.43002886363E-01 -0.21582043094E-01  0.34781206023E-01  0.59371931357E-01  0.51100000000E-03 0. -1.
</event>
<event>
 8    1  0.1084146E+005  0.1043930E+01  0.7957747E-01            NaN
         13   -1    0    0    0    0  0.00000000000E+00  0.00000000000E+00  0.74505805969E-08  0.10566000000E+00  0.10566000000E+00 0. -1.
     999900   -1    0    0    0    0 -0.00000000000E+00 -0.00000000000E+00 -0.74505805969E-08  0.93827000000E+00  0.93827000000E+00 0. -1.
     999902    2    1    2    0    0  0.16031215321E-01 -0.16097992958E-01  0.13228926759E-02  0.10211726872E+01  0.10209190770E+01 0.  0.
     999903    2    3    3    0    0  0.30327367291E-01 -0.74978378010E-01  0.10397638124E+00  0.13313607846E+00  0.19303397523E-01 0.  0.
         14    1    1    2    0    0 -0.16031215321E-01  0.16097992958E-01 -0.13228926759E-02  0.22757312824E-01  0.00000000000E+00 0.  1.
     999901    1    3    3    0    0 -0.14296151970E-01  0.58880385052E-01 -0.10265348856E+00  0.88803660872E+00  0.88000000000E+00 0. -1.
        -11    1    4    4    0    0  0.48987248471E-02 -0.33951711437E-01  0.51011230673E-01  0.61474571901E-01  0.51100000000E-03 0. -1.
         11    1    4    4    0    0  0.25428642444E-01 -0.41026666573E-01  0.52965150568E-01  0.71661506559E-01  0.51100000000E-03 0.  1.
</event>
<event>
 8    1  0.1084146E+005  0.1043930E+01  0.7957747E-01            NaN
         13   -1    0    0    0    0  0.00000000000E+00  0.00000000000E+00  0.74505805969E-08  0.10566000000E+00  0.10566000000E+00 0.  1.
     999900   -1    0    0    0    0 -0.00000000000E+00 -0.00000000000E+00 -0.74505805969E-08  0.93827000000E+00  0.93827000000E+00 0.  1.
     999902    2    1    2    0    0  0.24610828336E-01 -0.56786549283E-02  0.14505612577E-02  0.10186309067E+01  0.10183166894E+01 0.  0.
     999903    2    3    3    0    0 -0.12168813719E+00  0.25322622760E-01  0.37505316952E-02  0.12601130330E+00  0.20384899205E-01 0.  0.
         14    1    1    2    0    0 -0.24610828336E-01  0.56786549283E-02 -0.14505612577E-02  0.25299093287E-01  0.00000000000E+00 0.  1.
     999901    1    3    3    0    0  0.14629896552E+00 -0.31001277689E-01 -0.22999704375E-02  0.89261960341E+00  0.88000000000E+00 0. -1.
        -11    1    4    4    0    0 -0.66095526074E-01  0.13445074262E-01  0.12174426639E-01  0.68540983170E-01  0.51100000000E-03 0. -1.
         11    1    4    4    0    0 -0.55592611114E-01  0.11877548499E-01 -0.84238949443E-02  0.57470320130E-01  0.51100000000E-03 0.  1.
</event>
<event>
 8    1  0.1084146E+005  0.1043930E+01  0.7957747E-01            NaN
         13   -1    0    0    0    0  0.00000000000E+00  0.00000000000E+00  0.74505805969E-08  0.10566000000E+00  0.10566000000E+00 0.  1.
     999900   -1    0    0    0    0 -0.00000000000E+00 -0.00000000000E+00 -0.74505805969E-08  0.93827000000E+00  0.93827000000E+00 0. -1.
     999902    2    1    2    0    0 -0.23626269826E-02  0.21536425580E-01 -0.10255299529E-01  0.10199597935E+01  0.10196780911E+01 0.  0.
     999903    2    3    3    0    0  0.12585025194E+00 -0.13483620890E-02  0.24488888218E-01  0.12969611656E+00  0.19526213444E-01 0.  0.
         14    1    1    2    0    0  0.23626269826E-02 -0.21536425580E-01  0.10255299529E-01  0.23970206537E-01  0.00000000000E+00 0.  1.
     999901    1    3    3    0    0 -0.12821287892E+00  0.22884787669E-01 -0.34744187746E-01  0.89026367690E+00  0.88000000000E+00 0.  1.
        -11    1    4    4    0    0  0.50040794516E-01 -0.34581393441E-02  0.19059173268E-01  0.53661467089E-01  0.51100000000E-03 0.  1.
         11    1    4    4    0    0  0.75809457423E-01  0.21097772552E-02  0.54297149491E-02  0.76034649472E-01  0.51100000000E-03 0. -1.
</event>
<event>
 8    1  0.1084146E+005  0.1043930E+01  0.7957747E-01            NaN
         13   -1    0    0    0    0  0.00000000000E+00  0.00000000000E+00  0.74505805969E-08  0.10566000000E+00  0.10566000000E+00 0.  1.
     999900   -1    0    0    0    0 -0.00000000000E+00 -0.00000000000E+00 -0.74505805969E-08  0.93827000000E+00  0.93827000000E+00 0.  1.
     999902    2    1    2    0    0  0.15652856308E-01 -0.12283708386E-01 -0.12887197489E-01  0.10202238560E+01  0.10199483983E+01 0.  0.
     999903    2    3    3    0    0 -0.23844032834E-01 -0.12094853822E+00 -0.43666249518E-01  0.13212735254E+00  0.18809815037E-01 0.  0.
         14    1    1    2    0    0 -0.15652856308E-01  0.12283708386E-01  0.12887197489E-01  0.23706143959E-01  0.00000000000E+00 0.  1.
     999901    1    3    3    0    0  0.39496889142E-01  0.10866482983E+00  0.30779052028E-01  0.88809650351E+00  0.88000000000E+00 0.  1.
        -11    1    4    4    0    0 -0.83992706970E-02 -0.82367769752E-01 -0.33675345823E-01  0.89382813110E-01  0.51100000000E-03 0. -1.
         11    1    4    4    0    0 -0.15444762137E-01 -0.38580768468E-01 -0.99909036947E-02  0.42744539425E-01  0.51100000000E-03 0.  1.
</event>
<event>
 8    1  0.1084146E+005  0.1043930E+01  0.7957747E-01            NaN
         13   -1    0    0    0    0  0.00000000000E+00  0.00000000000E+00  0.74505805969E-08  0.10566000000E+00  0.10566000000E+00 0.  1.
     999900   -1    0    0    0    0 -0.00000000000E+00 -0.00000000000E+00 -0.74505805969E-08  0.93827000000E+00  0.93827000000E+00 0. -1.
     999902    2    1    2    0    0 -0.23430556127E-02  0.23665424461E-01  0.25791577359E-02  0.10200094172E+01  0.10197288939E+01 0.  0.
     999903    2    3    3    0    0  0.92219953078E-01  0.42785191458E-01  0.80678276299E-01  0.13129844037E+00  0.19879733991E-01 0.  0.
         14    1    1    2    0    0  0.23430556127E-02 -0.23665424461E-01 -0.25791577359E-02  0.23920582751E-01  0.00000000000E+00 0.  1.
     999901    1    3    3    0    0 -0.94563008691E-01 -0.19119766996E-01 -0.78099118563E-01  0.88871097688E+00  0.88000000000E+00 0. -1.
        -11    1    4    4    0    0  0.42477946809E-01  0.12826767879E-01  0.25426472657E-01  0.51143607343E-01  0.51100000000E-03 0. -1.
         11    1    4    4    0    0  0.49742006269E-01  0.29958423579E-01  0.55251803642E-01  0.80154833028E-01  0.51100000000E-03 0.  1.
</event>
<event>
 8    1  0.1084146E+005  0.1043930E+01  0.7957747E-01            NaN
         13   -1    0    0    0    0  0.00000000000E+00  0.00000000000E+00  0.74505805969E-08  0.10566000000E+00  0.10566000000E+00 0. -1.
     999900   -1    0    0    0    0 -0.00000000000E+00 -0.00000000000E+00 -0.74505805969E-08  0.93827000000E+00  0.93827000000E+00 0. -1.
     999902    2    1    2    0    0  0.21458535329E-01  0.92143030701E-02  0.34089401025E-02  0.10203293010E+01  0.10200563168E+01 0.  0.
     999903    2    3    3    0    0 -0.59893475951E-01  0.10802007127E+00  0.36918587756E-01  0.13043963030E+00  0.19898511829E-01 0.  0.
         14    1    1    2    0    0 -0.21458535329E-01 -0.92143030701E-02 -0.34089401025E-02  0.23600698976E-01  0.00000000000E+00 0. -1.
     999901    1    3    3    0    0  0.81352011279E-01 -0.98805768201E-01 -0.33509647654E-01  0.88988967072E+00  0.88000000000E+00 0. -1.
        -11    1    4    4    0    0 -0.52430090534E-01  0.96926545792E-01  0.39002911532E-01  0.11689806629E+00  0.51100000000E-03 0. -1.
         11    1    4    4    0    0 -0.74633854165E-02  0.11093525479E-01 -0.20843237756E-02  0.13541564018E-01  0.51100000000E-03 0.  1.
</event>
<event>
 8    1  0.1084146E+005  0.1043930E+01  0.7957747E-01            NaN
         13   -1    0    0    0    0  0.00000000000E+00  0.00000000000E+00  0.74505805969E-08  0.10566000000E+00  0.10566000000E+00 0.  1.
     999900   -1    0    0    0    0 -0.00000000000E+00 -0.00000000000E+00 -0.74505805969E-08  0.93827000000E+00  0.93827000000E+00 0. -1.
     999902    2    1    2    0    0 -0.54200383414E-02 -0.28198723891E-01  0.29024325326E-02  0.10150687984E+01  0.10146584137E+01 0.  0.
     999903    2    3    3    0    0  0.11014708260E+00 -0.87157164681E-02  0.56472164606E-01  0.12568414412E+00  0.19976365804E-01 0.  0.
         14    1    1    2    0    0  0.54200383414E-02  0.28198723891E-01 -0.29024325326E-02  0.28861201627E-01  0.00000000000E+00 0.  1.
     999901    1    3    3    0    0 -0.11556712094E+00 -0.19483007423E-01 -0.53569732074E-01  0.88938465425E+00  0.88000000000E+00 0.  1.
        -11    1    4    4    0    0  0.49681417204E-01 -0.13465760493E-01  0.22672855680E-01  0.56248461550E-01  0.51100000000E-03 0.  1.
         11    1    4    4    0    0  0.60465665393E-01  0.47500440249E-02  0.33799308926E-01  0.69435682574E-01  0.51100000000E-03 0. -1.
</event>
<event>
 8    1  0.1084146E+005  0.1043930E+01  0.7957747E-01            NaN
         13   -1    0    0    0    0  0.00000000000E+00  0.00000000000E+00  0.74505805969E-08  0.10566000000E+00  0.10566000000E+00 0. -1.
     999900   -1    0    0    0    0 -0.00000000000E+00 -0.00000000000E+00 -0.74505805969E-08  0.93827000000E+00  0.93827000000E+00 0.  1.
     999902    2    1    2    0    0  0.22842998258E-02  0.49712807065E-02  0.26897317150E-01  0.10164819158E+01  0.10161112576E+01 0.  0.
     999903    2    3    3    0    0  0.56623686059E-01 -0.10243480805E+00 -0.41420463056E-01  0.12566422630E+00  0.19409051729E-01 0.  0.
         14    1    1    2    0    0 -0.22842998258E-02 -0.49712807065E-02 -0.26897317150E-01  0.27448084222E-01  0.00000000000E+00 0.  1.
     999901    1    3    3    0    0 -0.54339386233E-01  0.10740608875E+00  0.68317780206E-01  0.89081768948E+00  0.88000000000E+00 0. -1.
        -11    1    4    4    0    0  0.23995595250E-01 -0.59940064157E-01 -0.16903138541E-01  0.66742618289E-01  0.51100000000E-03 0.  1.
         11    1    4    4    0    0  0.32628090808E-01 -0.42494743890E-01 -0.24517324514E-01  0.58921608009E-01  0.51100000000E-03 0. -1.
</event>
<event>
 8    1  0.1084146E+005  0.1043930E+01  0.7957747E-01            NaN
         13   -1    0    0    0    0  0.00000000000E+00  0.00000000000E+00  0.74505805969E-08  0.10566000000E+00  0.10566000000E+00 0.  1.
     999900   -1    0    0    0    0 -0.00000000000E+00 -0.00000000000E+00 -0.74505805969E-08  0.93827000000E+00  0.93827000000E+00 0.  1.
     999902    2    1    2    0    0  0.11398084703E-01  0.11211396907E-01  0.17702192581E-01  0.10200767114E+01  0.10197977828E+01 0.  0.
     999903    2    3    3    0    0 -0.11125766883E+00  0.51704450925E-01  0.39068330056E-01  0.13039101794E+00  0.20587958260E-01 0.  0.
         14    1    1    2    0    0 -0.11398084703E-01 -0.11211396907E-01 -0.17702192581E-01  0.23853288614E-01  0.00000000000E+00 0. -1.
     999901    1    3    3    0    0  0.12265575354E+00 -0.40493054018E-01 -0.21366137475E-01  0.88968569345E+00  0.88000000000E+00 0. -1.
        -11    1    4    4    0    0 -0.22331432682E-01  0.32643523070E-02  0.12023726945E-01  0.25576942981E-01  0.51100000000E-03 0. -1.
         11    1    4    4    0    0 -0.88926236152E-01  0.48440098618E-01  0.27044603110E-01  0.10481407495E+00  0.51100000000E-03 0.  1.
</event>
<event>
 8    1  0.1084146E+005  0.1043930E+01  0.7957747E-01            NaN
         13   -1    0    0    0    0  0.00000000000E+00  0.00000000000E+00  0.74505805969E-08  0.10566000000E+00  0.10566000000E+00 0.  1.
     999900   -1    0    0    0    0 -0.00000000000E+00 -0.00000000000E+00 -0.74505805969E-08  0.93827000000E+00  0.93827000000E+00 0. -1.
     999902    2    1    2    0    0 -0.25496286595E-01  0.71400256706E-02  0.70958353350E-02  0.10165184791E+01  0.10161488213E+01 0.  0.
     999903    2    3    3    0    0 -0.12379808532E+00 -0.31308037335E-01  0.14901835118E-01  0.13017631563E+00  0.20436470615E-01 0.  0.
         14    1    1    2    0    0  0.25496286595E-01 -0.71400256706E-02 -0.70958353350E-02  0.27411520859E-01  0.00000000000E+00 0.  1.
     999901    1    3    3    0    0  0.98301798724E-01  0.38448063006E-01 -0.78059997835E-02  0.88634216351E+00  0.88000000000E+00 0.  1.
        -11    1    4    4    0    0 -0.86439540677E-01 -0.18640169889E-01  0.12724288474E-02  0.88437154647E-01  0.51100000000E-03 0. -1.
         11    1    4    4    0    0 -0.37358544642E-01 -0.12667867446E-01  0.13629406271E-01  0.41739160985E-01  0.51100000000E-03 0.  1.
</event>
<event>
 8    1  0.1084146E+005  0.1043930E+01  0.7957747E-01            NaN
         13   -1    0    0    0    0  0.00000000000E+00  0.00000000000E+00  0.74505805969E-08  0.10566000000E+00  0.10566000000E+00 0. -1.
     999900   -1    0    0    0    0 -0.00000000000E+00 -0.00000000000E+00 -0.74505805969E-08  0.93827000000E+00  0.93827000000E+00 0. -1.
     999902    2    1    2    0    0  0.25169049966E-02 -0.17583413359E-01  0.15125315391E-01  0.10206000535E+01  0.10203333685E+01 0.  0.
     999903    2    3    3    0    0  0.65258220137E-01 -0.10515199886E+00 -0.41429808537E-01  0.13222895325E+00  0.21271786051E-01 0.  0.
         14    1    1    2    0    0 -0.25169049966E-02  0.17583413359E-01 -0.15125315391E-01  0.23329946459E-01  0.00000000000E+00 0. -1.
     999901    1    3    3    0    0 -0.62741315140E-01  0.87568585502E-01  0.56555123928E-01  0.88837110029E+00  0.88000000000E+00 0.  1.
        -11    1    4    4    0    0  0.45315212314E-01 -0.53015416257E-01 -0.23463150752E-01  0.73585891258E-01  0.51100000000E-03 0.  1.
         11    1    4    4    0    0  0.19943007822E-01 -0.52136582604E-01 -0.17966657785E-01  0.58643061990E-01  0.51100000000E-03 0. -1.
</event>
<event>
 8    1  0.1084146E+005  0.1043930E+01  0.7957747E-01            NaN
         13   -1    0    0    0    0  0.00000000000E+00  0.00000000000E+00  0.74505805969E-08  0.10566000000E+00  0.10566000000E+00 0. -1.
     999900   -1    0    0    0    0 -0.00000000000E+00 -0.00000000000E+00 -0.74505805969E-08  0.93827000000E+00  0.93827000000E+00 0. -1.
     999902    2    1    2    0    0 -0.30839716116E-02 -0.21409937623E-01  0.79340582208E-02  0.10208899134E+01  0.10206298887E+01 0.  0.
     999903    2    3    3    0    0 -0.32370376164E-01  0.54689712146E-01 -0.11045777190E+00  0.12922547226E+00  0.21435891387E-01 0.  0.
         14    1    1    2    0    0  0.30839716116E-02  0.21409937623E-01 -0.79340582208E-02  0.23040086584E-01  0.00000000000E+00 0.  1.
     999901    1    3    3    0    0  0.29286404553E-01 -0.76099649769E-01  0.11839183012E+00  0.89166444116E+00  0.88000000000E+00 0.  1.
        -11    1    4    4    0    0 -0.16227764020E-01  0.33977401189E-01 -0.44893356348E-01  0.58595893046E-01  0.51100000000E-03 0. -1.
         11    1    4    4    0    0 -0.16142612144E-01  0.20712310957E-01 -0.65564415552E-01  0.70629579212E-01  0.51100000000E-03 0.  1.
</event>
<event>
 8    1  0.1084146E+005  0.1043930E+01  0.7957747E-01            NaN
         13   -1    0    0    0    0  0.00000000000E+00  0.00000000000E+00  0.74505805969E-08  0.10566000000E+00  0.10566000000E+00 0. -1.
     999900   -1    0    0    0    0 -0.00000000000E+00 -0.00000000000E+00 -0.74505805969E-08  0.93827000000E+00  0.93827000000E+00 0.  1.
     999902    2    1    2    0    0 -0.41975407299E-02  0.19210638509E-01 -0.16937279880E-02  0.10241933160E+01  0.10240031308E+01 0.  0.
     999903    2    3    3    0    0  0.12216148243E+00  0.29315033156E-01 -0.42473719725E-01  0.13417550201E+00  0.20402193818E-01 0.  0.
         14    1    1    2    0    0  0.41975407299E-02 -0.19210638509E-01  0.16937279880E-02  0.19736683982E-01  0.00000000000E+00 0.  1.
     999901    1    3    3    0    0 -0.12635902316E+00 -0.10104394646E-01  0.40779991737E-01  0.89001781401E+00  0.88000000000E+00 0.  1.
        -11    1    4    4    0    0  0.40973657757E-01  0.18038225113E-01 -0.20934057258E-01  0.49423820872E-01  0.51100000000E-03 0.  1.
         11    1    4    4    0    0  0.81187824678E-01  0.11276808042E-01 -0.21539662466E-01  0.84751681138E-01  0.51100000000E-03 0. -1.
</event>
<event>
 8    1  0.1084146E+005  0.1043930E+01  0.7957747E-01            NaN
         13   -1    0    0    0    0  0.00000000000E+00  0.00000000000E+00  0.74505805969E-08  0.10566000000E+00  0.10566000000E+00 0. -1.
     999900   -1    0    0    0    0 -0.00000000000E+00 -0.00000000000E+00 -0.74505805969E-08  0.93827000000E+00  0.93827000000E+00 0. -1.
     999902    2    1    2    0    0  0.66485679171E-03 -0.20149654584E-01 -0.13576698077E-01  0.10196240883E+01  0.10193343436E+01 0.  0.
     999903    2    3    3    0    0  0.10529346478E+00 -0.21825721939E-01 -0.72861859092E-01  0.13144354067E+00  0.20136484543E-01 0.  0.
         14    1    1    2    0    0 -0.66485679171E-03  0.20149654584E-01  0.13576698077E-01  0.24305911731E-01  0.00000000000E+00 0.  1.
     999901    1    3    3    0    0 -0.10462860799E+00  0.16760673551E-02  0.59285161015E-01  0.88818054760E+00  0.88000000000E+00 0.  1.
        -11    1    4    4    0    0  0.92750083476E-01 -0.24778860405E-01 -0.59897688297E-01  0.11315725382E+00  0.51100000000E-03 0. -1.
         11    1    4    4    0    0  0.12543381308E-01  0.29531384656E-02 -0.12964170796E-01  0.18286286852E-01  0.51100000000E-03 0.  1.
</event>
<event>
 8    1  0.1084146E+005  0.1043930E+01  0.7957747E-01            NaN
         13   -1    0    0    0    0  0.00000000000E+00  0.00000000000E+00  0.74505805969E-08  0.10566000000E+00  0.10566000000E+00 0.  1.
     999900   -1    0    0    0    0 -0.00000000000E+00 -0.00000000000E+00 -0.74505805969E-08  0.93827000000E+00  0.93827000000E+00 0.  1.
     999902    2    1    2    0    0 -0.83104200522E-02  0.17106500710E-01 -0.89043571483E-02  0.10229304042E+01  0.10227148326E+01 0.  0.
     999903    2    3    3    0    0 -0.11471052719E+00 -0.63582682850E-01 -0.91408090492E-02  0.13285637185E+00  0.19131088397E-01 0.  0.
         14    1    1    2    0    0  0.83104200522E-02 -0.17106500710E-01  0.89043571483E-02  0.20999595811E-01  0.00000000000E+00 0. -1.
     999901    1    3    3    0    0  0.10640010714E+00  0.80689183561E-01  0.23645190089E-03  0.89007403234E+00  0.88000000000E+00 0. -1.
        -11    1    4    4    0    0 -0.43793734494E-01 -0.22587308701E-01 -0.12616531344E-01  0.50867628993E-01  0.51100000000E-03 0.  1.
         11    1    4    4    0    0 -0.70916792697E-01 -0.40995374150E-01  0.34757222953E-02  0.81988742852E-01  0.51100000000E-03 0. -1.
</event>
<event>
 7    1  0.1440295E+005  0.1043930E+01  0.7957747E-01            NaN
         13   -1    0    0    0    0  0.00000000000E+00  0.00000000000E+00  0.74505805969E-08  0.10566000000E+00  0.10566000000E+00 0.  1.
     999900   -1    0    0    0    0 -0.00000000000E+00 -0.00000000000E+00 -0.74505805969E-08  0.93827000000E+00  0.93827000000E+00 0.  1.
     999903    2    1    2    0    0  0.71039885792E-01  0.66031690637E-01  0.33557976249E-01  0.10464330520E+00  0.20426306854E-01 0.  0.
         14    1    1    2    0    0  0.18951678103E-01  0.31534807424E-01  0.29419369809E-01  0.47107425128E-01  0.00000000000E+00 0.  1.
     999901    1    1    2    0    0 -0.89991563894E-01 -0.97566498061E-01 -0.62977346058E-01  0.89217926967E+00  0.88000000000E+00 0.  1.
        -11    1    3    3    0    0  0.52875673656E-01  0.59119466707E-01  0.30417638064E-01  0.84949644112E-01  0.51100000000E-03 0.  1.
         11    1    3    3    0    0  0.18164212135E-01  0.69122239293E-02  0.31403381848E-02  0.19693661088E-01  0.51100000000E-03 0. -1.
</event>
<event>
 8    1  0.1084146E+005  0.1043930E+01  0.7957747E-01            NaN
         13   -1    0    0    0    0  0.00000000000E+00  0.00000000000E+00  0.74505805969E-08  0.10566000000E+00  0.10566000000E+00 0.  1.
     999900   -1    0    0    0    0 -0.00000000000E+00 -0.00000000000E+00 -0.74505805969E-08  0.93827000000E+00  0.93827000000E+00 0. -1.
     999902    2    1    2    0    0  0.32979930445E-02  0.12210689241E-01  0.19572624301E-01  0.10206262382E+01  0.10203601584E+01 0.  0.
     999903    2    3    3    0    0  0.19649184062E-01  0.12949743776E+00 -0.58804416337E-03  0.13246521941E+00  0.19774016735E-01 0.  0.
         14    1    1    2    0    0 -0.32979930445E-02 -0.12210689241E-01 -0.19572624301E-01  0.23303761754E-01  0.00000000000E+00 0. -1.
     999901    1    3    3    0    0 -0.16351191017E-01 -0.11728674852E+00  0.20160668464E-01  0.88816101884E+00  0.88000000000E+00 0.  1.
        -11    1    4    4    0    0  0.15345213089E-01  0.52346894722E-01 -0.66483085622E-02  0.54955746556E-01  0.51100000000E-03 0. -1.
         11    1    4    4    0    0  0.43039709727E-02  0.77150543035E-01  0.60602643988E-02  0.77509472855E-01  0.51100000000E-03 0.  1.
</event>
<event>
 8    1  0.1084146E+005  0.1043930E+01  0.7957747E-01            NaN
         13   -1    0    0    0    0  0.00000000000E+00  0.00000000000E+00  0.74505805969E-08  0.10566000000E+00  0.10566000000E+00 0. -1.
     999900   -1    0    0    0    0 -0.00000000000E+00 -0.00000000000E+00 -0.74505805969E-08  0.93827000000E+00  0.93827000000E+00 0. -1.
     999902    2    1    2    0    0 -0.15454980786E-01 -0.17166104384E-01 -0.46275669785E-02  0.10203727093E+01  0.10201007401E+01 0.  0.
     999903    2    3    3    0    0 -0.10634127730E+00  0.60707083142E-01 -0.43889586491E-01  0.13140361058E+00  0.18622456100E-01 0.  0.
         14    1    1    2    0    0  0.15454980786E-01  0.17166104384E-01  0.46275669785E-02  0.23557290739E-01  0.00000000000E+00 0.  1.
     999901    1    3    3    0    0  0.90886296510E-01 -0.77873187526E-01  0.39262019513E-01  0.88896909868E+00  0.88000000000E+00 0. -1.
        -11    1    4    4    0    0 -0.78646127037E-01  0.49898886217E-01 -0.25998232172E-01  0.96702023457E-01  0.51100000000E-03 0. -1.
         11    1    4    4    0    0 -0.27695150259E-01  0.10808196924E-01 -0.17891354319E-01  0.34701587125E-01  0.51100000000E-03 0.  1.
</event>
<event>
 8    1  0.1084146E+005  0.1043930E+01  0.7957747E-01            NaN
         13   -1    0    0    0    0  0.00000000000E+00  0.00000000000E+00  0.74505805969E-08  0.10566000000E+00  0.10566000000E+00 0. -1.
     999900   -1    0    0    0    0 -0.00000000000E+00 -0.00000000000E+00 -0.74505805969E-08  0.93827000000E+00  0.93827000000E+00 0. -1.
     999902    2    1    2    0    0 -0.97338337317E-02 -0.30370271892E-03 -0.23473014085E-01  0.10185169690E+01  0.10181998792E+01 0.  0.
     999903    2    3    3    0    0  0.84598131104E-01  0.65757122238E-01  0.64792619178E-01  0.12663504060E+00  0.18907858077E-01 0.  0.
         14    1    1    2    0    0  0.97338337317E-02  0.30370271892E-03  0.23473014085E-01  0.25413031002E-01  0.00000000000E+00 0.  1.
     999901    1    3    3    0    0 -0.94331964836E-01 -0.66060824957E-01 -0.88265633263E-01  0.89188192840E+00  0.88000000000E+00 0. -1.
        -11    1    4    4    0    0  0.13197678974E-01  0.17525493811E-01  0.19156788963E-01  0.29130145004E-01  0.51100000000E-03 0. -1.
         11    1    4    4    0    0  0.71400452130E-01  0.48231628427E-01  0.45635830215E-01  0.97504895598E-01  0.51100000000E-03 0.  1.
</event>
<event>
 8    1  0.1084146E+005  0.1043930E+01  0.7957747E-01            NaN
         13   -1    0    0    0    0  0.00000000000E+00  0.00000000000E+00  0.74505805969E-08  0.10566000000E+00  0.10566000000E+00 0.  1.
     999900   -1    0    0    0    0 -0.00000000000E+00 -0.00000000000E+00 -0.74505805969E-08  0.93827000000E+00  0.93827000000E+00 0.  1.
     999902    2    1    2    0    0 -0.11700063090E-01  0.68339812518E-02 -0.20639815636E-01  0.10192399865E+01  0.10189408979E+01 0.  0.
     999903    2    3    3    0    0 -0.11364403673E+00 -0.58765878554E-01  0.14555424883E-01  0.13023232608E+00  0.19498789613E-01 0.  0.
         14    1    1    2    0    0  0.11700063090E-01 -0.68339812518E-02  0.20639815636E-01  0.24690013478E-01  0.00000000000E+00 0.  1.
     999901    1    3    3    0    0  0.10194397364E+00  0.65599859806E-01 -0.35195240518E-01  0.88900766044E+00  0.88000000000E+00 0. -1.
        -11    1    4    4    0    0 -0.14853474257E-01 -0.65341323187E-02  0.84828669913E-02  0.18317771045E-01  0.51100000000E-03 0. -1.
         11    1    4    4    0    0 -0.98790562473E-01 -0.52231746236E-01  0.60725578914E-02  0.11191455504E+00  0.51100000000E-03 0.  1.
</event>
<event>
 8    1  0.1084146E+005  0.1043930E+01  0.7957747E-01            NaN
         13   -1    0    0    0    0  0.00000000000E+00  0.00000000000E+00  0.74505805969E-08  0.10566000000E+00  0.10566000000E+00 0. -1.
     999900   -1    0    0    0    0 -0.00000000000E+00 -0.00000000000E+00 -0.74505805969E-08  0.93827000000E+00  0.93827000000E+00 0.  1.
     999902    2    1    2    0    0 -0.13430388703E-01  0.97070941522E-02  0.16780010871E-01  0.10203467054E+01  0.10200741284E+01 0.  0.
     999903    2    3    3    0    0 -0.52225733225E-01 -0.58323823888E-01 -0.10066976276E+00  0.12909604827E+00  0.20054747601E-01 0.  0.
         14    1    1    2    0    0  0.13430388703E-01 -0.97070941522E-02 -0.16780010871E-01  0.23583294563E-01  0.00000000000E+00 0. -1.
     999901    1    3    3    0    0  0.38795344522E-01  0.68030918040E-01  0.11744977364E+00  0.89125065716E+00  0.88000000000E+00 0. -1.
        -11    1    4    4    0    0 -0.42252534960E-01 -0.43216807954E-01 -0.88889815522E-01  0.10749246311E+00  0.51100000000E-03 0.  1.
         11    1    4    4    0    0 -0.99731982655E-02 -0.15107015934E-01 -0.11779947242E-01  0.21603585168E-01  0.51100000000E-03 0. -1.
</event>
<event>
 8    1  0.1084146E+005  0.1043930E+01  0.7957747E-01            NaN
         13   -1    0    0    0    0  0.00000000000E+00  0.00000000000E+00  0.74505805969E-08  0.10566000000E+00  0.10566000000E+00 0.  1.
     999900   -1    0    0    0    0 -0.00000000000E+00 -0.00000000000E+00 -0.74505805969E-08  0.93827000000E+00  0.93827000000E+00 0.  1.
     999902    2    1    2    0    0 -0.41591421409E-02 -0.16028131706E-01  0.16772323450E-01  0.10203607339E+01  0.10200884849E+01 0.  0.
     999903    2    3    3    0    0 -0.10334962972E+00  0.60394850185E-01  0.49583553134E-01  0.13089134054E+00  0.18583067416E-01 0.  0.
         14    1    1    2    0    0  0.41591421409E-02  0.16028131706E-01 -0.16772323450E-01  0.23569266074E-01  0.00000000000E+00 0.  1.
     999901    1    3    3    0    0  0.99190487574E-01 -0.76422981891E-01 -0.32811229685E-01  0.88946939339E+00  0.88000000000E+00 0.  1.
        -11    1    4    4    0    0 -0.85030742980E-01  0.48710826915E-01  0.47944314619E-01  0.10909578514E+00  0.51100000000E-03 0.  1.
         11    1    4    4    0    0 -0.18318886736E-01  0.11684023270E-01  0.16392385151E-02  0.21795555393E-01  0.51100000000E-03 0. -1.
</event>
<event>
 8    1  0.1084146E+005  0.1043930E+01  0.7957747E-01            NaN
         13   -1    0    0    0    0  0.00000000000E+00  0.00000000000E+00  0.74505805969E-08  0.10566000000E+00  0.10566000000E+00 0. -1.
     999900   -1    0    0    0    0 -0.00000000000E+00 -0.00000000000E+00 -0.74505805969E-08  0.93827000000E+00  0.93827000000E+00 0. -1.
     999902    2    1    2    0    0  0.85085436247E-02 -0.13075965947E-01  0.16760735531E-01  0.10210324356E+01  0.10207756541E+01 0.  0.
     999903    2    3    3    0    0 -0.67531943263E-01 -0.43044904349E-01  0.10443513004E+00  0.13290682941E+00  0.18549980185E-01 0.  0.
         14    1    1    2    0    0 -0.85085436247E-02  0.13075965947E-01 -0.16760735531E-01  0.22897564403E-01  0.00000000000E+00 0.  1.
     999901    1    3    3    0    0  0.76040486888E-01  0.29968938402E-01 -0.87674394513E-01  0.88812560619E+00  0.88000000000E+00 0. -1.
        -11    1    4    4    0    0 -0.58585141760E-01 -0.43740020087E-01  0.90832305717E-01  0.11660264609E+00  0.51100000000E-03 0. -1.
         11    1    4    4    0    0 -0.89468015025E-02  0.69511573841E-03  0.13602824326E-01  0.16304183318E-01  0.51100000000E-03 0.  1.
</event>
<event>
 8    1  0.1084146E+005  0.1043930E+01  0.7957747E-01            NaN
         13   -1    0    0    0    0  0.00000000000E+00  0.00000000000E+00  0.74505805969E-08  0.10566000000E+00  0.10566000000E+00 0. -1.
     999900   -1    0    0    0    0 -0.00000000000E+00 -0.00000000000E+00 -0.74505805969E-08  0.93827000000E+00  0.93827000000E+00 0.  1.
     999902    2    1    2    0    0  0.14191647648E-01 -0.20718473052E-01 -0.34981121388E-03  0.10188146589E+01  0.10185050461E+01 0.  0.
     999903    2    3    3    0    0  0.60762273942E-01  0.89933611256E-01  0.65128318151E-01  0.12825298650E+00  0.20664519192E-01 0.  0.
         14    1    1    2    0    0 -0.14191647648E-01  0.20718473052E-01  0.34981121388E-03  0.25115341058E-01  0.00000000000E+00 0. -1.
     999901    1    3    3    0    0 -0.46570626294E-01 -0.11065208431E+00 -0.65478129365E-01  0.89056167244E+00  0.88000000000E+00 0.  1.
        -11    1    4    4    0    0  0.38269912248E-01  0.44361313407E-01  0.25938622202E-01  0.64074843374E-01  0.51100000000E-03 0.  1.
         11    1    4    4    0    0  0.22492361693E-01  0.45572297849E-01  0.39189695949E-01  0.64178143128E-01  0.51100000000E-03 0. -1.
</event>
<event>
 8    1  0.1084146E+005  0.1043930E+01  0.7957747E-01            NaN
         13   -1    0    0    0    0  0.00000000000E+00  0.00000000000E+00  0.74505805969E-08  0.10566000000E+00  0.10566000000E+00 0. -1.
     999900   -1    0    0    0    0 -0.00000000000E+00 -0.00000000000E+00 -0.74505805969E-08  0.93827000000E+00  0.93827000000E+00 0. -1.
     999902    2    1    2    0    0  0.18970348581E-01  0.12281852458E-01 -0.63163796232E-02  0.10204648199E+01  0.10201949980E+01 0.  0.
     999903    2    3    3    0    0 -0.13497909752E-01 -0.12385937297E+00 -0.27216775775E-01  0.12915934611E+00  0.20446172353E-01 0.  0.
         14    1    1    2    0    0 -0.18970348581E-01 -0.12281852458E-01  0.63163796232E-02  0.23465180089E-01  0.00000000000E+00 0. -1.
     999901    1    3    3    0    0  0.32468258332E-01  0.13614122543E+00  0.20900396152E-01  0.89130547380E+00  0.88000000000E+00 0. -1.
        -11    1    4    4    0    0 -0.89898774069E-02 -0.16635239887E-01 -0.49665689555E-02  0.19557019970E-01  0.51100000000E-03 0. -1.
         11    1    4    4    0    0 -0.45080323446E-02 -0.10722413309E+00 -0.22250206820E-01  0.10960232614E+00  0.51100000000E-03 0.  1.
</event>
<event>
 8    1  0.1084146E+005  0.1043930E+01  0.7957747E-01            NaN
         13   -1    0    0    0    0  0.00000000000E+00  0.00000000000E+00  0.74505805969E-08  0.10566000000E+00  0.10566000000E+00 0.  1.
     999900   -1    0    0    0    0 -0.00000000000E+00 -0.00000000000E+00 -0.74505805969E-08  0.93827000000E+00  0.93827000000E+00 0.  1.
     999902    2    1    2    0    0  0.11570083066E-01 -0.14553339987E-01 -0.18588500498E-01  0.10176393386E+01  0.10172996729E+01 0.  0.
     999903    2    3    3    0    0 -0.10944635326E+00 -0.47322990956E-01  0.40772352908E-01  0.12677316524E+00  0.13823203278E-01 0.  0.
         14    1    1    2    0    0 -0.11570083066E-01  0.14553339987E-01  0.18588500498E-01  0.26290661416E-01  0.00000000000E+00 0.  1.
     999901    1    3    3    0    0  0.12101643633E+00  0.32769650969E-01 -0.59360853406E-01  0.89086617334E+00  0.88000000000E+00 0. -1.
        -11    1    4    4    0    0 -0.59291543321E-01 -0.18474996454E-01  0.18932754437E-01  0.64927058419E-01  0.51100000000E-03 0.  1.
         11    1    4    4    0    0 -0.50154809940E-01 -0.28847994502E-01  0.21839598471E-01  0.61846106824E-01  0.51100000000E-03 0. -1.
</event>
<event>
 8    1  0.1084146E+005  0.1043930E+01  0.7957747E-01            NaN
         13   -1    0    0    0    0  0.00000000000E+00  0.00000000000E+00  0.74505805969E-08  0.10566000000E+00  0.10566000000E+00 0. -1.
     999900   -1    0    0    0    0 -0.00000000000E+00 -0.00000000000E+00 -0.74505805969E-08  0.93827000000E+00  0.93827000000E+00 0. -1.
     999902    2    1    2    0    0  0.13215599641E-01  0.14767456575E-01 -0.11114582694E-01  0.10212085609E+01  0.10209557586E+01 0.  0.
     999903    2    3    3    0    0 -0.57305948697E-01 -0.74915900836E-02 -0.11704809110E+00  0.13177578537E+00  0.18014058445E-01 0.  0.
         14    1    1    2    0    0 -0.13215599641E-01 -0.14767456575E-01  0.11114582694E-01  0.22721439127E-01  0.00000000000E+00 0.  1.
     999901    1    3    3    0    0  0.70521548339E-01  0.22259046658E-01  0.10593350840E+00  0.88943277550E+00  0.88000000000E+00 0.  1.
        -11    1    4    4    0    0 -0.37906432721E-01  0.17498345739E-02 -0.62160432653E-01  0.72829527469E-01  0.51100000000E-03 0. -1.
         11    1    4    4    0    0 -0.19399515976E-01 -0.92414246576E-02 -0.54887658445E-01  0.58946257900E-01  0.51100000000E-03 0.  1.
</event>
<event>
 8    1  0.1084146E+005  0.1043930E+01  0.7957747E-01            NaN
         13   -1    0    0    0    0  0.00000000000E+00  0.00000000000E+00  0.74505805969E-08  0.10566000000E+00  0.10566000000E+00 0.  1.
     999900   -1    0    0    0    0 -0.00000000000E+00 -0.00000000000E+00 -0.74505805969E-08  0.93827000000E+00  0.93827000000E+00 0. -1.
     999902    2    1    2    0    0 -0.35982288167E-02  0.66099950513E-02  0.22614338826E-01  0.10200962507E+01  0.10198177843E+01 0.  0.
     999903    2    3    3    0    0  0.52936958688E-01  0.73611373429E-01 -0.89444754792E-01  0.12866893869E+00  0.18285943541E-01 0.  0.
         14    1    1    2    0    0  0.35982288167E-02 -0.66099950513E-02 -0.22614338826E-01  0.23833749300E-01  0.00000000000E+00 0. -1.
     999901    1    3    3    0    0 -0.56535187505E-01 -0.67001378377E-01  0.11205909362E+00  0.89142731201E+00  0.88000000000E+00 0.  1.
        -11    1    4    4    0    0  0.40772715238E-01  0.65314198524E-01 -0.80681640420E-01  0.11152644107E+00  0.51100000000E-03 0.  1.
         11    1    4    4    0    0  0.12164243450E-01  0.82971749049E-02 -0.87631143720E-02  0.17142497618E-01  0.51100000000E-03 0. -1.
</event>
<event>
 8    1  0.1084146E+005  0.1043930E+01  0.7957747E-01            NaN
         13   -1    0    0    0    0  0.00000000000E+00  0.00000000000E+00  0.74505805969E-08  0.10566000000E+00  0.10566000000E+00 0.  1.
     999900   -1    0    0    0    0 -0.00000000000E+00 -0.00000000000E+00 -0.74505805969E-08  0.93827000000E+00  0.93827000000E+00 0.  1.
     999902    2    1    2    0    0  0.21201475564E-01  0.32548538382E-02  0.69556240241E-02  0.10213805578E+01  0.10211316107E+01 0.  0.
     999903    2    3    3    0    0  0.85463565254E-01 -0.86981676495E-01  0.50338803738E-01  0.13337473129E+00  0.19621181209E-01 0.  0.
         14    1    1    2    0    0 -0.21201475564E-01 -0.32548538382E-02 -0.69556240241E-02  0.22549442236E-01  0.00000000000E+00 0.  1.
     999901    1    3    3    0    0 -0.64262089690E-01  0.90236530333E-01 -0.43383179714E-01  0.88800582648E+00  0.88000000000E+00 0. -1.
        -11    1    4    4    0    0  0.39894426275E-01 -0.35305107077E-01  0.31717649259E-01  0.62002308256E-01  0.51100000000E-03 0.  1.
         11    1    4    4    0    0  0.45569138979E-01 -0.51676569417E-01  0.18621154480E-01  0.71372423030E-01  0.51100000000E-03 0. -1.
</event>
<event>
 8    1  0.1084146E+005  0.1043930E+01  0.7957747E-01            NaN
         13   -1    0    0    0    0  0.00000000000E+00  0.00000000000E+00  0.74505805969E-08  0.10566000000E+00  0.10566000000E+00 0. -1.
     999900   -1    0    0    0    0 -0.00000000000E+00 -0.00000000000E+00 -0.74505805969E-08  0.93827000000E+00  0.93827000000E+00 0. -1.
     999902    2    1    2    0    0  0.11187662421E-01  0.13670282277E-01 -0.15486658446E-01  0.10204379376E+01  0.10201674899E+01 0.  0.
     999903    2    3    3    0    0  0.61969035813E-01  0.61330596547E-01  0.94191666653E-01  0.13089896234E+00  0.25707290827E-01 0.  0.
         14    1    1    2    0    0 -0.11187662421E-01 -0.13670282277E-01  0.15486658446E-01  0.23492062442E-01  0.00000000000E+00 0.  1.
     999901    1    3    3    0    0 -0.50781373391E-01 -0.47660314270E-01 -0.10967832510E+00  0.88953897522E+00  0.88000000000E+00 0. -1.
        -11    1    4    4    0    0  0.28580555150E-01  0.14343423562E-01  0.44453263816E-01  0.54762539359E-01  0.51100000000E-03 0. -1.
         11    1    4    4    0    0  0.33388480663E-01  0.46987172985E-01  0.49738402837E-01  0.76136422978E-01  0.51100000000E-03 0.  1.
</event>
<event>
 8    1  0.1084146E+005  0.1043930E+01  0.7957747E-01            NaN
         13   -1    0    0    0    0  0.00000000000E+00  0.00000000000E+00  0.74505805969E-08  0.10566000000E+00  0.10566000000E+00 0. -1.
     999900   -1    0    0    0    0 -0.00000000000E+00 -0.00000000000E+00 -0.74505805969E-08  0.93827000000E+00  0.93827000000E+00 0.  1.
     999902    2    1    2    0    0 -0.40213000583E-02  0.23480373606E-01 -0.25519049279E-02  0.10199714730E+01  0.10196900483E+01 0.  0.
     999903    2    3    3    0    0  0.12793687421E+00 -0.58333609026E-02  0.32214671169E-02  0.12963132077E+00  0.19799737184E-01 0.  0.
         14    1    1    2    0    0  0.40213000583E-02 -0.23480373606E-01  0.25519049279E-02  0.23958527033E-01  0.00000000000E+00 0.  1.
     999901    1    3    3    0    0 -0.13195817427E+00  0.29313734508E-01 -0.57733720448E-02  0.89034015220E+00  0.88000000000E+00 0.  1.
        -11    1    4    4    0    0  0.10985372858E+00  0.18642873483E-02  0.13089827301E-02  0.10987853206E+00  0.51100000000E-03 0. -1.
         11    1    4    4    0    0  0.18083145630E-01 -0.76976482508E-02  0.19124843868E-02  0.19752788715E-01  0.51100000000E-03 0.  1.
</event>
<event>
 8    1  0.1084146E+005  0.1043930E+01  0.7957747E-01            NaN
         13   -1    0    0    0    0  0.00000000000E+00  0.00000000000E+00  0.74505805969E-08  0.10566000000E+00  0.10566000000E+00 0. -1.
     999900   -1    0    0    0    0 -0.00000000000E+00 -0.00000000000E+00 -0.74505805969E-08  0.93827000000E+00  0.93827000000E+00 0. -1.
     999902    2    1    2    0    0  0.21597451440E-01 -0.17528715525E-02 -0.14902326762E-01  0.10176316767E+01  0.10172918104E+01 0.  0.
     999903    2    3    3    0    0 -0.45074535003E-01  0.70153985574E-01 -0.95698722444E-01  0.12850637198E+00  0.20058583293E-01 0.  0.
         14    1    1    2    0    0 -0.21597451440E-01  0.17528715525E-02  0.14902326762E-01  0.26298323336E-01  0.00000000000E+00 0. -1.
     999901    1    3    3    0    0  0.66671986443E-01 -0.71906857126E-01  0.80796395682E-01  0.88912530469E+00  0.88000000000E+00 0.  1.
        -11    1    4    4    0    0 -0.14662247919E-01  0.36761352373E-01 -0.34932259993E-01  0.52791120954E-01  0.51100000000E-03 0.  1.
         11    1    4    4    0    0 -0.30412287083E-01  0.33392633201E-01 -0.60766462452E-01  0.75715251024E-01  0.51100000000E-03 0. -1.
</event>
<event>
 8    1  0.1084146E+005  0.1043930E+01  0.7957747E-01            NaN
         13   -1    0    0    0    0  0.00000000000E+00  0.00000000000E+00  0.74505805969E-08  0.10566000000E+00  0.10566000000E+00 0. -1.
     999900   -1    0    0    0    0 -0.00000000000E+00 -0.00000000000E+00 -0.74505805969E-08  0.93827000000E+00  0.93827000000E+00 0. -1.
     999902    2    1    2    0    0  0.17814091117E-01 -0.60003862970E-02 -0.15261112554E-01  0.10197174406E+01  0.10194299439E+01 0.  0.
     999903    2    3    3    0    0  0.45176552761E-01 -0.52362534136E-01 -0.11163828547E+00  0.13282020158E+00  0.19883240781E-01 0.  0.
         14    1    1    2    0    0 -0.17814091117E-01  0.60003862970E-02  0.15261112554E-01  0.24212559435E-01  0.00000000000E+00 0.  1.
     999901    1    3    3    0    0 -0.27362461645E-01  0.46362147839E-01  0.96377172918E-01  0.88689723898E+00  0.88000000000E+00 0.  1.
        -11    1    4    4    0    0  0.94958924341E-02 -0.12273238955E-01 -0.42818607023E-01  0.45546663939E-01  0.51100000000E-03 0. -1.
         11    1    4    4    0    0  0.35680660327E-01 -0.40089295181E-01 -0.68819678449E-01  0.87273537641E-01  0.51100000000E-03 0.  1.
</event>
<event>
 8    1  0.1084146E+005  0.1043930E+01  0.7957747E-01            NaN
         13   -1    0    0    0    0  0.00000000000E+00  0.00000000000E+00  0.74505805969E-08  0.10566000000E+00  0.10566000000E+00 0. -1.
     999900   -1    0    0    0    0 -0.00000000000E+00 -0.00000000000E+00 -0.74505805969E-08  0.93827000000E+00  0.93827000000E+00 0. -1.
     999902    2    1    2    0    0 -0.15856590331E-02  0.22129507981E-01 -0.83297727289E-02  0.10202315918E+01  0.10199563159E+01 0.  0.
     999903    2    3    3    0    0  0.27326569310E-01  0.12886452758E+00  0.33859935569E-02  0.13323354188E+00  0.19669872205E-01 0.  0.
         14    1    1    2    0    0  0.15856590331E-02 -0.22129507981E-01  0.83297727289E-02  0.23698408212E-01  0.00000000000E+00 0.  1.
     999901    1    3    3    0    0 -0.28912228343E-01 -0.10673501959E+00 -0.11715766286E-01  0.88699804991E+00  0.88000000000E+00 0. -1.
        -11    1    4    4    0    0  0.24738366503E-02  0.27809850394E-01  0.80513780576E-02  0.29061890103E-01  0.51100000000E-03 0.  1.
         11    1    4    4    0    0  0.24852732660E-01  0.10105467718E+00 -0.46653845007E-02  0.10417165178E+00  0.51100000000E-03 0. -1.
</event>
<event>
 8    1  0.1084146E+005  0.1043930E+01  0.7957747E-01            NaN
         13   -1    0    0    0    0  0.00000000000E+00  0.00000000000E+00  0.74505805969E-08  0.10566000000E+00  0.10566000000E+00 0. -1.
     999900   -1    0    0    0    0 -0.00000000000E+00 -0.00000000000E+00 -0.74505805969E-08  0.93827000000E+00  0.93827000000E+00 0.  1.
     999902    2    1    2    0    0  0.18432771575E-01  0.17942945441E-01  0.65701078863E-03  0.10181977630E+01  0.10178725542E+01 0.  0.
     999903    2    3    3    0    0 -0.38638170805E-01 -0.10262879636E+00  0.59133242598E-01  0.12622573030E+00  0.20263674987E-01 0.  0.
         14    1    1    2    0    0 -0.18432771575E-01 -0.17942945441E-01 -0.65701078863E-03  0.25732237023E-01  0.00000000000E+00 0. -1.
     999901    1    3    3    0    0  0.57070942380E-01  0.12057174181E+00 -0.58476231810E-01  0.89197203267E+00  0.88000000000E+00 0.  1.
        -11    1    4    4    0    0 -0.23744108546E-01 -0.68658920437E-01  0.28221842533E-01  0.77939486546E-01  0.51100000000E-03 0.  1.
         11    1    4    4    0    0 -0.14894062260E-01 -0.33969875928E-01  0.30911400065E-01  0.48286243757E-01  0.51100000000E-03 0. -1.
</event>
<event>
 8    1  0.1084146E+005  0.1043930E+01  0.7957747E-01            NaN
         13   -1    0    0    0    0  0.00000000000E+00  0.00000000000E+00  0.74505805969E-08  0.10566000000E+00  0.10566000000E+00 0.  1.
     999900   -1    0    0    0    0 -0.00000000000E+00 -0.00000000000E+00 -0.74505805969E-08  0.93827000000E+00  0.93827000000E+00 0. -1.
     999902    2    1    2    0    0  0.43171256769E-02 -0.24311869590E-01  0.69155452323E-02  0.10182876650E+01  0.10179647535E+01 0.  0.
     999903    2    3    3    0    0  0.54793755192E-01  0.95848838899E-01  0.59797939796E-01  0.12711818976E+00  0.19846537169E-01 0.  0.
         14    1    1    2    0    0 -0.43171256769E-02  0.24311869590E-01 -0.69155452323E-02  0.25642334974E-01  0.00000000000E+00 0. -1.
     999901    1    3    3    0    0 -0.50476629515E-01 -0.12016070849E+00 -0.52882394564E-01  0.89116947527E+00  0.88000000000E+00 0. -1.
        -11    1    4    4    0    0  0.28137359270E-01  0.33791814640E-01  0.30372970639E-01  0.53445076385E-01  0.51100000000E-03 0.  1.
         11    1    4    4    0    0  0.26656395922E-01  0.62057024259E-01  0.29424969157E-01  0.73673113375E-01  0.51100000000E-03 0. -1.
</event>
<event>
 8    1  0.1084146E+005  0.1043930E+01  0.7957747E-01            NaN
         13   -1    0    0    0    0  0.00000000000E+00  0.00000000000E+00  0.74505805969E-08  0.10566000000E+00  0.10566000000E+00 0.  1.
     999900   -1    0    0    0    0 -0.00000000000E+00 -0.00000000000E+00 -0.74505805969E-08  0.93827000000E+00  0.93827000000E+00 0. -1.
     999902    2    1    2    0    0 -0.68776237124E-02 -0.20977557702E-01 -0.50954821176E-02  0.10212733548E+01  0.10210220084E+01 0.  0.
     999903    2    3    3    0    0 -0.50556166138E-01 -0.12279055643E+00 -0.25248838887E-02  0.13432335068E+00  0.20073385787E-01 0.  0.
         14    1    1    2    0    0  0.68776237124E-02  0.20977557702E-01  0.50954821176E-02  0.22656645230E-01  0.00000000000E+00 0. -1.
     999901    1    3    3    0    0  0.43678542425E-01  0.10181299873E+00 -0.25705982289E-02  0.88695000409E+00  0.88000000000E+00 0. -1.
        -11    1    4    4    0    0 -0.21385752021E-01 -0.36519670715E-01  0.64471061773E-02  0.42811949707E-01  0.51100000000E-03 0. -1.
         11    1    4    4    0    0 -0.29170414117E-01 -0.86270885713E-01 -0.89719900659E-02  0.91511400974E-01  0.51100000000E-03 0.  1.
</event>
<event>
 8    1  0.1084146E+005  0.1043930E+01  0.7957747E-01            NaN
         13   -1    0    0    0    0  0.00000000000E+00  0.00000000000E+00  0.74505805969E-08  0.10566000000E+00  0.10566000000E+00 0. -1.
     999900   -1    0    0    0    0 -0.00000000000E+00 -0.00000000000E+00 -0.74505805969E-08  0.93827000000E+00  0.93827000000E+00 0.  1.
     999902    2    1    2    0    0  0.77610017874E-02 -0.20139053299E-01  0.10040608856E-01  0.10201260414E+01  0.10198482789E+01 0.  0.
     999903    2    3    3    0    0  0.96134376177E-01 -0.82444157863E-01 -0.33648922615E-01  0.13243208827E+00  0.19161173268E-01 0.  0.
         14    1    1    2    0    0 -0.77610017874E-02  0.20139053299E-01 -0.10040608856E-01  0.23803958551E-01  0.00000000000E+00 0. -1.
     999901    1    3    3    0    0 -0.88373374389E-01  0.62305104564E-01  0.43689531471E-01  0.88769395318E+00  0.88000000000E+00 0. -1.
        -11    1    4    4    0    0  0.85153191915E-01 -0.76116876381E-01 -0.35519907050E-01  0.11961091038E+00  0.51100000000E-03 0.  1.
         11    1    4    4    0    0  0.10981184262E-01 -0.63272814820E-02  0.18709844348E-02  0.12821177890E-01  0.51100000000E-03 0. -1.
</event>
<event>
 8    1  0.1084146E+005  0.1043930E+01  0.7957747E-01            NaN
         13   -1    0    0    0    0  0.00000000000E+00  0.00000000000E+00  0.74505805969E-08  0.10566000000E+00  0.10566000000E+00 0. -1.
     999900   -1    0    0    0    0 -0.00000000000E+00 -0.00000000000E+00 -0.74505805969E-08  0.93827000000E+00  0.93827000000E+00 0.  1.
     999902    2    1    2    0    0  0.74056395142E-02 -0.21709807466E-01  0.35474684084E-02  0.10207191454E+01  0.10204552073E+01 0.  0.
     999903    2    3    3    0    0  0.10396026121E+00  0.61738265975E-02 -0.77574322674E-01  0.13129178079E+00  0.19336600498E-01 0.  0.
         14    1    1    2    0    0 -0.74056395142E-02  0.21709807466E-01 -0.35474684084E-02  0.23210854550E-01  0.00000000000E+00 0.  1.
     999901    1    3    3    0    0 -0.96554621695E-01 -0.27883634064E-01  0.81121791083E-01  0.88942736466E+00  0.88000000000E+00 0.  1.
        -11    1    4    4    0    0  0.33301712815E-01 -0.46751100384E-02 -0.17495880839E-01  0.37910786033E-01  0.51100000000E-03 0.  1.
         11    1    4    4    0    0  0.70658548394E-01  0.10848936636E-01 -0.60078441836E-01  0.93380994756E-01  0.51100000000E-03 0. -1.
</event>
<event>
 8    1  0.1084146E+005  0.1043930E+01  0.7957747E-01            NaN
         13   -1    0    0    0    0  0.00000000000E+00  0.00000000000E+00  0.74505805969E-08  0.10566000000E+00  0.10566000000E+00 0.  1.
     999900   -1    0    0    0    0 -0.00000000000E+00 -0.00000000000E+00 -0.74505805969E-08  0.93827000000E+00  0.93827000000E+00 0.  1.
     999902    2    1    2    0    0  0.10057993011E-02 -0.48812928703E-02 -0.22553278479E-01  0.10208326187E+01  0.10205712843E+01 0.  0.
     999903    2    3    3    0    0  0.97229533444E-01 -0.84955651348E-01  0.11782235187E-01  0.13131036638E+00  0.20797749447E-01 0.  0.
         14    1    1    2    0    0 -0.10057993011E-02  0.48812928703E-02  0.22553278479E-01  0.23097381290E-01  0.00000000000E+00 0.  1.
     999901    1    3    3    0    0 -0.96223734143E-01  0.80074358478E-01 -0.34335513666E-01  0.88952225233E+00  0.88000000000E+00 0. -1.
        -11    1    4    4    0    0  0.43295065709E-01 -0.33893207502E-01  0.14907439463E-01  0.56971090053E-01  0.51100000000E-03 0.  1.
         11    1    4    4    0    0  0.53934467735E-01 -0.51062443846E-01 -0.31252042757E-02  0.74339276323E-01  0.51100000000E-03 0. -1.
</event>
<event>
 8    1  0.1084146E+005  0.1043930E+01  0.7957747E-01            NaN
         13   -1    0    0    0    0  0.00000000000E+00  0.00000000000E+00  0.74505805969E-08  0.10566000000E+00  0.10566000000E+00 0.  1.
     999900   -1    0    0    0    0 -0.00000000000E+00 -0.00000000000E+00 -0.74505805969E-08  0.93827000000E+00  0.93827000000E+00 0.  1.
     999902    2    1    2    0    0 -0.20521565667E-01 -0.40794453470E-02  0.11644005762E-01  0.10199850757E+01  0.10197039743E+01 0.  0.
     999903    2    3    3    0    0 -0.11194959664E+00 -0.63699081340E-01 -0.17569508131E-01  0.13276074369E+00  0.26952593516E-01 0.  0.
         14    1    1    2    0    0  0.20521565667E-01  0.40794453470E-02 -0.11644005762E-01  0.23944924346E-01  0.00000000000E+00 0. -1.
     999901    1    3    3    0    0  0.91428030969E-01  0.59619635993E-01  0.29213513893E-01  0.88722433197E+00  0.88000000000E+00 0. -1.
        -11    1    4    4    0    0 -0.59342308552E-01 -0.47305923692E-01 -0.16398615810E-01  0.77643645729E-01  0.51100000000E-03 0.  1.
         11    1    4    4    0    0 -0.52607288085E-01 -0.16393157648E-01 -0.11708923217E-02  0.55117097956E-01  0.51100000000E-03 0. -1.
</event>
<event>
 8    1  0.1084146E+005  0.1043930E+01  0.7957747E-01            NaN
         13   -1    0    0    0    0  0.00000000000E+00  0.00000000000E+00  0.74505805969E-08  0.10566000000E+00  0.10566000000E+00 0. -1.
     999900   -1    0    0    0    0 -0.00000000000E+00 -0.00000000000E+00 -0.74505805969E-08  0.93827000000E+00  0.93827000000E+00 0.  1.
     999902    2    1    2    0    0  0.15653964084E-01  0.14068394982E-01 -0.10566974102E-01  0.10203794741E+01  0.10201076629E+01 0.  0.
     999903    2    3    3    0    0  0.11093126206E+00  0.71130494384E-01 -0.20738960792E-04  0.13333659476E+00  0.20331132236E-01 0.  0.
         14    1    1    2    0    0 -0.15653964084E-01 -0.14068394982E-01  0.10566974102E-01  0.23550525908E-01  0.00000000000E+00 0.  1.
     999901    1    3    3    0    0 -0.95277297978E-01 -0.57062099402E-01 -0.10546235141E-01  0.88704287933E+00  0.88000000000E+00 0. -1.
        -11    1    4    4    0    0  0.74449728705E-01  0.57135114123E-01 -0.47853685564E-02  0.93969911372E-01  0.51100000000E-03 0. -1.
         11    1    4    4    0    0  0.36481533357E-01  0.13995380261E-01  0.47646295956E-02  0.39366683387E-01  0.51100000000E-03 0.  1.
</event>
<event>
 8    1  0.1084146E+005  0.1043930E+01  0.7957747E-01            NaN
         13   -1    0    0    0    0  0.00000000000E+00  0.00000000000E+00  0.74505805969E-08  0.10566000000E+00  0.10566000000E+00 0.  1.
     999900   -1    0    0    0    0 -0.00000000000E+00 -0.00000000000E+00 -0.74505805969E-08  0.93827000000E+00  0.93827000000E+00 0.  1.
     999902    2    1    2    0    0  0.28911265018E-02  0.21386637685E-01 -0.33608218072E-02  0.10220887087E+01  0.10218553158E+01 0.  0.
     999903    2    3    3    0    0  0.34198082165E-01 -0.11677358147E+00  0.40152426752E-01  0.12969766522E+00  0.20092009270E-01 0.  0.
         14    1    1    2    0    0 -0.28911265018E-02 -0.21386637685E-01  0.33608218072E-02  0.21841291334E-01  0.00000000000E+00 0.  1.
     999901    1    3    3    0    0 -0.31306955664E-01  0.13816021915E+00 -0.43513248559E-01  0.89239104345E+00  0.88000000000E+00 0.  1.
        -11    1    4    4    0    0  0.85232127802E-02 -0.45485512185E-01  0.62990545662E-02  0.46706703847E-01  0.51100000000E-03 0.  1.
         11    1    4    4    0    0  0.25674869385E-01 -0.71288069280E-01  0.33853372186E-01  0.82990961369E-01  0.51100000000E-03 0. -1.
</event>
<event>
 8    1  0.1084146E+005  0.1043930E+01  0.7957747E-01            NaN
         13   -1    0    0    0    0  0.00000000000E+00  0.00000000000E+00  0.74505805969E-08  0.10566000000E+00  0.10566000000E+00 0.  1.
     999900   -1    0    0    0    0 -0.00000000000E+00 -0.00000000000E+00 -0.74505805969E-08  0.93827000000E+00  0.93827000000E+00 0.  1.
     999902    2    1    2    0    0  0.23615328671E-01  0.12123356772E-03 -0.20652322824E-02  0.10202242279E+01  0.10199487789E+01 0.  0.
     999903    2    3    3    0    0  0.54844090254E-01  0.11758136843E+00  0.10508860928E-01  0.13178164302E+00  0.20559981525E-01 0.  0.
         14    1    1    2    0    0 -0.23615328671E-01 -0.12123356772E-03  0.20652322824E-02  0.23705772086E-01  0.00000000000E+00 0. -1.
     999901    1    3    3    0    0 -0.31228761583E-01 -0.11746013487E+00 -0.12574093210E-01  0.88844258489E+00  0.88000000000E+00 0.  1.
        -11    1    4    4    0    0  0.23276255939E-01  0.73137123026E-01  0.37161900732E-02  0.76843308393E-01  0.51100000000E-03 0. -1.
         11    1    4    4    0    0  0.31567834315E-01  0.44444245409E-01  0.67926708546E-02  0.54938334627E-01  0.51100000000E-03 0.  1.
</event>
<event>
 8    1  0.1084146E+005  0.1043930E+01  0.7957747E-01            NaN
         13   -1    0    0    0    0  0.00000000000E+00  0.00000000000E+00  0.74505805969E-08  0.10566000000E+00  0.10566000000E+00 0.  1.
     999900   -1    0    0    0    0 -0.00000000000E+00 -0.00000000000E+00 -0.74505805969E-08  0.93827000000E+00  0.93827000000E+00 0.  1.
     999902    2    1    2    0    0  0.77328997552E-02 -0.19913886045E-01  0.94579219319E-02  0.10205673614E+01  0.10202999197E+01 0.  0.
     999903    2    3    3    0    0 -0.80721410087E-01 -0.99715423965E-01  0.25818563300E-01  0.13238938317E+00  0.20030944644E-01 0.  0.
         14    1    1    2    0    0 -0.77328997552E-02  0.19913886045E-01 -0.94579219319E-02  0.23362638620E-01  0.00000000000E+00 0. -1.
     999901    1    3    3    0    0  0.88454309842E-01  0.79801537920E-01 -0.16360641368E-01  0.88817797821E+00  0.88000000000E+00 0. -1.
        -11    1    4    4    0    0 -0.31011648183E-01 -0.41471964976E-01  0.20275339853E-01  0.55614716840E-01  0.51100000000E-03 0. -1.
         11    1    4    4    0    0 -0.49709761904E-01 -0.58243458988E-01  0.55432234471E-02  0.76774666334E-01  0.51100000000E-03 0.  1.
</event>
<event>
 8    1  0.1084146E+005  0.1043930E+01  0.7957747E-01            NaN
         13   -1    0    0    0    0  0.00000000000E+00  0.00000000000E+00  0.74505805969E-08  0.10566000000E+00  0.10566000000E+00 0.  1.
     999900   -1    0    0    0    0 -0.00000000000E+00 -0.00000000000E+00 -0.74505805969E-08  0.93827000000E+00  0.93827000000E+00 0.  1.
     999902    2    1    2    0    0  0.35151994963E-02  0.23286240025E-01  0.34942801400E-02  0.10201221106E+01  0.10198442553E+01 0.  0.
     999903    2    3    3    0    0 -0.38162501363E-01 -0.11987389030E+00 -0.52519497524E-02  0.12753690451E+00  0.20296624131E-01 0.  0.
         14    1    1    2    0    0 -0.35151994963E-02 -0.23286240025E-01 -0.34942801400E-02  0.23807889358E-01  0.00000000000E+00 0.  1.
     999901    1    3    3    0    0  0.41677700860E-01  0.14316013032E+00  0.87462298923E-02  0.89258520613E+00  0.88000000000E+00 0. -1.
        -11    1    4    4    0    0 -0.28749618282E-01 -0.69994445018E-01 -0.10938343993E-01  0.76456990361E-01  0.51100000000E-03 0.  1.
         11    1    4    4    0    0 -0.94128830814E-02 -0.49879445280E-01  0.56863942405E-02  0.51079914152E-01  0.51100000000E-03 0. -1.
</event>
<event>
 8    1  0.1084146E+005  0.1043930E+01  0.7957747E-01            NaN
         13   -1    0    0    0    0  0.00000000000E+00  0.00000000000E+00  0.74505805969E-08  0.10566000000E+00  0.10566000000E+00 0. -1.
     999900   -1    0    0    0    0 -0.00000000000E+00 -0.00000000000E+00 -0.74505805969E-08  0.93827000000E+00  0.93827000000E+00 0.  1.
     999902    2    1    2    0    0  0.21004410026E-01 -0.37588983378E-02 -0.35419328991E-02  0.10222999319E+01  0.10220710792E+01 0.  0.
     999903    2    3    3    0    0 -0.33510894565E-01 -0.89461344817E-01 -0.89310569899E-01  0.13231505177E+00  0.20114242680E-01 0.  0.
         14    1    1    2    0    0 -0.21004410026E-01  0.37588983378E-02  0.35419328991E-02  0.21630068098E-01  0.00000000000E+00 0.  1.
     999901    1    3    3    0    0  0.54515304592E-01  0.85702446479E-01  0.85768637000E-01  0.88998488013E+00  0.88000000000E+00 0. -1.
        -11    1    4    4    0    0 -0.23939870211E-01 -0.50646281498E-01 -0.63722986424E-01  0.84847176353E-01  0.51100000000E-03 0. -1.
         11    1    4    4    0    0 -0.95710243539E-02 -0.38815063319E-01 -0.25587583476E-01  0.47467875419E-01  0.51100000000E-03 0.  1.
</event>
<event>
 8    1  0.1084146E+005  0.1043930E+01  0.7957747E-01            NaN
         13   -1    0    0    0    0  0.00000000000E+00  0.00000000000E+00  0.74505805969E-08  0.10566000000E+00  0.10566000000E+00 0. -1.
     999900   -1    0    0    0    0 -0.00000000000E+00 -0.00000000000E+00 -0.74505805969E-08  0.93827000000E+00  0.93827000000E+00 0. -1.
     999902    2    1    2    0    0  0.20901478897E-01  0.61027495884E-02  0.86564871226E-02  0.10204981810E+01  0.10202291347E+01 0.  0.
     999903    2    3    3    0    0  0.32711436384E-01 -0.46112311385E-01 -0.11532400496E+00  0.13019651858E+00  0.21333635373E-01 0.  0.
         14    1    1    2    0    0 -0.20901478897E-01 -0.61027495884E-02 -0.86564871226E-02  0.23431819006E-01  0.00000000000E+00 0.  1.
     999901    1    3    3    0    0 -0.11809957487E-01  0.52215060974E-01  0.12398049208E+00  0.89030166242E+00  0.88000000000E+00 0.  1.
        -11    1    4    4    0    0  0.85863256539E-02 -0.15897943414E-01 -0.18167035227E-01  0.25627561004E-01  0.51100000000E-03 0. -1.
         11    1    4    4    0    0  0.24125110730E-01 -0.30214367971E-01 -0.97156969730E-01  0.10456895757E+00  0.51100000000E-03 0.  1.
</event>
<event>
 8    1  0.1084146E+005  0.1043930E+01  0.7957747E-01            NaN
         13   -1    0    0    0    0  0.00000000000E+00  0.00000000000E+00  0.74505805969E-08  0.10566000000E+00  0.10566000000E+00 0. -1.
     999900   -1    0    0    0    0 -0.00000000000E+00 -0.00000000000E+00 -0.74505805969E-08  0.93827000000E+00  0.93827000000E+00 0. -1.
     999902    2    1    2    0    0 -0.10501073011E-01  0.11782805530E-01 -0.16487556264E-01  0.10211057464E+01  0.10208506251E+01 0.  0.
     999903    2    3    3    0    0  0.56510390386E-01 -0.11297320345E+00 -0.22276812310E-01  0.12976511932E+00  0.19656065418E-01 0.  0.
         14    1    1    2    0    0  0.10501073011E-01 -0.11782805530E-01  0.16487556264E-01  0.22824253593E-01  0.00000000000E+00 0.  1.
     999901    1    3    3    0    0 -0.67011463397E-01  0.12475600898E+00  0.57892560465E-02  0.89134062708E+00  0.88000000000E+00 0.  1.
        -11    1    4    4    0    0  0.37085297317E-01 -0.55281094409E-01 -0.16704149609E-01  0.68633872187E-01  0.51100000000E-03 0. -1.
         11    1    4    4    0    0  0.19425093069E-01 -0.57692109038E-01 -0.55726627019E-02  0.61131247138E-01  0.51100000000E-03 0.  1.
</event>
<event>
 8    1  0.1084146E+005  0.1043930E+01  0.7957747E-01            NaN
         13   -1    0    0    0    0  0.00000000000E+00  0.00000000000E+00  0.74505805969E-08  0.10566000000E+00  0.10566000000E+00 0. -1.
     999900   -1    0    0    0    0 -0.00000000000E+00 -0.00000000000E+00 -0.74505805969E-08  0.93827000000E+00  0.93827000000E+00 0. -1.
     999902    2    1    2    0    0  0.45308810966E-02 -0.11147252939E-01 -0.20390853278E-01  0.10202534920E+01  0.10199787307E+01 0.  0.
     999903    2    3    3    0    0  0.10936358312E+00  0.63918921988E-01  0.20818185729E-01  0.12990355470E+00  0.19887553031E-01 0.  0.
         14    1    1    2    0    0 -0.45308810966E-02  0.11147252939E-01  0.20390853278E-01  0.23676507956E-01  0.00000000000E+00 0. -1.
     999901    1    3    3    0    0 -0.10483270202E+00 -0.75066174927E-01 -0.41209039007E-01  0.89034993734E+00  0.88000000000E+00 0.  1.
        -11    1    4    4    0    0  0.49413214904E-01  0.23223738071E-01  0.32617215856E-03  0.54601971818E-01  0.51100000000E-03 0.  1.
         11    1    4    4    0    0  0.59950368217E-01  0.40695183917E-01  0.20492013570E-01  0.75301582882E-01  0.51100000000E-03 0. -1.
</event>
<event>
 8    1  0.1084146E+005  0.1043930E+01  0.7957747E-01            NaN
         13   -1    0    0    0    0  0.00000000000E+00  0.00000000000E+00  0.74505805969E-08  0.10566000000E+00  0.10566000000E+00 0. -1.
     999900   -1    0    0    0    0 -0.00000000000E+00 -0.00000000000E+00 -0.74505805969E-08  0.93827000000E+00  0.93827000000E+00 0.  1.
     999902    2    1    2    0    0  0.19534616691E-01  0.13447429210E-01 -0.12149869221E-01  0.10172831630E+01  0.10169341079E+01 0.  0.
     999903    2    3    3    0    0 -0.42459900001E-01 -0.91317654743E-01  0.71243677624E-01  0.12499759961E+00  0.20173773372E-01 0.  0.
         14    1    1    2    0    0 -0.19534616691E-01 -0.13447429210E-01  0.12149869221E-01  0.26646837030E-01  0.00000000000E+00 0. -1.
     999901    1    3    3    0    0  0.61994516692E-01  0.10476508395E+00 -0.83393546846E-01  0.89228556335E+00  0.88000000000E+00 0.  1.
        -11    1    4    4    0    0 -0.74458793957E-02 -0.37003255383E-02  0.51047328910E-02  0.97700024541E-02  0.51100000000E-03 0.  1.
         11    1    4    4    0    0 -0.35014020606E-01 -0.87617329205E-01  0.66138944733E-01  0.11522759716E+00  0.51100000000E-03 0. -1.
</event>
<event>
 8    1  0.1084146E+005  0.1043930E+01  0.7957747E-01            NaN
         13   -1    0    0    0    0  0.00000000000E+00  0.00000000000E+00  0.74505805969E-08  0.10566000000E+00  0.10566000000E+00 0. -1.
     999900   -1    0    0    0    0 -0.00000000000E+00 -0.00000000000E+00 -0.74505805969E-08  0.93827000000E+00  0.93827000000E+00 0.  1.
     999902    2    1    2    0    0 -0.17206340819E-01 -0.76319495273E-02  0.15120048247E-01  0.10197862497E+01  0.10195004043E+01 0.  0.
     999903    2    3    3    0    0  0.56986476931E-02  0.24349891503E-03 -0.12641277093E+00  0.12814831868E+00  0.20230399143E-01 0.  0.
         14    1    1    2    0    0  0.17206340819E-01  0.76319495273E-02 -0.15120048247E-01  0.24143750267E-01  0.00000000000E+00 0.  1.
     999901    1    3    3    0    0 -0.22904988512E-01 -0.78754484423E-02  0.14153281918E+00  0.89163793105E+00  0.88000000000E+00 0. -1.
        -11    1    4    4    0    0  0.92437997363E-02 -0.41221363033E-02 -0.31989830682E-01  0.33556671905E-01  0.51100000000E-03 0.  1.
         11    1    4    4    0    0 -0.35451520432E-02  0.43656352184E-02 -0.94422940247E-01  0.94591646776E-01  0.51100000000E-03 0. -1.
</event>
<event>
 8    1  0.1084146E+005  0.1043930E+01  0.7957747E-01            NaN
         13   -1    0    0    0    0  0.00000000000E+00  0.00000000000E+00  0.74505805969E-08  0.10566000000E+00  0.10566000000E+00 0. -1.
     999900   -1    0    0    0    0 -0.00000000000E+00 -0.00000000000E+00 -0.74505805969E-08  0.93827000000E+00  0.93827000000E+00 0.  1.
     999902    2    1    2    0    0  0.10376540363E-02  0.36784782456E-02 -0.23450905057E-01  0.10201696785E+01  0.10198929454E+01 0.  0.
     999903    2    3    3    0    0 -0.96515563073E-02 -0.87565508355E-01  0.91051446602E-01  0.12800909162E+00  0.18305485966E-01 0.  0.
         14    1    1    2    0    0 -0.10376540363E-02 -0.36784782456E-02  0.23450905057E-01  0.23760321465E-01  0.00000000000E+00 0. -1.
     999901    1    3    3    0    0  0.10689210344E-01  0.91243986601E-01 -0.11450235166E+00  0.89216058691E+00  0.88000000000E+00 0.  1.
        -11    1    4    4    0    0  0.31760735475E-02 -0.52608155783E-01  0.51692608034E-01  0.73824740734E-01  0.51100000000E-03 0. -1.
         11    1    4    4    0    0 -0.12827629855E-01 -0.34957352572E-01  0.39358838568E-01  0.54184350887E-01  0.51100000000E-03 0.  1.
</event>
<event>
 8    1  0.1084146E+005  0.1043930E+01  0.7957747E-01            NaN
         13   -1    0    0    0    0  0.00000000000E+00  0.00000000000E+00  0.74505805969E-08  0.10566000000E+00  0.10566000000E+00 0. -1.
     999900   -1    0    0    0    0 -0.00000000000E+00 -0.00000000000E+00 -0.74505805969E-08  0.93827000000E+00  0.93827000000E+00 0.  1.
     999902    2    1    2    0    0 -0.14919776920E-01  0.14714697703E-01 -0.11797576488E-01  0.10198820295E+01  0.10195984746E+01 0.  0.
     999903    2    3    3    0    0  0.37202993435E-01 -0.10142252452E+00  0.64679446941E-01  0.12743966576E+00  0.19668409989E-01 0.  0.
         14    1    1    2    0    0  0.14919776920E-01 -0.14714697703E-01  0.11797576488E-01  0.24047970451E-01  0.00000000000E+00 0.  1.
     999901    1    3    3    0    0 -0.52122770355E-01  0.11613722222E+00 -0.76477023428E-01  0.89244236379E+00  0.88000000000E+00 0. -1.
        -11    1    4    4    0    0  0.22273968852E-01 -0.56270689371E-01  0.47274541812E-01  0.76796247273E-01  0.51100000000E-03 0.  1.
         11    1    4    4    0    0  0.14929024583E-01 -0.45151835149E-01  0.17404905129E-01  0.50643418485E-01  0.51100000000E-03 0. -1.
</event>
<event>
 8    1  0.1084146E+005  0.1043930E+01  0.7957747E-01            NaN
         13   -1    0    0    0    0  0.00000000000E+00  0.00000000000E+00  0.74505805969E-08  0.10566000000E+00  0.10566000000E+00 0.  1.
     999900   -1    0    0    0    0 -0.00000000000E+00 -0.00000000000E+00 -0.74505805969E-08  0.93827000000E+00  0.93827000000E+00 0.  1.
     999902    2    1    2    0    0 -0.10333056335E-01 -0.25460308014E-02 -0.21667545046E-01  0.10197900573E+01  0.10195043031E+01 0.  0.
     999903    2    3    3    0    0 -0.41882493844E-01  0.52541280379E-01  0.10745224089E+00  0.12810519256E+00  0.18714348893E-01 0.  0.
         14    1    1    2    0    0  0.10333056335E-01  0.25460308014E-02  0.21667545046E-01  0.24139942717E-01  0.00000000000E+00 0.  1.
     999901    1    3    3    0    0  0.31549437509E-01 -0.55087311180E-01 -0.12911978593E+00  0.89168486472E+00  0.88000000000E+00 0.  1.
        -11    1    4    4    0    0 -0.14174014396E-01  0.18254371984E-01  0.54517999912E-01  0.59216536677E-01  0.51100000000E-03 0. -1.
         11    1    4    4    0    0 -0.27708479448E-01  0.34286908395E-01  0.52934240974E-01  0.68888655882E-01  0.51100000000E-03 0.  1.
</event>
<event>
 8    1  0.1084146E+005  0.1043930E+01  0.7957747E-01            NaN
         13   -1    0    0    0    0  0.00000000000E+00  0.00000000000E+00  0.74505805969E-08  0.10566000000E+00  0.10566000000E+00 0.  1.
     999900   -1    0    0    0    0 -0.00000000000E+00 -0.00000000000E+00 -0.74505805969E-08  0.93827000000E+00  0.93827000000E+00 0.  1.
     999902    2    1    2    0    0 -0.77792037680E-02 -0.78276921945E-02  0.21013468466E-01  0.10201949071E+01  0.10199187683E+01 0.  0.
     999903    2    3    3    0    0  0.95093827859E-01  0.83003525898E-01  0.20916575289E-01  0.12955851657E+00  0.20383441433E-01 0.  0.
         14    1    1    2    0    0  0.77792037680E-02  0.78276921945E-02 -0.21013468466E-01  0.23735092865E-01  0.00000000000E+00 0. -1.
     999901    1    3    3    0    0 -0.10287303163E+00 -0.90831218093E-01  0.96893176966E-04  0.89063639057E+00  0.88000000000E+00 0.  1.
        -11    1    4    4    0    0  0.45341300109E-01  0.35228776021E-01  0.19244483868E-01  0.60559982132E-01  0.51100000000E-03 0. -1.
         11    1    4    4    0    0  0.49752527749E-01  0.47774749877E-01  0.16720914214E-02  0.68998534434E-01  0.51100000000E-03 0.  1.
</event>
<event>
 8    1  0.1084146E+005  0.1043930E+01  0.7957747E-01            NaN
         13   -1    0    0    0    0  0.00000000000E+00  0.00000000000E+00  0.74505805969E-08  0.10566000000E+00  0.10566000000E+00 0.  1.
     999900   -1    0    0    0    0 -0.00000000000E+00 -0.00000000000E+00 -0.74505805969E-08  0.93827000000E+00  0.93827000000E+00 0.  1.
     999902    2    1    2    0    0 -0.23758795228E-01 -0.78738373217E-03  0.23281248408E-02  0.10200444293E+01  0.10197647362E+01 0.  0.
     999903    2    3    3    0    0  0.12515539193E-01 -0.89210997158E-01 -0.91365868250E-01  0.12992470300E+00  0.20431980665E-01 0.  0.
         14    1    1    2    0    0  0.23758795228E-01  0.78738373217E-03 -0.23281248408E-02  0.23885570731E-01  0.00000000000E+00 0.  1.
     999901    1    3    3    0    0 -0.36274334421E-01  0.88423613426E-01  0.93693993090E-01  0.89011972627E+00  0.88000000000E+00 0. -1.
        -11    1    4    4    0    0  0.11796175954E-01 -0.71010692606E-01 -0.83019339183E-01  0.10988239181E+00  0.51100000000E-03 0.  1.
         11    1    4    4    0    0  0.71936323891E-03 -0.18200304552E-01 -0.83465290663E-02  0.20042311187E-01  0.51100000000E-03 0. -1.
</event>
<event>
 8    1  0.1480676E+005  0.1043930E+01  0.7957747E-01            NaN
         13   -1    0    0    0    0  0.00000000000E+00  0.00000000000E+00  0.74505805969E-08  0.10566000000E+00  0.10566000000E+00 0. -1.
     999900   -1    0    0    0    0 -0.00000000000E+00 -0.00000000000E+00 -0.74505805969E-08  0.93827000000E+00  0.93827000000E+00 0. -1.
     999902    2    1    2    0    0  0.11987982435E-01 -0.52695037133E-03  0.21202866974E-01  0.10195670985E+01  0.10192759771E+01 0.  0.
     999903    2    3    3    0    0 -0.22871518016E-01 -0.12392948571E+00 -0.20506429671E-01  0.12929577140E+00  0.20377906638E-01 0.  0.
         14    1    1    2    0    0 -0.11987982435E-01  0.52695037133E-03 -0.21202866974E-01  0.24362901458E-01  0.00000000000E+00 0.  1.
     999901    1    3    3    0    0  0.34859500451E-01  0.12340253534E+00  0.41709296645E-01  0.89027132714E+00  0.88000000000E+00 0.  1.
        -11    1    4    4    0    0 -0.23788225726E-01 -0.76346263754E-01 -0.15280859822E-01  0.81414970800E-01  0.51100000000E-03 0.  1.
         11    1    4    4    0    0  0.91670770953E-03 -0.47583221959E-01 -0.52255698487E-02  0.47880800602E-01  0.51100000000E-03 0. -1.
</event>
<event>
 8    1  0.1084146E+005  0.1043930E+01  0.7957747E-01            NaN
         13   -1    0    0    0    0  0.00000000000E+00  0.00000000000E+00  0.74505805969E-08  0.10566000000E+00  0.10566000000E+00 0. -1.
     999900   -1    0    0    0    0 -0.00000000000E+00 -0.00000000000E+00 -0.74505805969E-08  0.93827000000E+00  0.93827000000E+00 0.  1.
     999902    2    1    2    0    0 -0.14953400352E-01 -0.12862474248E-01  0.71335916484E-02  0.10229553592E+01  0.10227403050E+01 0.  0.
     999903    2    3    3    0    0  0.10766604759E+00 -0.74299272512E-01  0.27225342734E-02  0.13232105345E+00  0.19725346496E-01 0.  0.
         14    1    1    2    0    0  0.14953400352E-01  0.12862474248E-01 -0.71335916484E-02  0.20974640776E-01  0.00000000000E+00 0. -1.
     999901    1    3    3    0    0 -0.12261944794E+00  0.61436798264E-01  0.44110573750E-02  0.89063430577E+00  0.88000000000E+00 0. -1.
        -11    1    4    4    0    0  0.77256902005E-01 -0.50656263629E-01  0.10633814697E-01  0.92994758392E-01  0.51100000000E-03 0.  1.
         11    1    4    4    0    0  0.30409145582E-01 -0.23643008882E-01 -0.79112804241E-02  0.39326295058E-01  0.51100000000E-03 0. -1.
</event>
<event>
 8    1  0.1084146E+005  0.1043930E+01  0.7957747E-01            NaN
         13   -1    0    0    0    0  0.00000000000E+00  0.00000000000E+00  0.74505805969E-08  0.10566000000E+00  0.10566000000E+00 0. -1.
     999900   -1    0    0    0    0 -0.00000000000E+00 -0.00000000000E+00 -0.74505805969E-08  0.93827000000E+00  0.93827000000E+00 0.  1.
     999902    2    1    2    0    0  0.81466466342E-02  0.20721193727E-01 -0.92381042683E-02  0.10198244344E+01  0.10195395033E+01 0.  0.
     999903    2    3    3    0    0  0.66953874714E-01 -0.24851268455E-04  0.10993771972E+00  0.12960448101E+00  0.15106201489E-01 0.  0.
         14    1    1    2    0    0 -0.81466466342E-02 -0.20721193727E-01  0.92381042683E-02  0.24105565568E-01  0.00000000000E+00 0. -1.
     999901    1    3    3    0    0 -0.58807228079E-01  0.20746044996E-01 -0.11917582398E+00  0.89021995343E+00  0.88000000000E+00 0.  1.
        -11    1    4    4    0    0  0.16299169366E-01  0.52028648367E-02  0.35526556738E-01  0.39435137621E-01  0.51100000000E-03 0. -1.
         11    1    4    4    0    0  0.50654705347E-01 -0.52277161051E-02  0.74411162978E-01  0.90169343384E-01  0.51100000000E-03 0.  1.
</event>
<event>
 8    1  0.1084146E+005  0.1043930E+01  0.7957747E-01            NaN
         13   -1    0    0    0    0  0.00000000000E+00  0.00000000000E+00  0.74505805969E-08  0.10566000000E+00  0.10566000000E+00 0.  1.
     999900   -1    0    0    0    0 -0.00000000000E+00 -0.00000000000E+00 -0.74505805969E-08  0.93827000000E+00  0.93827000000E+00 0.  1.
     999902    2    1    2    0    0  0.20768490465E-01 -0.38131019592E-02  0.94513097586E-02  0.10207956706E+01  0.10205334898E+01 0.  0.
     999903    2    3    3    0    0 -0.99058071554E-01 -0.66809389727E-01 -0.44116488163E-01  0.12883353783E+00  0.19386073523E-01 0.  0.
         14    1    1    2    0    0 -0.20768490465E-01  0.38131019592E-02 -0.94513097586E-02  0.23134329445E-01  0.00000000000E+00 0. -1.
     999901    1    3    3    0    0  0.11982656202E+00  0.62996287768E-01  0.53567797921E-01  0.89196213272E+00  0.88000000000E+00 0. -1.
        -11    1    4    4    0    0 -0.37154134050E-01 -0.19352457585E-01 -0.23981492624E-01  0.48273392268E-01  0.51100000000E-03 0. -1.
         11    1    4    4    0    0 -0.61903937504E-01 -0.47456932142E-01 -0.20134995539E-01  0.80560145563E-01  0.51100000000E-03 0.  1.
</event>
<event>
 8    1  0.1084146E+005  0.1043930E+01  0.7957747E-01            NaN
         13   -1    0    0    0    0  0.00000000000E+00  0.00000000000E+00  0.74505805969E-08  0.10566000000E+00  0.10566000000E+00 0.  1.
     999900   -1    0    0    0    0 -0.00000000000E+00 -0.00000000000E+00 -0.74505805969E-08  0.93827000000E+00  0.93827000000E+00 0. -1.
     999902    2    1    2    0    0 -0.11616094346E-01  0.19888642247E-01 -0.73314152674E-02  0.10197589142E+01  0.10194724134E+01 0.  0.
     999903    2    3    3    0    0  0.93548723320E-02 -0.12232996003E+00  0.25919504476E-01  0.12747446633E+00  0.22930026098E-01 0.  0.
         14    1    1    2    0    0  0.11616094346E-01 -0.19888642247E-01  0.73314152674E-02  0.24171085787E-01  0.00000000000E+00 0. -1.
     999901    1    3    3    0    0 -0.20970966678E-01  0.14221860227E+00 -0.33250919743E-01  0.89228444789E+00  0.88000000000E+00 0. -1.
        -11    1    4    4    0    0  0.12479108176E-01 -0.10563340513E+00  0.15374352600E-01  0.10747453773E+00  0.51100000000E-03 0. -1.
         11    1    4    4    0    0 -0.31242358442E-02 -0.16696554892E-01  0.10545151876E-01  0.19999928599E-01  0.51100000000E-03 0.  1.
</event>
<event>
 8    1  0.1084146E+005  0.1043930E+01  0.7957747E-01            NaN
         13   -1    0    0    0    0  0.00000000000E+00  0.00000000000E+00  0.74505805969E-08  0.10566000000E+00  0.10566000000E+00 0. -1.
     999900   -1    0    0    0    0 -0.00000000000E+00 -0.00000000000E+00 -0.74505805969E-08  0.93827000000E+00  0.93827000000E+00 0.  1.
     999902    2    1    2    0    0  0.34142447787E-02 -0.21458960960E-01  0.90787246200E-02  0.10203807471E+01  0.10201089656E+01 0.  0.
     999903    2    3    3    0    0 -0.17134771629E-01 -0.68801009044E-01  0.11078056563E+00  0.13302129563E+00  0.19878433695E-01 0.  0.
         14    1    1    2    0    0 -0.34142447787E-02  0.21458960960E-01 -0.90787246200E-02  0.23549252931E-01  0.00000000000E+00 0. -1.
     999901    1    3    3    0    0  0.20549016407E-01  0.47342048084E-01 -0.10170184101E+00  0.88735945144E+00  0.88000000000E+00 0.  1.
        -11    1    4    4    0    0 -0.16213350699E-01 -0.48863249822E-01  0.63860550788E-01  0.82030000561E-01  0.51100000000E-03 0. -1.
         11    1    4    4    0    0 -0.92142092994E-03 -0.19937759222E-01  0.46920014840E-01  0.50991295070E-01  0.51100000000E-03 0.  1.
</event>
<event>
 8    1  0.1151041E+005  0.1043930E+01  0.7957747E-01            NaN
         13   -1    0    0    0    0  0.00000000000E+00  0.00000000000E+00  0.74505805969E-08  0.10566000000E+00  0.10566000000E+00 0.  1.
     999900   -1    0    0    0    0 -0.00000000000E+00 -0.00000000000E+00 -0.74505805969E-08  0.93827000000E+00  0.93827000000E+00 0. -1.
     999902    2    1    2    0    0 -0.17027184966E-01  0.14727225909E-01  0.63007810953E-02  0.10205523172E+01  0.10202845270E+01 0.  0.
     999903    2    3    3    0    0 -0.88505798326E-01  0.39124881388E-02  0.97307686905E-01  0.13291026793E+00  0.18648578757E-01 0.  0.
         14    1    1    2    0    0  0.17027184966E-01 -0.14727225909E-01 -0.63007810953E-02  0.23377682804E-01  0.00000000000E+00 0. -1.
     999901    1    3    3    0    0  0.71478613360E-01  0.10814737770E-01 -0.91006905810E-01  0.88764204927E+00  0.88000000000E+00 0. -1.
        -11    1    4    4    0    0 -0.48304631895E-01  0.10785306303E-01  0.48414771896E-01  0.69238078780E-01  0.51100000000E-03 0.  1.
         11    1    4    4    0    0 -0.40201166431E-01 -0.68728181640E-02  0.48892915009E-01  0.63672189150E-01  0.51100000000E-03 0. -1.
</event>
<event>
 8    1  0.1084146E+005  0.1043930E+01  0.7957747E-01            NaN
         13   -1    0    0    0    0  0.00000000000E+00  0.00000000000E+00  0.74505805969E-08  0.10566000000E+00  0.10566000000E+00 0.  1.
     999900   -1    0    0    0    0 -0.00000000000E+00 -0.00000000000E+00 -0.74505805969E-08  0.93827000000E+00  0.93827000000E+00 0.  1.
     999902    2    1    2    0    0  0.18354524694E-01 -0.11902154009E-01 -0.10027186668E-01  0.10198656214E+01  0.10195816747E+01 0.  0.
     999903    2    3    3    0    0 -0.42748461725E-01  0.11339581136E+00  0.34910656456E-01  0.12775992986E+00  0.20440272251E-01 0.  0.
         14    1    1    2    0    0 -0.18354524694E-01  0.11902154009E-01  0.10027186668E-01  0.24064378638E-01  0.00000000000E+00 0. -1.
     999901    1    3    3    0    0  0.61102986419E-01 -0.12529796536E+00 -0.44937843124E-01  0.89210569151E+00  0.88000000000E+00 0. -1.
        -11    1    4    4    0    0 -0.14509758050E-01  0.67114200765E-01  0.18609929699E-01  0.71143795425E-01  0.51100000000E-03 0.  1.
         11    1    4    4    0    0 -0.28238703675E-01  0.46281610590E-01  0.16300726757E-01  0.56616134431E-01  0.51100000000E-03 0. -1.
</event>
<event>
 8    1  0.1084146E+005  0.1043930E+01  0.7957747E-01            NaN
         13   -1    0    0    0    0  0.00000000000E+00  0.00000000000E+00  0.74505805969E-08  0.10566000000E+00  0.10566000000E+00 0.  1.
     999900   -1    0    0    0    0 -0.00000000000E+00 -0.00000000000E+00 -0.74505805969E-08  0.93827000000E+00  0.93827000000E+00 0. -1.
     999902    2    1    2    0    0  0.22504943352E-01 -0.47710059545E-02 -0.53432919168E-04  0.10209248304E+01  0.10206656022E+01 0.  0.
     999903    2    3    3    0    0 -0.19942303812E-01 -0.45409955877E-01  0.11963900091E+00  0.13088012829E+00  0.18877443390E-01 0.  0.
         14    1    1    2    0    0 -0.22504943352E-01  0.47710059545E-02  0.53432919168E-04  0.23005169597E-01  0.00000000000E+00 0. -1.
     999901    1    3    3    0    0  0.42447247165E-01  0.40638949922E-01 -0.11969243383E+00  0.89004470211E+00  0.88000000000E+00 0. -1.
        -11    1    4    4    0    0 -0.14055996514E-01 -0.14073959661E-01  0.32704706726E-01  0.38281932312E-01  0.51100000000E-03 0.  1.
         11    1    4    4    0    0 -0.58863072988E-02 -0.31335996216E-01  0.86934294182E-01  0.92598195978E-01  0.51100000000E-03 0. -1.
</event>
<event>
 8    1  0.1084146E+005  0.1043930E+01  0.7957747E-01            NaN
         13   -1    0    0    0    0  0.00000000000E+00  0.00000000000E+00  0.74505805969E-08  0.10566000000E+00  0.10566000000E+00 0. -1.
     999900   -1    0    0    0    0 -0.00000000000E+00 -0.00000000000E+00 -0.74505805969E-08  0.93827000000E+00  0.93827000000E+00 0.  1.
     999902    2    1    2    0    0 -0.18403759114E-01 -0.14545271742E-01  0.12222947303E-02  0.10204404857E+01  0.10201700973E+01 0.  0.
     999903    2    3    3    0    0  0.69118670730E-01  0.29041489060E-01  0.10332711889E+00  0.12915749101E+00  0.19605235390E-01 0.  0.
         14    1    1    2    0    0  0.18403759114E-01  0.14545271742E-01 -0.12222947303E-02  0.23489514341E-01  0.00000000000E+00 0.  1.
     999901    1    3    3    0    0 -0.87522429843E-01 -0.43586760802E-01 -0.10210482416E+00  0.89128299465E+00  0.88000000000E+00 0.  1.
        -11    1    4    4    0    0  0.15052113952E-01  0.89711418472E-02  0.39017121163E-01  0.42774342605E-01  0.51100000000E-03 0. -1.
         11    1    4    4    0    0  0.54066556777E-01  0.20070347213E-01  0.64309997726E-01  0.86383148400E-01  0.51100000000E-03 0.  1.
</event>
<event>
 8    1  0.1084146E+005  0.1043930E+01  0.7957747E-01            NaN
         13   -1    0    0    0    0  0.00000000000E+00  0.00000000000E+00  0.74505805969E-08  0.10566000000E+00  0.10566000000E+00 0.  1.
     999900   -1    0    0    0    0 -0.00000000000E+00 -0.00000000000E+00 -0.74505805969E-08  0.93827000000E+00  0.93827000000E+00 0.  1.
     999902    2    1    2    0    0  0.18973216234E-01 -0.96537270607E-02 -0.10792072172E-01  0.10200627379E+01  0.10197834785E+01 0.  0.
     999903    2    3    3    0    0 -0.79476974576E-01  0.48986884824E-01 -0.87112129923E-01  0.12935744841E+00  0.20700770691E-01 0.  0.
         14    1    1    2    0    0 -0.18973216234E-01  0.96537270607E-02  0.10792072172E-01  0.23867262143E-01  0.00000000000E+00 0. -1.
     999901    1    3    3    0    0  0.98450190810E-01 -0.58640611884E-01  0.76320057751E-01  0.89070528945E+00  0.88000000000E+00 0. -1.
        -11    1    4    4    0    0 -0.56770981226E-01  0.26674203266E-01 -0.48367591564E-01  0.79209484684E-01  0.51100000000E-03 0.  1.
         11    1    4    4    0    0 -0.22705993350E-01  0.22312681557E-01 -0.38744538359E-01  0.50147963726E-01  0.51100000000E-03 0. -1.
</event>
<event>
 8    1  0.1084146E+005  0.1043930E+01  0.7957747E-01            NaN
         13   -1    0    0    0    0  0.00000000000E+00  0.00000000000E+00  0.74505805969E-08  0.10566000000E+00  0.10566000000E+00 0.  1.
     999900   -1    0    0    0    0 -0.00000000000E+00 -0.00000000000E+00 -0.74505805969E-08  0.93827000000E+00  0.93827000000E+00 0. -1.
     999902    2    1    2    0    0  0.85126601762E-02 -0.14753892198E-01 -0.17265544455E-01  0.10196763045E+01  0.10193878184E+01 0.  0.
     999903    2    3    3    0    0 -0.84658158719E-03  0.10070936477E+00  0.75086452540E-01  0.12729283849E+00  0.20552336210E-01 0.  0.
         14    1    1    2    0    0 -0.85126601762E-02  0.14753892198E-01  0.17265544455E-01  0.24253695463E-01  0.00000000000E+00 0.  1.
     999901    1    3    3    0    0  0.93592417634E-02 -0.11546325697E+00 -0.92351996995E-01  0.89238346604E+00  0.88000000000E+00 0. -1.
        -11    1    4    4    0    0 -0.60579285565E-03  0.11542509253E-02  0.58811321485E-02  0.60455038277E-02  0.51100000000E-03 0. -1.
         11    1    4    4    0    0 -0.24078873154E-03  0.99555113847E-01  0.69205320391E-01  0.12124733467E+00  0.51100000000E-03 0.  1.
</event>
<event>
 8    1  0.1084146E+005  0.1043930E+01  0.7957747E-01            NaN
         13   -1    0    0    0    0  0.00000000000E+00  0.00000000000E+00  0.74505805969E-08  0.10566000000E+00  0.10566000000E+00 0.  1.
     999900   -1    0    0    0    0 -0.00000000000E+00 -0.00000000000E+00 -0.74505805969E-08  0.93827000000E+00  0.93827000000E+00 0.  1.
     999902    2    1    2    0    0 -0.14727236970E-01  0.87297751634E-02 -0.15608623618E-01  0.10207625743E+01  0.10204996342E+01 0.  0.
     999903    2    3    3    0    0 -0.65531314681E-01  0.10479457569E+00 -0.46487358328E-01  0.13354050711E+00  0.19893120871E-01 0.  0.
         14    1    1    2    0    0  0.14727236970E-01 -0.87297751634E-02  0.15608623618E-01  0.23167425719E-01  0.00000000000E+00 0.  1.
     999901    1    3    3    0    0  0.50804077711E-01 -0.96064800527E-01  0.30878734710E-01  0.88722206717E+00  0.88000000000E+00 0. -1.
        -11    1    4    4    0    0 -0.59329731404E-01  0.84585564496E-01 -0.33008542887E-01  0.10846455538E+00  0.51100000000E-03 0.  1.
         11    1    4    4    0    0 -0.62015832769E-02  0.20209011195E-01 -0.13478815441E-01  0.25075951732E-01  0.51100000000E-03 0. -1.
</event>
<event>
 8    1  0.1084146E+005  0.1043930E+01  0.7957747E-01            NaN
         13   -1    0    0    0    0  0.00000000000E+00  0.00000000000E+00  0.74505805969E-08  0.10566000000E+00  0.10566000000E+00 0. -1.
     999900   -1    0    0    0    0 -0.00000000000E+00 -0.00000000000E+00 -0.74505805969E-08  0.93827000000E+00  0.93827000000E+00 0.  1.
     999902    2    1    2    0    0 -0.72854300494E-02 -0.10505509017E-01 -0.19214647208E-01  0.10208508779E+01  0.10205899612E+01 0.  0.
     999903    2    3    3    0    0  0.10464601894E+00  0.61762085262E-01  0.38557945585E-01  0.12894901840E+00  0.19385296584E-01 0.  0.
         14    1    1    2    0    0  0.72854300494E-02  0.10505509017E-01  0.19214647208E-01  0.23079122125E-01  0.00000000000E+00 0. -1.
     999901    1    3    3    0    0 -0.11193144899E+00 -0.72267594280E-01 -0.57772592792E-01  0.89190185947E+00  0.88000000000E+00 0.  1.
        -11    1    4    4    0    0  0.81032743590E-01  0.39546888473E-01  0.33185320564E-01  0.96082196809E-01  0.51100000000E-03 0.  1.
         11    1    4    4    0    0  0.23613275347E-01  0.22215196789E-01  0.53726250203E-02  0.32866821592E-01  0.51100000000E-03 0. -1.
</event>
<event>
 8    1  0.1084146E+005  0.1043930E+01  0.7957747E-01            NaN
         13   -1    0    0    0    0  0.00000000000E+00  0.00000000000E+00  0.74505805969E-08  0.10566000000E+00  0.10566000000E+00 0.  1.
     999900   -1    0    0    0    0 -0.00000000000E+00 -0.00000000000E+00 -0.74505805969E-08  0.93827000000E+00  0.93827000000E+00 0.  1.
     999902    2    1    2    0    0 -0.20220369592E-01 -0.90506242566E-02  0.78795512332E-02  0.10204169297E+01  0.10201459925E+01 0.  0.
     999903    2    3    3    0    0  0.51031839848E-03 -0.10860353267E+00 -0.70211216482E-01  0.13112580136E+00  0.21665020854E-01 0.  0.
         14    1    1    2    0    0  0.20220369592E-01  0.90506242566E-02 -0.78795512332E-02  0.23513070270E-01  0.00000000000E+00 0. -1.
     999901    1    3    3    0    0 -0.20730687991E-01  0.99552908414E-01  0.78090767715E-01  0.88929112837E+00  0.88000000000E+00 0. -1.
        -11    1    4    4    0    0 -0.33446732236E-03 -0.33867029830E-01 -0.34289677659E-01  0.48198866095E-01  0.51100000000E-03 0.  1.
         11    1    4    4    0    0  0.84478572084E-03 -0.74736502840E-01 -0.35921538823E-01  0.82926935263E-01  0.51100000000E-03 0. -1.
</event>
<event>
 8    1  0.1084146E+005  0.1043930E+01  0.7957747E-01            NaN
         13   -1    0    0    0    0  0.00000000000E+00  0.00000000000E+00  0.74505805969E-08  0.10566000000E+00  0.10566000000E+00 0. -1.
     999900   -1    0    0    0    0 -0.00000000000E+00 -0.00000000000E+00 -0.74505805969E-08  0.93827000000E+00  0.93827000000E+00 0.  1.
     999902    2    1    2    0    0  0.84783328603E-02  0.22083686884E-01 -0.42185384655E-02  0.10199015289E+01  0.10196184391E+01 0.  0.
     999903    2    3    3    0    0 -0.10082818515E+00  0.72326505360E-01 -0.35645764378E-01  0.13116088837E+00  0.23132484094E-01 0.  0.
         14    1    1    2    0    0 -0.84783328603E-02 -0.22083686884E-01  0.42185384655E-02  0.24028471055E-01  0.00000000000E+00 0. -1.
     999901    1    3    3    0    0  0.10930651801E+00 -0.50242818477E-01  0.31427225913E-01  0.88874064058E+00  0.88000000000E+00 0. -1.
        -11    1    4    4    0    0 -0.36490688204E-01  0.16588854150E-01 -0.19255264257E-01  0.44472314199E-01  0.51100000000E-03 0.  1.
         11    1    4    4    0    0 -0.64337496946E-01  0.55737651211E-01 -0.16390500121E-01  0.86688574166E-01  0.51100000000E-03 0. -1.
</event>
<event>
 8    1  0.1084146E+005  0.1043930E+01  0.7957747E-01            NaN
         13   -1    0    0    0    0  0.00000000000E+00  0.00000000000E+00  0.74505805969E-08  0.10566000000E+00  0.10566000000E+00 0. -1.
     999900   -1    0    0    0    0 -0.00000000000E+00 -0.00000000000E+00 -0.74505805969E-08  0.93827000000E+00  0.93827000000E+00 0. -1.
     999902    2    1    2    0    0 -0.63092988902E-03 -0.21020136785E-01 -0.29653113954E-03  0.10228983060E+01  0.10226820680E+01 0.  0.
     999903    2    3    3    0    0  0.48387591680E-02 -0.29654204684E-01 -0.12792199832E+00  0.13363303368E+00  0.24309763310E-01 0.  0.
         14    1    1    2    0    0  0.63092988902E-03  0.21020136785E-01  0.29653113954E-03  0.21031694029E-01  0.00000000000E+00 0.  1.
     999901    1    3    3    0    0 -0.54696890570E-02  0.86340678991E-02  0.12762546718E+00  0.88926527229E+00  0.88000000000E+00 0.  1.
        -11    1    4    4    0    0  0.71023927162E-02 -0.50472782148E-02 -0.71554205315E-01  0.72084564359E-01  0.51100000000E-03 0.  1.
         11    1    4    4    0    0 -0.22636335482E-02 -0.24606926470E-01 -0.56367793002E-01  0.61548469323E-01  0.51100000000E-03 0. -1.
</event>
<event>
 8    1  0.1084146E+005  0.1043930E+01  0.7957747E-01            NaN
         13   -1    0    0    0    0  0.00000000000E+00  0.00000000000E+00  0.74505805969E-08  0.10566000000E+00  0.10566000000E+00 0.  1.
     999900   -1    0    0    0    0 -0.00000000000E+00 -0.00000000000E+00 -0.74505805969E-08  0.93827000000E+00  0.93827000000E+00 0. -1.
     999902    2    1    2    0    0  0.22583351701E-01  0.79849546174E-02  0.13409323385E-02  0.10199390564E+01  0.10196568606E+01 0.  0.
     999903    2    3    3    0    0 -0.41905771468E-01 -0.11285140480E+00  0.40133682141E-01  0.12849912563E+00  0.20243013554E-01 0.  0.
         14    1    1    2    0    0 -0.22583351701E-01 -0.79849546174E-02 -0.13409323385E-02  0.23990943580E-01  0.00000000000E+00 0. -1.
     999901    1    3    3    0    0  0.64489123170E-01  0.12083635942E+00 -0.38792749803E-01  0.89143993079E+00  0.88000000000E+00 0. -1.
        -11    1    4    4    0    0 -0.72400923448E-02 -0.36875920280E-01  0.20088068255E-01  0.42615068237E-01  0.51100000000E-03 0.  1.
         11    1    4    4    0    0 -0.34665679124E-01 -0.75975484524E-01  0.20045613886E-01  0.85884057396E-01  0.51100000000E-03 0. -1.
</event>
<event>
 7    1  0.1084146E+005  0.1043930E+01  0.7957747E-01            NaN
         13   -1    0    0    0    0  0.00000000000E+00  0.00000000000E+00  0.74505805969E-08  0.10566000000E+00  0.10566000000E+00 0. -1.
     999900   -1    0    0    0    0 -0.00000000000E+00 -0.00000000000E+00 -0.74505805969E-08  0.93827000000E+00  0.93827000000E+00 0. -1.
     999903    2    1    2    0    0 -0.65761818358E-01  0.85458217323E-01 -0.26266195477E-01  0.11296960198E+00  0.21083033111E-01 0.  0.
         14    1    1    2    0    0  0.43611756520E-01 -0.23327796169E-02 -0.13960227492E-01  0.45851010012E-01  0.00000000000E+00 0.  1.
     999901    1    1    2    0    0  0.22150061838E-01 -0.83125437706E-01  0.40226422969E-01  0.88510938801E+00  0.88000000000E+00 0.  1.
        -11    1    3    3    0    0 -0.20367198511E-01  0.37925253929E-01 -0.18226800273E-01  0.46750668765E-01  0.51100000000E-03 0. -1.
         11    1    3    3    0    0 -0.45394619846E-01  0.47532963395E-01 -0.80393952041E-02  0.66218933216E-01  0.51100000000E-03 0.  1.
</event>
<event>
 8    1  0.1084146E+005  0.1043930E+01  0.7957747E-01            NaN
         13   -1    0    0    0    0  0.00000000000E+00  0.00000000000E+00  0.74505805969E-08  0.10566000000E+00  0.10566000000E+00 0.  1.
     999900   -1    0    0    0    0 -0.00000000000E+00 -0.00000000000E+00 -0.74505805969E-08  0.93827000000E+00  0.93827000000E+00 0.  1.
     999902    2    1    2    0    0  0.80783108100E-02 -0.12169572307E-01 -0.18704311520E-01  0.10201979781E+01  0.10199219115E+01 0.  0.
     999903    2    3    3    0    0  0.12538748945E+00 -0.25758788440E-01  0.21738982066E-01  0.13138879147E+00  0.20121965362E-01 0.  0.
         14    1    1    2    0    0 -0.80783108100E-02  0.12169572307E-01  0.18704311520E-01  0.23732021935E-01  0.00000000000E+00 0.  1.
     999901    1    3    3    0    0 -0.11730917864E+00  0.13589216133E-01 -0.40443293586E-01  0.88880918660E+00  0.88000000000E+00 0.  1.
        -11    1    4    4    0    0  0.49193050061E-01 -0.46218532282E-03  0.10698319592E-01  0.50347640984E-01  0.51100000000E-03 0. -1.
         11    1    4    4    0    0  0.76194439385E-01 -0.25296603117E-01  0.11040662474E-01  0.81041150481E-01  0.51100000000E-03 0.  1.
</event>
<event>
 8    1  0.1084146E+005  0.1043930E+01  0.7957747E-01            NaN
         13   -1    0    0    0    0  0.00000000000E+00  0.00000000000E+00  0.74505805969E-08  0.10566000000E+00  0.10566000000E+00 0. -1.
     999900   -1    0    0    0    0 -0.00000000000E+00 -0.00000000000E+00 -0.74505805969E-08  0.93827000000E+00  0.93827000000E+00 0.  1.
     999902    2    1    2    0    0  0.11030582910E-01  0.20581114175E-01 -0.54657535348E-02  0.10199481218E+01  0.10196661418E+01 0.  0.
     999903    2    3    3    0    0  0.63056696243E-01 -0.10886705356E+00 -0.19775148920E-01  0.12884301948E+00  0.19526516885E-01 0.  0.
         14    1    1    2    0    0 -0.11030582910E-01 -0.20581114175E-01  0.54657535348E-02  0.23981878194E-01  0.00000000000E+00 0.  1.
     999901    1    3    3    0    0 -0.52026113333E-01  0.12944816773E+00  0.14309395385E-01  0.89110510233E+00  0.88000000000E+00 0. -1.
        -11    1    4    4    0    0  0.45980762776E-01 -0.81200806065E-01 -0.59385549939E-02  0.93505769916E-01  0.51100000000E-03 0. -1.
         11    1    4    4    0    0  0.17075933467E-01 -0.27666247494E-01 -0.13836593926E-01  0.35337249563E-01  0.51100000000E-03 0.  1.
</event>
<event>
 8    1  0.1084146E+005  0.1043930E+01  0.7957747E-01            NaN
         13   -1    0    0    0    0  0.00000000000E+00  0.00000000000E+00  0.74505805969E-08  0.10566000000E+00  0.10566000000E+00 0.  1.
     999900   -1    0    0    0    0 -0.00000000000E+00 -0.00000000000E+00 -0.74505805969E-08  0.93827000000E+00  0.93827000000E+00 0.  1.
     999902    2    1    2    0    0 -0.35697072652E-02  0.18772654441E-01  0.84335836690E-02  0.10230426666E+01  0.10228294173E+01 0.  0.
     999903    2    3    3    0    0 -0.10232024663E+00 -0.80501750229E-01 -0.80547333768E-02  0.13181938306E+00  0.19013320650E-01 0.  0.
         14    1    1    2    0    0  0.35697072652E-02 -0.18772654441E-01 -0.84335836690E-02  0.20887333440E-01  0.00000000000E+00 0. -1.
     999901    1    3    3    0    0  0.98750539360E-01  0.99274404670E-01  0.16488317046E-01  0.89122328350E+00  0.88000000000E+00 0.  1.
        -11    1    4    4    0    0 -0.78054063366E-01 -0.50921679630E-01 -0.32317725491E-02  0.93253202299E-01  0.51100000000E-03 0.  1.
         11    1    4    4    0    0 -0.24266183260E-01 -0.29580070599E-01 -0.48229608277E-02  0.38566180765E-01  0.51100000000E-03 0. -1.
</event>
<event>
 8    1  0.1084146E+005  0.1043930E+01  0.7957747E-01            NaN
         13   -1    0    0    0    0  0.00000000000E+00  0.00000000000E+00  0.74505805969E-08  0.10566000000E+00  0.10566000000E+00 0. -1.
     999900   -1    0    0    0    0 -0.00000000000E+00 -0.00000000000E+00 -0.74505805969E-08  0.93827000000E+00  0.93827000000E+00 0.  1.
     999902    2    1    2    0    0  0.18323068148E-01  0.12568960660E-01  0.72839671492E-02  0.10205468912E+01  0.10202789753E+01 0.  0.
     999903    2    3    3    0    0 -0.10171860035E+00 -0.34869061228E-01 -0.66306479629E-01  0.12809189407E+00  0.21176850517E-01 0.  0.
         14    1    1    2    0    0 -0.18323068148E-01 -0.12568960660E-01 -0.72839671492E-02  0.23383108772E-01  0.00000000000E+00 0. -1.
     999901    1    3    3    0    0  0.12004166850E+00  0.47438021888E-01  0.73590446778E-01  0.89245499716E+00  0.88000000000E+00 0. -1.
        -11    1    4    4    0    0 -0.51708008605E-01 -0.76067017059E-02 -0.36967401396E-01  0.64018981182E-01  0.51100000000E-03 0.  1.
         11    1    4    4    0    0 -0.50010591743E-01 -0.27262359522E-01 -0.29339078233E-01  0.64072912887E-01  0.51100000000E-03 0. -1.
</event>
<event>
 8    1  0.1084146E+005  0.1043930E+01  0.7957747E-01            NaN
         13   -1    0    0    0    0  0.00000000000E+00  0.00000000000E+00  0.74505805969E-08  0.10566000000E+00  0.10566000000E+00 0.  1.
     999900   -1    0    0    0    0 -0.00000000000E+00 -0.00000000000E+00 -0.74505805969E-08  0.93827000000E+00  0.93827000000E+00 0. -1.
     999902    2    1    2    0    0 -0.16255703145E-01 -0.23515510293E-02 -0.17103290304E-01  0.10202171297E+01  0.10199415138E+01 0.  0.
     999903    2    3    3    0    0  0.11947134300E-01  0.22784124686E-01 -0.12854185715E+00  0.13238507556E+00  0.18464799920E-01 0.  0.
         14    1    1    2    0    0  0.16255703145E-01  0.23515510293E-02  0.17103290304E-01  0.23712870265E-01  0.00000000000E+00 0.  1.
     999901    1    3    3    0    0 -0.28202837445E-01 -0.25135675715E-01  0.11143856685E+00  0.88783205417E+00  0.88000000000E+00 0. -1.
        -11    1    4    4    0    0  0.37700786162E-02  0.23029147543E-01 -0.10012552140E+00  0.10281019544E+00  0.51100000000E-03 0. -1.
         11    1    4    4    0    0  0.81770556838E-02 -0.24502285692E-03 -0.28416335748E-01  0.29574880122E-01  0.51100000000E-03 0.  1.
</event>
<event>
 8    1  0.1084146E+005  0.1043930E+01  0.7957747E-01            NaN
         13   -1    0    0    0    0  0.00000000000E+00  0.00000000000E+00  0.74505805969E-08  0.10566000000E+00  0.10566000000E+00 0. -1.
     999900   -1    0    0    0    0 -0.00000000000E+00 -0.00000000000E+00 -0.74505805969E-08  0.93827000000E+00  0.93827000000E+00 0.  1.
     999902    2    1    2    0    0  0.16809404074E-01 -0.11745967384E-01  0.11945404552E-01  0.10201978171E+01  0.10199217468E+01 0.  0.
     999903    2    3    3    0    0 -0.86282658232E-01  0.86748804343E-01 -0.30367774745E-01  0.12771835039E+00  0.20487145144E-01 0.  0.
         14    1    1    2    0    0 -0.16809404074E-01  0.11745967384E-01 -0.11945404552E-01  0.23732182896E-01  0.00000000000E+00 0. -1.
     999901    1    3    3    0    0  0.10309206231E+00 -0.98494771728E-01  0.42313179297E-01  0.89247946672E+00  0.88000000000E+00 0.  1.
        -11    1    4    4    0    0 -0.42048749371E-01  0.35408409414E-01 -0.22847917452E-01  0.59532690463E-01  0.51100000000E-03 0.  1.
         11    1    4    4    0    0 -0.44233908861E-01  0.51340394929E-01 -0.75198572937E-02  0.68185659924E-01  0.51100000000E-03 0. -1.
</event>
<event>
 8    1  0.1084146E+005  0.1043930E+01  0.7957747E-01            NaN
         13   -1    0    0    0    0  0.00000000000E+00  0.00000000000E+00  0.74505805969E-08  0.10566000000E+00  0.10566000000E+00 0.  1.
     999900   -1    0    0    0    0 -0.00000000000E+00 -0.00000000000E+00 -0.74505805969E-08  0.93827000000E+00  0.93827000000E+00 0.  1.
     999902    2    1    2    0    0 -0.59952749558E-02  0.16272468919E-01  0.15807222855E-01  0.10204650291E+01  0.10201952120E+01 0.  0.
     999903    2    3    3    0    0 -0.58172284585E-01 -0.47006670556E-03 -0.11374695250E+00  0.12929330758E+00  0.19853325290E-01 0.  0.
         14    1    1    2    0    0  0.59952749558E-02 -0.16272468919E-01 -0.15807222855E-01  0.23464970933E-01  0.00000000000E+00 0.  1.
     999901    1    3    3    0    0  0.52177009629E-01  0.16742535624E-01  0.12955417535E+00  0.89117172149E+00  0.88000000000E+00 0. -1.
        -11    1    4    4    0    0 -0.26051226592E-01 -0.74535246685E-02 -0.37567056476E-01  0.46322416714E-01  0.51100000000E-03 0.  1.
         11    1    4    4    0    0 -0.32121057993E-01  0.69834579629E-02 -0.76179896021E-01  0.82970890863E-01  0.51100000000E-03 0. -1.
</event>
<event>
 8    1  0.1084146E+005  0.1043930E+01  0.7957747E-01            NaN
         13   -1    0    0    0    0  0.00000000000E+00  0.00000000000E+00  0.74505805969E-08  0.10566000000E+00  0.10566000000E+00 0.  1.
     999900   -1    0    0    0    0 -0.00000000000E+00 -0.00000000000E+00 -0.74505805969E-08  0.93827000000E+00  0.93827000000E+00 0. -1.
     999902    2    1    2    0    0  0.71135705573E-02 -0.21605891593E-01 -0.64253442330E-02  0.10202931118E+01  0.10200192799E+01 0.  0.
     999903    2    3    3    0    0  0.69525408221E-01  0.55420044964E-01 -0.93334270172E-01  0.13047212201E+00  0.20162461653E-01 0.  0.
         14    1    1    2    0    0 -0.71135705573E-02  0.21605891593E-01  0.64253442330E-02  0.23636888250E-01  0.00000000000E+00 0.  1.
     999901    1    3    3    0    0 -0.62411837664E-01 -0.77025936558E-01  0.86908925939E-01  0.88982098975E+00  0.88000000000E+00 0.  1.
        -11    1    4    4    0    0  0.40370489796E-01  0.22415056672E-01 -0.57135016793E-01  0.73463477163E-01  0.51100000000E-03 0. -1.
         11    1    4    4    0    0  0.29154918425E-01  0.33004988292E-01 -0.36199253379E-01  0.57008644843E-01  0.51100000000E-03 0.  1.
</event>
<event>
 8    1  0.1084146E+005  0.1043930E+01  0.7957747E-01            NaN
         13   -1    0    0    0    0  0.00000000000E+00  0.00000000000E+00  0.74505805969E-08  0.10566000000E+00  0.10566000000E+00 0. -1.
     999900   -1    0    0    0    0 -0.00000000000E+00 -0.00000000000E+00 -0.74505805969E-08  0.93827000000E+00  0.93827000000E+00 0. -1.
     999902    2    1    2    0    0 -0.22188871321E-01 -0.71477842667E-02  0.54292945762E-02  0.10199943765E+01  0.10197134961E+01 0.  0.
     999903    2    3    3    0    0  0.39289918996E-01  0.95354146172E-01  0.75891152034E-01  0.12912336413E+00  0.16651284682E-01 0.  0.
         14    1    1    2    0    0  0.22188871321E-01  0.71477842667E-02 -0.54292945762E-02  0.23935623452E-01  0.00000000000E+00 0. -1.
     999901    1    3    3    0    0 -0.61478790317E-01 -0.10250193044E+00 -0.70461857457E-01  0.89087101241E+00  0.88000000000E+00 0. -1.
        -11    1    4    4    0    0  0.51219108724E-02  0.15465147005E-01  0.20037686156E-01  0.25829725712E-01  0.51100000000E-03 0. -1.
         11    1    4    4    0    0  0.34168008124E-01  0.79888999167E-01  0.55853465877E-01  0.10329363842E+00  0.51100000000E-03 0.  1.
</event>
<event>
 8    1  0.1084146E+005  0.1043930E+01  0.7957747E-01            NaN
         13   -1    0    0    0    0  0.00000000000E+00  0.00000000000E+00  0.74505805969E-08  0.10566000000E+00  0.10566000000E+00 0.  1.
     999900   -1    0    0    0    0 -0.00000000000E+00 -0.00000000000E+00 -0.74505805969E-08  0.93827000000E+00  0.93827000000E+00 0.  1.
     999902    2    1    2    0    0 -0.10973717927E-01 -0.18465361955E-01 -0.12768027060E-01  0.10189417109E+01  0.10186352613E+01 0.  0.
     999903    2    3    3    0    0  0.43563227951E-01 -0.73545648728E-01 -0.97849551467E-01  0.13144693218E+00  0.19925962477E-01 0.  0.
         14    1    1    2    0    0  0.10973717927E-01  0.18465361955E-01  0.12768027060E-01  0.24988289103E-01  0.00000000000E+00 0. -1.
     999901    1    3    3    0    0 -0.54536945879E-01  0.55080286773E-01  0.85081524407E-01  0.88749477872E+00  0.88000000000E+00 0.  1.
        -11    1    4    4    0    0  0.34297497025E-02 -0.15537777065E-01 -0.10074310485E-01  0.18839812947E-01  0.51100000000E-03 0. -1.
         11    1    4    4    0    0  0.40133478249E-01 -0.58007871664E-01 -0.87775240982E-01  0.11260711923E+00  0.51100000000E-03 0.  1.
</event>
<event>
 7    1  0.1266708E+005  0.1043930E+01  0.7957747E-01            NaN
         13   -1    0    0    0    0  0.00000000000E+00  0.00000000000E+00  0.74505805969E-08  0.10566000000E+00  0.10566000000E+00 0.  1.
     999900   -1    0    0    0    0 -0.00000000000E+00 -0.00000000000E+00 -0.74505805969E-08  0.93827000000E+00  0.93827000000E+00 0.  1.
     999903    2    1    2    0    0  0.75415204850E-01 -0.37933286000E-01  0.79030192004E-01  0.11735974123E+00  0.20028736964E-01 0.  0.
         14    1    1    2    0    0  0.11203358073E-01 -0.91648958269E-02 -0.37380684800E-01  0.40085235982E-01  0.00000000000E+00 0. -1.
     999901    1    1    2    0    0 -0.86618562923E-01  0.47098181827E-01 -0.41649507205E-01  0.88648502279E+00  0.88000000000E+00 0.  1.
        -11    1    3    3    0    0  0.32409001026E-01 -0.68101481311E-02  0.36907635483E-01  0.49589879441E-01  0.51100000000E-03 0.  1.
         11    1    3    3    0    0  0.43006203825E-01 -0.31123137869E-01  0.42122556521E-01  0.67769861790E-01  0.51100000000E-03 0. -1.
</event>
<event>
 8    1  0.1084146E+005  0.1043930E+01  0.7957747E-01            NaN
         13   -1    0    0    0    0  0.00000000000E+00  0.00000000000E+00  0.74505805969E-08  0.10566000000E+00  0.10566000000E+00 0.  1.
     999900   -1    0    0    0    0 -0.00000000000E+00 -0.00000000000E+00 -0.74505805969E-08  0.93827000000E+00  0.93827000000E+00 0.  1.
     999902    2    1    2    0    0 -0.83113765413E-02 -0.28190435472E-02 -0.21703409344E-01  0.10205192340E+01  0.10202506766E+01 0.  0.
     999903    2    3    3    0    0 -0.10863179621E+00 -0.71927376160E-01  0.11474005781E-02  0.13183351468E+00  0.20108318614E-01 0.  0.
         14    1    1    2    0    0  0.83113765413E-02  0.28190435472E-02  0.21703409344E-01  0.23410765979E-01  0.00000000000E+00 0.  1.
     999901    1    3    3    0    0  0.10032041967E+00  0.69108332613E-01 -0.22850809922E-01  0.88868571934E+00  0.88000000000E+00 0.  1.
        -11    1    4    4    0    0 -0.58130944815E-01 -0.49787608943E-01 -0.23937584734E-02  0.76576784667E-01  0.51100000000E-03 0. -1.
         11    1    4    4    0    0 -0.50500851393E-01 -0.22139767217E-01  0.35411590515E-02  0.55256730018E-01  0.51100000000E-03 0.  1.
</event>
<event>
 8    1  0.1084146E+005  0.1043930E+01  0.7957747E-01            NaN
         13   -1    0    0    0    0  0.00000000000E+00  0.00000000000E+00  0.74505805969E-08  0.10566000000E+00  0.10566000000E+00 0. -1.
     999900   -1    0    0    0    0 -0.00000000000E+00 -0.00000000000E+00 -0.74505805969E-08  0.93827000000E+00  0.93827000000E+00 0. -1.
     999902    2    1    2    0    0  0.23434568263E-01 -0.14474143784E-02 -0.26231703196E-02  0.10203046953E+01  0.10200311350E+01 0.  0.
     999903    2    3    3    0    0 -0.42270947693E-02 -0.10230204430E+00 -0.79059781695E-01  0.13082204821E+00  0.19503400150E-01 0.  0.
         14    1    1    2    0    0 -0.23434568263E-01  0.14474143784E-02  0.26231703196E-02  0.23625304667E-01  0.00000000000E+00 0. -1.
     999901    1    3    3    0    0  0.27661663033E-01  0.10085462992E+00  0.76436611375E-01  0.88948264713E+00  0.88000000000E+00 0. -1.
        -11    1    4    4    0    0 -0.53664399800E-02 -0.59532923705E-01 -0.34375881776E-01  0.68956000840E-01  0.51100000000E-03 0. -1.
         11    1    4    4    0    0  0.11393452107E-02 -0.42769120596E-01 -0.44683899918E-01  0.61866047368E-01  0.51100000000E-03 0.  1.
</event>
<event>
 8    1  0.1084146E+005  0.1043930E+01  0.7957747E-01            NaN
         13   -1    0    0    0    0  0.00000000000E+00  0.00000000000E+00  0.74505805969E-08  0.10566000000E+00  0.10566000000E+00 0. -1.
     999900   -1    0    0    0    0 -0.00000000000E+00 -0.00000000000E+00 -0.74505805969E-08  0.93827000000E+00  0.93827000000E+00 0. -1.
     999902    2    1    2    0    0  0.11023393312E-01 -0.16433319990E-02  0.20796332736E-01  0.10203354414E+01  0.10200626009E+01 0.  0.
     999903    2    3    3    0    0  0.10709867348E+00 -0.40503246061E-01  0.65084847171E-01  0.13314773585E+00  0.19535696223E-01 0.  0.
         14    1    1    2    0    0 -0.11023393312E-01  0.16433319990E-02 -0.20796332736E-01  0.23594558598E-01  0.00000000000E+00 0.  1.
     999901    1    3    3    0    0 -0.96075280168E-01  0.38859914062E-01 -0.44288514435E-01  0.88718770556E+00  0.88000000000E+00 0. -1.
        -11    1    4    4    0    0  0.45899405142E-01 -0.22627745099E-01  0.38626545910E-01  0.64117403336E-01  0.51100000000E-03 0.  1.
         11    1    4    4    0    0  0.61199268338E-01 -0.17875500962E-01  0.26458301261E-01  0.69030332509E-01  0.51100000000E-03 0. -1.
</event>
<event>
 8    1  0.1084146E+005  0.1043930E+01  0.7957747E-01            NaN
         13   -1    0    0    0    0  0.00000000000E+00  0.00000000000E+00  0.74505805969E-08  0.10566000000E+00  0.10566000000E+00 0. -1.
     999900   -1    0    0    0    0 -0.00000000000E+00 -0.00000000000E+00 -0.74505805969E-08  0.93827000000E+00  0.93827000000E+00 0. -1.
     999902    2    1    2    0    0 -0.18723837564E-01  0.12225315707E-01  0.69975903189E-02  0.10204991078E+01  0.10202300831E+01 0.  0.
     999903    2    3    3    0    0  0.12677105735E+00  0.44761926066E-02  0.27965441735E-02  0.12850893853E+00  0.20390913180E-01 0.  0.
         14    1    1    2    0    0  0.18723837564E-01 -0.12225315707E-01 -0.69975903189E-02  0.23430892163E-01  0.00000000000E+00 0.  1.
     999901    1    3    3    0    0 -0.14549489491E+00  0.77491231002E-02  0.42010461455E-02  0.89199016931E+00  0.88000000000E+00 0. -1.
        -11    1    4    4    0    0  0.30381424974E-02 -0.30919421589E-02  0.12262550790E-02  0.45337885557E-02  0.51100000000E-03 0.  1.
         11    1    4    4    0    0  0.12373291485E+00  0.75681347656E-02  0.15702890945E-02  0.12397514997E+00  0.51100000000E-03 0. -1.
</event>
<event>
 8    1  0.1084146E+005  0.1043930E+01  0.7957747E-01            NaN
         13   -1    0    0    0    0  0.00000000000E+00  0.00000000000E+00  0.74505805969E-08  0.10566000000E+00  0.10566000000E+00 0. -1.
     999900   -1    0    0    0    0 -0.00000000000E+00 -0.00000000000E+00 -0.74505805969E-08  0.93827000000E+00  0.93827000000E+00 0. -1.
     999902    2    1    2    0    0 -0.16817914001E-01 -0.14402801013E-01 -0.10586081938E-01  0.10193872202E+01  0.10190917313E+01 0.  0.
     999903    2    3    3    0    0 -0.88460833424E-01 -0.94557959928E-01  0.18874676569E-01  0.13235537542E+00  0.19878761310E-01 0.  0.
         14    1    1    2    0    0  0.16817914001E-01  0.14402801013E-01  0.10586081938E-01  0.24542779776E-01  0.00000000000E+00 0.  1.
     999901    1    3    3    0    0  0.71642919423E-01  0.80155158915E-01 -0.29460758507E-01  0.88703184480E+00  0.88000000000E+00 0.  1.
        -11    1    4    4    0    0 -0.63240610859E-01 -0.78832204686E-01  0.17723218317E-01  0.10260733378E+00  0.51100000000E-03 0. -1.
         11    1    4    4    0    0 -0.25220222565E-01 -0.15725755242E-01  0.11514582521E-02  0.29748041638E-01  0.51100000000E-03 0.  1.
</event>
<event>
 8    1  0.1084146E+005  0.1043930E+01  0.7957747E-01            NaN
         13   -1    0    0    0    0  0.00000000000E+00  0.00000000000E+00  0.74505805969E-08  0.10566000000E+00  0.10566000000E+00 0. -1.
     999900   -1    0    0    0    0 -0.00000000000E+00 -0.00000000000E+00 -0.74505805969E-08  0.93827000000E+00  0.93827000000E+00 0. -1.
     999902    2    1    2    0    0  0.44636898631E-02 -0.51848128300E-02 -0.22619054891E-01  0.10202989091E+01  0.10200252132E+01 0.  0.
     999903    2    3    3    0    0  0.11952419398E+00  0.39945044354E-01  0.26414524315E-01  0.13031019263E+00  0.20034462675E-01 0.  0.
         14    1    1    2    0    0 -0.44636898631E-02  0.51848128300E-02  0.22619054891E-01  0.23631090865E-01  0.00000000000E+00 0. -1.
     999901    1    3    3    0    0 -0.11506050411E+00 -0.45129857184E-01 -0.49033579206E-01  0.88998871650E+00  0.88000000000E+00 0. -1.
        -11    1    4    4    0    0  0.24018689134E-01  0.16801304460E-01  0.69833251654E-02  0.30136509596E-01  0.51100000000E-03 0. -1.
         11    1    4    4    0    0  0.95505504842E-01  0.23143739895E-01  0.19431199150E-01  0.10017368303E+00  0.51100000000E-03 0.  1.
</event>
<event>
 8    1  0.1084146E+005  0.1043930E+01  0.7957747E-01            NaN
         13   -1    0    0    0    0  0.00000000000E+00  0.00000000000E+00  0.74505805969E-08  0.10566000000E+00  0.10566000000E+00 0.  1.
     999900   -1    0    0    0    0 -0.00000000000E+00 -0.00000000000E+00 -0.74505805969E-08  0.93827000000E+00  0.93827000000E+00 0.  1.
     999902    2    1    2    0    0 -0.13780963437E-02  0.20692529111E-01  0.13611036089E-01  0.10191239480E+01  0.10188220067E+01 0.  0.
     999903    2    3    3    0    0  0.53820826088E-01  0.11784889901E+00  0.15976781563E-01  0.13205468468E+00  0.19953392598E-01 0.  0.
         14    1    1    2    0    0  0.13780963437E-02 -0.20692529111E-01 -0.13611036089E-01  0.24806051963E-01  0.00000000000E+00 0. -1.
     999901    1    3    3    0    0 -0.55198922431E-01 -0.97156369902E-01 -0.23657454739E-02  0.88706926336E+00  0.88000000000E+00 0.  1.
        -11    1    4    4    0    0  0.16739512957E-01  0.37824194182E-01 -0.41927745573E-02  0.41577896039E-01  0.51100000000E-03 0.  1.
         11    1    4    4    0    0  0.37081313130E-01  0.80024704831E-01  0.20169556120E-01  0.90476788636E-01  0.51100000000E-03 0. -1.
</event>
<event>
 8    1  0.1123470E+005  0.1043930E+01  0.7957747E-01            NaN
         13   -1    0    0    0    0  0.00000000000E+00  0.00000000000E+00  0.74505805969E-08  0.10566000000E+00  0.10566000000E+00 0. -1.
     999900   -1    0    0    0    0 -0.00000000000E+00 -0.00000000000E+00 -0.74505805969E-08  0.93827000000E+00  0.93827000000E+00 0.  1.
     999902    2    1    2    0    0 -0.19428257130E-01  0.28091225645E-02 -0.13298189555E-01  0.10202194498E+01  0.10199438885E+01 0.  0.
     999903    2    3    3    0    0 -0.65941462081E-01 -0.21588746615E-02  0.11066816036E+00  0.13030045623E+00  0.19437850057E-01 0.  0.
         14    1    1    2    0    0  0.19428257130E-01 -0.28091225645E-02  0.13298189555E-01  0.23710550186E-01  0.00000000000E+00 0. -1.
     999901    1    3    3    0    0  0.46513204950E-01  0.49679972260E-02 -0.12396634992E+00  0.88991899358E+00  0.88000000000E+00 0.  1.
        -11    1    4    4    0    0 -0.56724245810E-01 -0.42119116211E-03  0.78927001093E-01  0.97198508668E-01  0.51100000000E-03 0.  1.
         11    1    4    4    0    0 -0.92172162706E-02 -0.17376834994E-02  0.31741159267E-01  0.33101947561E-01  0.51100000000E-03 0. -1.
</event>
<event>
 8    1  0.1084146E+005  0.1043930E+01  0.7957747E-01            NaN
         13   -1    0    0    0    0  0.00000000000E+00  0.00000000000E+00  0.74505805969E-08  0.10566000000E+00  0.10566000000E+00 0. -1.
     999900   -1    0    0    0    0 -0.00000000000E+00 -0.00000000000E+00 -0.74505805969E-08  0.93827000000E+00  0.93827000000E+00 0.  1.
     999902    2    1    2    0    0 -0.23248145604E-01 -0.55335705741E-02  0.40954731273E-02  0.10196839781E+01  0.10193956767E+01 0.  0.
     999903    2    3    3    0    0 -0.57838558230E-01 -0.37721159256E-01  0.11065250833E+00  0.13199769385E+00  0.20278779763E-01 0.  0.
         14    1    1    2    0    0  0.23248145604E-01  0.55335705741E-02 -0.40954731273E-02  0.24246021889E-01  0.00000000000E+00 0.  1.
     999901    1    3    3    0    0  0.34590412626E-01  0.32187588682E-01 -0.10655703520E+00  0.88768628426E+00  0.88000000000E+00 0.  1.
        -11    1    4    4    0    0 -0.28225618454E-01 -0.23126644067E-01  0.40830746957E-01  0.54762562221E-01  0.51100000000E-03 0. -1.
         11    1    4    4    0    0 -0.29612939776E-01 -0.14594515189E-01  0.69821761373E-01  0.77235131631E-01  0.51100000000E-03 0.  1.
</event>
<event>
 8    1  0.1084146E+005  0.1043930E+01  0.7957747E-01            NaN
         13   -1    0    0    0    0  0.00000000000E+00  0.00000000000E+00  0.74505805969E-08  0.10566000000E+00  0.10566000000E+00 0. -1.
     999900   -1    0    0    0    0 -0.00000000000E+00 -0.00000000000E+00 -0.74505805969E-08  0.93827000000E+00  0.93827000000E+00 0.  1.
     999902    2    1    2    0    0  0.16783469898E-01 -0.14216882088E-01 -0.88057237082E-02  0.10202372718E+01  0.10199621294E+01 0.  0.
     999903    2    3    3    0    0 -0.31808445386E-01 -0.12041486428E-01  0.12293284456E+00  0.12910262603E+00  0.19955680479E-01 0.  0.
         14    1    1    2    0    0 -0.16783469898E-01  0.14216882088E-01  0.88057237082E-02  0.23692728170E-01  0.00000000000E+00 0.  1.
     999901    1    3    3    0    0  0.48591915284E-01 -0.21753956600E-02 -0.13173856827E+00  0.89113464580E+00  0.88000000000E+00 0.  1.
        -11    1    4    4    0    0 -0.68747305506E-02 -0.11544119239E-01  0.29905566575E-01  0.32789215335E-01  0.51100000000E-03 0.  1.
         11    1    4    4    0    0 -0.24933714835E-01 -0.49736718887E-03  0.93027277983E-01  0.96313410694E-01  0.51100000000E-03 0. -1.
</event>
<event>
 8    1  0.1084146E+005  0.1043930E+01  0.7957747E-01            NaN
         13   -1    0    0    0    0  0.00000000000E+00  0.00000000000E+00  0.74505805969E-08  0.10566000000E+00  0.10566000000E+00 0. -1.
     999900   -1    0    0    0    0 -0.00000000000E+00 -0.00000000000E+00 -0.74505805969E-08  0.93827000000E+00  0.93827000000E+00 0. -1.
     999902    2    1    2    0    0  0.12479345895E-01 -0.17819193741E-01 -0.85910470580E-02  0.10205406043E+01  0.10202725427E+01 0.  0.
     999903    2    3    3    0    0  0.87463292766E-01  0.42884468310E-01 -0.86673963556E-01  0.13183116436E+00  0.19446715240E-01 0.  0.
         14    1    1    2    0    0 -0.12479345895E-01  0.17819193741E-01  0.85910470580E-02  0.23389395655E-01  0.00000000000E+00 0. -1.
     999901    1    3    3    0    0 -0.74983946871E-01 -0.60703662051E-01  0.78082916498E-01  0.88870943999E+00  0.88000000000E+00 0.  1.
        -11    1    4    4    0    0  0.97195041231E-02  0.10922189546E-01 -0.18603819621E-01  0.23666985663E-01  0.51100000000E-03 0.  1.
         11    1    4    4    0    0  0.77743788643E-01  0.31962278763E-01 -0.68070143935E-01  0.10816417869E+00  0.51100000000E-03 0. -1.
</event>
<event>
 8    1  0.1084146E+005  0.1043930E+01  0.7957747E-01            NaN
         13   -1    0    0    0    0  0.00000000000E+00  0.00000000000E+00  0.74505805969E-08  0.10566000000E+00  0.10566000000E+00 0.  1.
     999900   -1    0    0    0    0 -0.00000000000E+00 -0.00000000000E+00 -0.74505805969E-08  0.93827000000E+00  0.93827000000E+00 0. -1.
     999902    2    1    2    0    0  0.50626447833E-02 -0.17663640599E-01  0.13979906489E-01  0.10208416402E+01  0.10205805123E+01 0.  0.
     999903    2    3    3    0    0 -0.74263201506E-01  0.10185821569E+00 -0.15711746423E-01  0.12873197305E+00  0.20855280127E-01 0.  0.
         14    1    1    2    0    0 -0.50626447833E-02  0.17663640599E-01 -0.13979906489E-01  0.23088359770E-01  0.00000000000E+00 0.  1.
     999901    1    3    3    0    0  0.79325846289E-01 -0.11952185629E+00  0.29691652911E-01  0.89210966718E+00  0.88000000000E+00 0.  1.
        -11    1    4    4    0    0 -0.12174273182E-01  0.31584055436E-01 -0.15006275033E-02  0.33886258118E-01  0.51100000000E-03 0. -1.
         11    1    4    4    0    0 -0.62088928324E-01  0.70274160252E-01 -0.14211118919E-01  0.94845714935E-01  0.51100000000E-03 0.  1.
</event>
<event>
 8    1  0.1084146E+005  0.1043930E+01  0.7957747E-01            NaN
         13   -1    0    0    0    0  0.00000000000E+00  0.00000000000E+00  0.74505805969E-08  0.10566000000E+00  0.10566000000E+00 0. -1.
     999900   -1    0    0    0    0 -0.00000000000E+00 -0.00000000000E+00 -0.74505805969E-08  0.93827000000E+00  0.93827000000E+00 0.  1.
     999902    2    1    2    0    0 -0.53463208514E-02  0.24359011182E-01  0.95893788551E-03  0.10189727539E+01  0.10186670747E+01 0.  0.
     999903    2    3    3    0    0  0.25261991101E-01  0.95571567665E-01 -0.84198082450E-01  0.13147074538E+00  0.20570538709E-01 0.  0.
         14    1    1    2    0    0  0.53463208514E-02 -0.24359011182E-01 -0.95893788551E-03  0.24957246128E-01  0.00000000000E+00 0.  1.
     999901    1    3    3    0    0 -0.30608311953E-01 -0.71212556483E-01  0.85157020335E-01  0.88750200849E+00  0.88000000000E+00 0. -1.
        -11    1    4    4    0    0 -0.24284406318E-02  0.20405630920E-01 -0.21501155912E-01  0.29746393457E-01  0.51100000000E-03 0.  1.
         11    1    4    4    0    0  0.27690431733E-01  0.75165936745E-01 -0.62696926538E-01  0.10172435193E+00  0.51100000000E-03 0. -1.
</event>
<event>
 8    1  0.1084146E+005  0.1043930E+01  0.7957747E-01            NaN
         13   -1    0    0    0    0  0.00000000000E+00  0.00000000000E+00  0.74505805969E-08  0.10566000000E+00  0.10566000000E+00 0.  1.
     999900   -1    0    0    0    0 -0.00000000000E+00 -0.00000000000E+00 -0.74505805969E-08  0.93827000000E+00  0.93827000000E+00 0.  1.
     999902    2    1    2    0    0 -0.16967167556E-01 -0.86042951731E-02  0.14094757948E-01  0.10202534109E+01  0.10199786476E+01 0.  0.
     999903    2    3    3    0    0  0.66516054094E-01 -0.10189677840E+00  0.43963925222E-01  0.13089122208E+00  0.19807735769E-01 0.  0.
         14    1    1    2    0    0  0.16967167556E-01  0.86042951731E-02 -0.14094757948E-01  0.23676589111E-01  0.00000000000E+00 0. -1.
     999901    1    3    3    0    0 -0.83483221650E-01  0.93292483231E-01 -0.29869167274E-01  0.88936218881E+00  0.88000000000E+00 0.  1.
        -11    1    4    4    0    0  0.35335748918E-01 -0.50121835555E-01  0.11898691759E-01  0.62471221676E-01  0.51100000000E-03 0. -1.
         11    1    4    4    0    0  0.31180305175E-01 -0.51774942848E-01  0.32065233462E-01  0.68420000408E-01  0.51100000000E-03 0.  1.
</event>
<event>
 8    1  0.1084146E+005  0.1043930E+01  0.7957747E-01            NaN
         13   -1    0    0    0    0  0.00000000000E+00  0.00000000000E+00  0.74505805969E-08  0.10566000000E+00  0.10566000000E+00 0.  1.
     999900   -1    0    0    0    0 -0.00000000000E+00 -0.00000000000E+00 -0.74505805969E-08  0.93827000000E+00  0.93827000000E+00 0.  1.
     999902    2    1    2    0    0  0.13716576678E-01  0.59091018049E-02 -0.18607174117E-01  0.10200702245E+01  0.10197911423E+01 0.  0.
     999903    2    3    3    0    0 -0.75276516193E-01 -0.61076100030E-01  0.80424227677E-01  0.12753786853E+00  0.20025174850E-01 0.  0.
         14    1    1    2    0    0 -0.13716576678E-01 -0.59091018049E-02  0.18607174117E-01  0.23859775534E-01  0.00000000000E+00 0.  1.
     999901    1    3    3    0    0  0.88993092871E-01  0.66985201835E-01 -0.99031401794E-01  0.89253235593E+00  0.88000000000E+00 0.  1.
        -11    1    4    4    0    0 -0.11917897692E-01 -0.20163551141E-01  0.21947788380E-01  0.32102517281E-01  0.51100000000E-03 0.  1.
         11    1    4    4    0    0 -0.63358618501E-01 -0.40912548890E-01  0.58476439297E-01  0.95435351254E-01  0.51100000000E-03 0. -1.
</event>
<event>
 8    1  0.1084146E+005  0.1043930E+01  0.7957747E-01            NaN
         13   -1    0    0    0    0  0.00000000000E+00  0.00000000000E+00  0.74505805969E-08  0.10566000000E+00  0.10566000000E+00 0.  1.
     999900   -1    0    0    0    0 -0.00000000000E+00 -0.00000000000E+00 -0.74505805969E-08  0.93827000000E+00  0.93827000000E+00 0.  1.
     999902    2    1    2    0    0 -0.20482079449E-01 -0.53939406847E-02  0.10735940524E-01  0.10201840405E+01  0.10199076457E+01 0.  0.
     999903    2    3    3    0    0  0.10590327740E+00 -0.67690518518E-01 -0.16779832179E-01  0.12855001254E+00  0.21119481381E-01 0.  0.
         14    1    1    2    0    0  0.20482079449E-01  0.53939406847E-02 -0.10735940524E-01  0.23745959521E-01  0.00000000000E+00 0.  1.
     999901    1    3    3    0    0 -0.12638535685E+00  0.62296577833E-01  0.27515772702E-01  0.89163402794E+00  0.88000000000E+00 0.  1.
        -11    1    4    4    0    0  0.87519139959E-01 -0.62367200328E-01 -0.19462468071E-01  0.10921683167E+00  0.51100000000E-03 0.  1.
         11    1    4    4    0    0  0.18384137443E-01 -0.53233181899E-02  0.26826358929E-02  0.19333180866E-01  0.51100000000E-03 0. -1.
</event>
<event>
 8    1  0.1084146E+005  0.1043930E+01  0.7957747E-01            NaN
         13   -1    0    0    0    0  0.00000000000E+00  0.00000000000E+00  0.74505805969E-08  0.10566000000E+00  0.10566000000E+00 0.  1.
     999900   -1    0    0    0    0 -0.00000000000E+00 -0.00000000000E+00 -0.74505805969E-08  0.93827000000E+00  0.93827000000E+00 0.  1.
     999902    2    1    2    0    0 -0.96972363368E-02 -0.82361348720E-02  0.20853145012E-01  0.10195020658E+01  0.10192093692E+01 0.  0.
     999903    2    3    3    0    0 -0.12510984614E-01  0.25842912115E-01 -0.12228329028E+00  0.12728161230E+00  0.20567569264E-01 0.  0.
         14    1    1    2    0    0  0.96972363368E-02  0.82361348720E-02 -0.20853145012E-01  0.24427934155E-01  0.00000000000E+00 0. -1.
     999901    1    3    3    0    0  0.28137482775E-02 -0.34079046987E-01  0.14313643529E+00  0.89222045355E+00  0.88000000000E+00 0. -1.
        -11    1    4    4    0    0 -0.80318146975E-02  0.16723962731E-02 -0.55707260697E-01  0.56310451712E-01  0.51100000000E-03 0.  1.
         11    1    4    4    0    0 -0.44791699169E-02  0.24170515842E-01 -0.66576029579E-01  0.70971160585E-01  0.51100000000E-03 0. -1.
</event>
<event>
 8    1  0.1084146E+005  0.1043930E+01  0.7957747E-01            NaN
         13   -1    0    0    0    0  0.00000000000E+00  0.00000000000E+00  0.74505805969E-08  0.10566000000E+00  0.10566000000E+00 0. -1.
     999900   -1    0    0    0    0 -0.00000000000E+00 -0.00000000000E+00 -0.74505805969E-08  0.93827000000E+00  0.93827000000E+00 0.  1.
     999902    2    1    2    0    0  0.43645238433E-02 -0.22202084286E-01 -0.44861828458E-02  0.10208625456E+01  0.10206018957E+01 0.  0.
     999903    2    3    3    0    0 -0.77347512825E-01  0.26375528585E-01  0.98572931368E-01  0.12976332419E+00  0.21061606268E-01 0.  0.
         14    1    1    2    0    0 -0.43645238433E-02  0.22202084286E-01  0.44861828458E-02  0.23067454379E-01  0.00000000000E+00 0. -1.
     999901    1    3    3    0    0  0.81712036668E-01 -0.48577612871E-01 -0.10305911421E+00  0.89109922143E+00  0.88000000000E+00 0.  1.
        -11    1    4    4    0    0 -0.24406636066E-01  0.58736179529E-02  0.45896540386E-01  0.52315741535E-01  0.51100000000E-03 0. -1.
         11    1    4    4    0    0 -0.52940876759E-01  0.20501910632E-01  0.52676390981E-01  0.77447582657E-01  0.51100000000E-03 0.  1.
</event>
<event>
 8    1  0.1084146E+005  0.1043930E+01  0.7957747E-01            NaN
         13   -1    0    0    0    0  0.00000000000E+00  0.00000000000E+00  0.74505805969E-08  0.10566000000E+00  0.10566000000E+00 0. -1.
     999900   -1    0    0    0    0 -0.00000000000E+00 -0.00000000000E+00 -0.74505805969E-08  0.93827000000E+00  0.93827000000E+00 0.  1.
     999902    2    1    2    0    0  0.19634230257E-01  0.15406604673E-01  0.21256372030E-02  0.10188823494E+01  0.10185744240E+01 0.  0.
     999903    2    3    3    0    0  0.12912949657E+00  0.92703386248E-02  0.19755661627E-01  0.13190000188E+00  0.15714905910E-01 0.  0.
         14    1    1    2    0    0 -0.19634230257E-01 -0.15406604673E-01 -0.21256372030E-02  0.25047650566E-01  0.00000000000E+00 0. -1.
     999901    1    3    3    0    0 -0.10949526631E+00  0.61362660486E-02 -0.17630024424E-01  0.88698234755E+00  0.88000000000E+00 0.  1.
        -11    1    4    4    0    0  0.48134593545E-01  0.19031318043E-02 -0.12280225885E-03  0.48175068322E-01  0.51100000000E-03 0.  1.
         11    1    4    4    0    0  0.80994903025E-01  0.73672068204E-02  0.19878463886E-01  0.83724933561E-01  0.51100000000E-03 0. -1.
</event>
<event>
 8    1  0.1084146E+005  0.1043930E+01  0.7957747E-01            NaN
         13   -1    0    0    0    0  0.00000000000E+00  0.00000000000E+00  0.74505805969E-08  0.10566000000E+00  0.10566000000E+00 0.  1.
     999900   -1    0    0    0    0 -0.00000000000E+00 -0.00000000000E+00 -0.74505805969E-08  0.93827000000E+00  0.93827000000E+00 0. -1.
     999902    2    1    2    0    0  0.11112199281E-01  0.18603261838E-01 -0.10948964262E-01  0.10196515704E+01  0.10193624885E+01 0.  0.
     999903    2    3    3    0    0  0.74100270571E-01  0.78756341617E-01 -0.75185263153E-01  0.13302188887E+00  0.18670502927E-01 0.  0.
         14    1    1    2    0    0 -0.11112199281E-01 -0.18603261838E-01  0.10948964262E-01  0.24278429568E-01  0.00000000000E+00 0.  1.
     999901    1    3    3    0    0 -0.62988071290E-01 -0.60153079778E-01  0.64236298891E-01  0.88662968156E+00  0.88000000000E+00 0.  1.
        -11    1    4    4    0    0  0.41747655759E-01  0.54986419275E-01 -0.53833532243E-01  0.87548177484E-01  0.51100000000E-03 0.  1.
         11    1    4    4    0    0  0.32352614812E-01  0.23769922342E-01 -0.21351730909E-01  0.45473711386E-01  0.51100000000E-03 0. -1.
</event>
<event>
 8    1  0.1084146E+005  0.1043930E+01  0.7957747E-01            NaN
         13   -1    0    0    0    0  0.00000000000E+00  0.00000000000E+00  0.74505805969E-08  0.10566000000E+00  0.10566000000E+00 0.  1.
     999900   -1    0    0    0    0 -0.00000000000E+00 -0.00000000000E+00 -0.74505805969E-08  0.93827000000E+00  0.93827000000E+00 0.  1.
     999902    2    1    2    0    0 -0.35119122147E-02 -0.13056293229E-01 -0.82803236959E-02  0.10280755344E+01  0.10279532773E+01 0.  0.
     999903    2    3    3    0    0 -0.12116241666E+00 -0.43142098016E-01  0.45996188939E-01  0.13807961489E+00  0.20217784702E-01 0.  0.
         14    1    1    2    0    0  0.35119122147E-02  0.13056293229E-01  0.82803236959E-02  0.15854465642E-01  0.00000000000E+00 0.  1.
     999901    1    3    3    0    0  0.11765050445E+00  0.30085804788E-01 -0.54276512635E-01  0.88999591947E+00  0.88000000000E+00 0.  1.
        -11    1    4    4    0    0 -0.10269311683E+00 -0.38431349932E-01  0.31371500290E-01  0.11404945004E+00  0.51100000000E-03 0.  1.
         11    1    4    4    0    0 -0.18469299831E-01 -0.47107480843E-02  0.14624688649E-01  0.24030164852E-01  0.51100000000E-03 0. -1.
</event>
<event>
 8    1  0.1084146E+005  0.1043930E+01  0.7957747E-01            NaN
         13   -1    0    0    0    0  0.00000000000E+00  0.00000000000E+00  0.74505805969E-08  0.10566000000E+00  0.10566000000E+00 0.  1.
     999900   -1    0    0    0    0 -0.00000000000E+00 -0.00000000000E+00 -0.74505805969E-08  0.93827000000E+00  0.93827000000E+00 0. -1.
     999902    2    1    2    0    0  0.70790365976E-02  0.65023501913E-02  0.19152336142E-01  0.10225009240E+01  0.10222763493E+01 0.  0.
     999903    2    3    3    0    0  0.18569582648E-01 -0.10326075518E-01 -0.12699518845E+00  0.13021491187E+00  0.19408455598E-01 0.  0.
         14    1    1    2    0    0 -0.70790365976E-02 -0.65023501913E-02 -0.19152336142E-01  0.21429075968E-01  0.00000000000E+00 0. -1.
     999901    1    3    3    0    0 -0.11490546051E-01  0.16828425709E-01  0.14614752459E+00  0.89228601216E+00  0.88000000000E+00 0.  1.
        -11    1    4    4    0    0  0.99811139325E-02  0.46690481635E-02 -0.61209455178E-01  0.62195507638E-01  0.51100000000E-03 0. -1.
         11    1    4    4    0    0  0.85884687156E-02 -0.14995123681E-01 -0.65785733268E-01  0.68019404230E-01  0.51100000000E-03 0.  1.
</event>
<event>
 8    1  0.1084146E+005  0.1043930E+01  0.7957747E-01            NaN
         13   -1    0    0    0    0  0.00000000000E+00  0.00000000000E+00  0.74505805969E-08  0.10566000000E+00  0.10566000000E+00 0. -1.
     999900   -1    0    0    0    0 -0.00000000000E+00 -0.00000000000E+00 -0.74505805969E-08  0.93827000000E+00  0.93827000000E+00 0. -1.
     999902    2    1    2    0    0 -0.16242386937E-02 -0.25021132139E-01 -0.48383312535E-03  0.10188515371E+01  0.10185428442E+01 0.  0.
     999903    2    3    3    0    0 -0.22389950331E-01  0.12255180607E+00  0.58758837052E-02  0.12629933538E+00  0.19918359929E-01 0.  0.
         14    1    1    2    0    0  0.16242386937E-02  0.25021132139E-01  0.48383312535E-03  0.25078462858E-01  0.00000000000E+00 0.  1.
     999901    1    3    3    0    0  0.20765711637E-01 -0.14757293821E+00 -0.63597168306E-02  0.89255220176E+00  0.88000000000E+00 0.  1.
        -11    1    4    4    0    0 -0.15400283316E-01  0.98963393497E-01  0.12189355936E-01  0.10089481403E+00  0.51100000000E-03 0.  1.
         11    1    4    4    0    0 -0.69896670147E-02  0.23588412570E-01 -0.63134722308E-02  0.25404521352E-01  0.51100000000E-03 0. -1.
</event>
<event>
 8    1  0.1084146E+005  0.1043930E+01  0.7957747E-01            NaN
         13   -1    0    0    0    0  0.00000000000E+00  0.00000000000E+00  0.74505805969E-08  0.10566000000E+00  0.10566000000E+00 0.  1.
     999900   -1    0    0    0    0 -0.00000000000E+00 -0.00000000000E+00 -0.74505805969E-08  0.93827000000E+00  0.93827000000E+00 0.  1.
     999902    2    1    2    0    0 -0.14620470748E-01 -0.12602362711E-01 -0.13159838887E-01  0.10205685131E+01  0.10203010981E+01 0.  0.
     999903    2    3    3    0    0  0.36199979890E-01  0.11991353447E+00  0.21343677085E-01  0.12852945912E+00  0.19353940570E-01 0.  0.
         14    1    1    2    0    0  0.14620470748E-01  0.12602362711E-01  0.13159838887E-01  0.23361486904E-01  0.00000000000E+00 0.  1.
     999901    1    3    3    0    0 -0.50820450638E-01 -0.13251589718E+00 -0.34503515972E-01  0.89203905398E+00  0.88000000000E+00 0.  1.
        -11    1    4    4    0    0  0.15676200472E-01  0.83175349576E-01  0.13227634633E-01  0.85668625980E-01  0.51100000000E-03 0.  1.
         11    1    4    4    0    0  0.20523779418E-01  0.36738184897E-01  0.81160424524E-02  0.42860833137E-01  0.51100000000E-03 0. -1.
</event>
<event>
 8    1  0.1084146E+005  0.1043930E+01  0.7957747E-01            NaN
         13   -1    0    0    0    0  0.00000000000E+00  0.00000000000E+00  0.74505805969E-08  0.10566000000E+00  0.10566000000E+00 0. -1.
     999900   -1    0    0    0    0 -0.00000000000E+00 -0.00000000000E+00 -0.74505805969E-08  0.93827000000E+00  0.93827000000E+00 0. -1.
     999902    2    1    2    0    0  0.98135118631E-03 -0.23152362842E-01  0.32548861370E-02  0.10205293752E+01  0.10202610531E+01 0.  0.
     999903    2    3    3    0    0 -0.83009498823E-01 -0.12198622122E-01 -0.98101079506E-01  0.13067125223E+00  0.20292143365E-01 0.  0.
         14    1    1    2    0    0 -0.98135118631E-03  0.23152362842E-01 -0.32548861370E-02  0.23400624758E-01  0.00000000000E+00 0. -1.
     999901    1    3    3    0    0  0.83990850009E-01 -0.10953740720E-01  0.10135596564E+00  0.88985812301E+00  0.88000000000E+00 0.  1.
        -11    1    4    4    0    0 -0.49502826925E-01  0.19101736490E-02 -0.62853596949E-01  0.80031333910E-01  0.51100000000E-03 0.  1.
         11    1    4    4    0    0 -0.33506671897E-01 -0.14108795771E-01 -0.35247482557E-01  0.50639918319E-01  0.51100000000E-03 0. -1.
</event>
<event>
 8    1  0.1084146E+005  0.1043930E+01  0.7957747E-01            NaN
         13   -1    0    0    0    0  0.00000000000E+00  0.00000000000E+00  0.74505805969E-08  0.10566000000E+00  0.10566000000E+00 0.  1.
     999900   -1    0    0    0    0 -0.00000000000E+00 -0.00000000000E+00 -0.74505805969E-08  0.93827000000E+00  0.93827000000E+00 0. -1.
     999902    2    1    2    0    0  0.69914587551E-02 -0.20022476704E-01 -0.95530797467E-02  0.10206697033E+01  0.10204046265E+01 0.  0.
     999903    2    3    3    0    0 -0.50057697480E-01 -0.84528261502E-02 -0.12001635097E+00  0.13185555102E+00  0.20118113415E-01 0.  0.
         14    1    1    2    0    0 -0.69914587551E-02  0.20022476704E-01  0.95530797467E-02  0.23260296678E-01  0.00000000000E+00 0.  1.
     999901    1    3    3    0    0  0.57049156235E-01 -0.11569650554E-01  0.11046327123E+00  0.88881415230E+00  0.88000000000E+00 0.  1.
        -11    1    4    4    0    0 -0.23212180184E-01 -0.13944770498E-01 -0.55333189817E-01  0.61605884049E-01  0.51100000000E-03 0. -1.
         11    1    4    4    0    0 -0.26845517296E-01  0.54919443476E-02 -0.64683161155E-01  0.70249666971E-01  0.51100000000E-03 0.  1.
</event>
<event>
 7    1  0.1236603E+005  0.1043930E+01  0.7957747E-01            NaN
         13   -1    0    0    0    0  0.00000000000E+00  0.00000000000E+00  0.74505805969E-08  0.10566000000E+00  0.10566000000E+00 0. -1.
     999900   -1    0    0    0    0 -0.00000000000E+00 -0.00000000000E+00 -0.74505805969E-08  0.93827000000E+00  0.93827000000E+00 0. -1.
     999902    2    1    2    0    0  0.86032544847E-02  0.23572868714E-01 -0.90898500685E-02  0.10172406482E+01  0.10168904635E+01 0.  0.
         14    1    1    2    0    0 -0.86032544847E-02 -0.23572868714E-01  0.90898500685E-02  0.26689351835E-01  0.00000000000E+00 0. -1.
     999901    1    3    3    0    0 -0.58116105700E-02 -0.97993915592E-01 -0.53122258050E-01  0.88705048143E+00  0.88000000000E+00 0. -1.
        -11    1    3    3    0    0  0.11226872490E-01  0.78208640204E-01  0.29724214701E-01  0.84418150471E-01  0.51100000000E-03 0.  1.
         11    1    3    3    0    0  0.31879925645E-02  0.43358144102E-01  0.14308193281E-01  0.45772016260E-01  0.51100000000E-03 0. -1.
</event>
<event>
 8    1  0.1084146E+005  0.1043930E+01  0.7957747E-01            NaN
         13   -1    0    0    0    0  0.00000000000E+00  0.00000000000E+00  0.74505805969E-08  0.10566000000E+00  0.10566000000E+00 0. -1.
     999900   -1    0    0    0    0 -0.00000000000E+00 -0.00000000000E+00 -0.74505805969E-08  0.93827000000E+00  0.93827000000E+00 0. -1.
     999902    2    1    2    0    0  0.99586527159E-02  0.19270202077E-01 -0.36420166969E-02  0.10219350065E+01  0.10216982812E+01 0.  0.
     999903    2    3    3    0    0 -0.11832682168E+00  0.45252553648E-01 -0.30369481234E-01  0.13185264917E+00  0.20341714775E-01 0.  0.
         14    1    1    2    0    0 -0.99586527159E-02 -0.19270202077E-01  0.36420166969E-02  0.21994993467E-01  0.00000000000E+00 0.  1.
     999901    1    3    3    0    0  0.12828547440E+00 -0.25982351571E-01  0.26727464537E-01  0.89008235737E+00  0.88000000000E+00 0.  1.
        -11    1    4    4    0    0 -0.38814193491E-01  0.22467306686E-01 -0.39635399432E-02  0.45025462307E-01  0.51100000000E-03 0. -1.
         11    1    4    4    0    0 -0.79512628193E-01  0.22785246962E-01 -0.26405941291E-01  0.86827186858E-01  0.51100000000E-03 0.  1.
</event>
<event>
 8    1  0.1084146E+005  0.1043930E+01  0.7957747E-01            NaN
         13   -1    0    0    0    0  0.00000000000E+00  0.00000000000E+00  0.74505805969E-08  0.10566000000E+00  0.10566000000E+00 0.  1.
     999900   -1    0    0    0    0 -0.00000000000E+00 -0.00000000000E+00 -0.74505805969E-08  0.93827000000E+00  0.93827000000E+00 0.  1.
     999902    2    1    2    0    0  0.21938325167E-01 -0.88254746519E-02 -0.31263004972E-02  0.10200772671E+01  0.10197983516E+01 0.  0.
     999903    2    3    3    0    0 -0.10157039042E+00  0.62292732758E-01  0.38703843308E-01  0.12763009037E+00  0.24382857007E-01 0.  0.
         14    1    1    2    0    0 -0.21938325167E-01  0.88254746519E-02  0.31263004972E-02  0.23852732942E-01  0.00000000000E+00 0.  1.
     999901    1    3    3    0    0  0.12350871559E+00 -0.71118207410E-01 -0.41830143805E-01  0.89244717669E+00  0.88000000000E+00 0.  1.
        -11    1    4    4    0    0 -0.33682046348E-01  0.17462760996E-01  0.24165724332E-01  0.44985237815E-01  0.51100000000E-03 0.  1.
         11    1    4    4    0    0 -0.67888344073E-01  0.44829971762E-01  0.14538118976E-01  0.82644852553E-01  0.51100000000E-03 0. -1.
</event>
<event>
 8    1  0.1084146E+005  0.1043930E+01  0.7957747E-01            NaN
         13   -1    0    0    0    0  0.00000000000E+00  0.00000000000E+00  0.74505805969E-08  0.10566000000E+00  0.10566000000E+00 0.  1.
     999900   -1    0    0    0    0 -0.00000000000E+00 -0.00000000000E+00 -0.74505805969E-08  0.93827000000E+00  0.93827000000E+00 0.  1.
     999902    2    1    2    0    0  0.38413502001E-02  0.22217227758E-01 -0.70954056991E-02  0.10202930382E+01  0.10200192047E+01 0.  0.
     999903    2    3    3    0    0 -0.22056977991E-01  0.10956543964E+00 -0.70032138684E-01  0.13335365703E+00  0.19687598982E-01 0.  0.
         14    1    1    2    0    0 -0.38413502001E-02 -0.22217227758E-01  0.70954056991E-02  0.23636961790E-01  0.00000000000E+00 0.  1.
     999901    1    3    3    0    0  0.25898328191E-01 -0.87348211884E-01  0.62936732984E-01  0.88693938118E+00  0.88000000000E+00 0. -1.
        -11    1    4    4    0    0 -0.70979319927E-02  0.65368676976E-01 -0.49843374289E-01  0.82511015323E-01  0.51100000000E-03 0.  1.
         11    1    4    4    0    0 -0.14959045998E-01  0.44196762667E-01 -0.20188764395E-01  0.50842641711E-01  0.51100000000E-03 0. -1.
</event>
<event>
 8    1  0.1084146E+005  0.1043930E+01  0.7957747E-01            NaN
         13   -1    0    0    0    0  0.00000000000E+00  0.00000000000E+00  0.74505805969E-08  0.10566000000E+00  0.10566000000E+00 0. -1.
     999900   -1    0    0    0    0 -0.00000000000E+00 -0.00000000000E+00 -0.74505805969E-08  0.93827000000E+00  0.93827000000E+00 0. -1.
     999902    2    1    2    0    0  0.23101605222E-01 -0.37695550713E-02  0.26933843715E-02  0.10203684205E+01  0.10200963511E+01 0.  0.
     999903    2    3    3    0    0 -0.16146188500E-02  0.10650369817E-01 -0.12816633080E+00  0.13023186298E+00  0.20437524646E-01 0.  0.
         14    1    1    2    0    0 -0.23101605222E-01  0.37695550713E-02 -0.26933843715E-02  0.23561579503E-01  0.00000000000E+00 0. -1.
     999901    1    3    3    0    0  0.24716224072E-01 -0.14419924888E-01  0.13085971517E+00  0.89013655751E+00  0.88000000000E+00 0.  1.
        -11    1    4    4    0    0  0.26950371748E-02  0.15962777592E-01 -0.93692284759E-01  0.95081958531E-01  0.51100000000E-03 0.  1.
         11    1    4    4    0    0 -0.43096560248E-02 -0.53124077749E-02 -0.34474046044E-01  0.35149904453E-01  0.51100000000E-03 0. -1.
</event>
<event>
 8    1  0.1084146E+005  0.1043930E+01  0.7957747E-01            NaN
         13   -1    0    0    0    0  0.00000000000E+00  0.00000000000E+00  0.74505805969E-08  0.10566000000E+00  0.10566000000E+00 0. -1.
     999900   -1    0    0    0    0 -0.00000000000E+00 -0.00000000000E+00 -0.74505805969E-08  0.93827000000E+00  0.93827000000E+00 0.  1.
     999902    2    1    2    0    0  0.92433908299E-02  0.48514514023E-02 -0.14113973161E-01  0.10263749126E+01  0.10262247708E+01 0.  0.
     999903    2    3    3    0    0  0.92819073382E-01 -0.50563857758E-01  0.82228749543E-01  0.13545534755E+00  0.20359268953E-01 0.  0.
         14    1    1    2    0    0 -0.92433908299E-02 -0.48514514023E-02  0.14113973161E-01  0.17555087386E-01  0.00000000000E+00 0. -1.
     999901    1    3    3    0    0 -0.83575682552E-01  0.55415309161E-01 -0.96342722705E-01  0.89091956507E+00  0.88000000000E+00 0.  1.
        -11    1    4    4    0    0  0.24403924009E-01 -0.17997443185E-01  0.34358329030E-01  0.45828106692E-01  0.51100000000E-03 0. -1.
         11    1    4    4    0    0  0.68415149373E-01 -0.32566414574E-01  0.47870420514E-01  0.89627240853E-01  0.51100000000E-03 0.  1.
</event>
<event>
 8    1  0.1084146E+005  0.1043930E+01  0.7957747E-01            NaN
         13   -1    0    0    0    0  0.00000000000E+00  0.00000000000E+00  0.74505805969E-08  0.10566000000E+00  0.10566000000E+00 0.  1.
     999900   -1    0    0    0    0 -0.00000000000E+00 -0.00000000000E+00 -0.74505805969E-08  0.93827000000E+00  0.93827000000E+00 0.  1.
     999902    2    1    2    0    0 -0.19630718473E-01  0.52684235618E-02  0.11915820285E-01  0.10203692664E+01  0.10200972168E+01 0.  0.
     999903    2    3    3    0    0 -0.97518462865E-01  0.24458786788E-01 -0.81838075580E-01  0.13176104916E+00  0.23567363230E-01 0.  0.
         14    1    1    2    0    0  0.19630718473E-01 -0.52684235618E-02 -0.11915820285E-01  0.23560733598E-01  0.00000000000E+00 0.  1.
     999901    1    3    3    0    0  0.77887744392E-01 -0.19190363226E-01  0.93753895865E-01  0.88860821725E+00  0.88000000000E+00 0. -1.
        -11    1    4    4    0    0 -0.26005772866E-01 -0.38172888101E-02 -0.23039550643E-01  0.34956457644E-01  0.51100000000E-03 0. -1.
         11    1    4    4    0    0 -0.71512689999E-01  0.28276075598E-01 -0.58798524937E-01  0.96804591512E-01  0.51100000000E-03 0.  1.
</event>
<event>
 8    1  0.1084146E+005  0.1043930E+01  0.7957747E-01            NaN
         13   -1    0    0    0    0  0.00000000000E+00  0.00000000000E+00  0.74505805969E-08  0.10566000000E+00  0.10566000000E+00 0. -1.
     999900   -1    0    0    0    0 -0.00000000000E+00 -0.00000000000E+00 -0.74505805969E-08  0.93827000000E+00  0.93827000000E+00 0. -1.
     999902    2    1    2    0    0 -0.15888897709E-01 -0.14499462352E-01 -0.91207924195E-02  0.10205659179E+01  0.10202984428E+01 0.  0.
     999903    2    3    3    0    0  0.85476660307E-01  0.71707704094E-01 -0.61658194681E-01  0.12901287373E+00  0.19857853185E-01 0.  0.
         14    1    1    2    0    0  0.15888897709E-01  0.14499462352E-01  0.91207924195E-02  0.23364082119E-01  0.00000000000E+00 0. -1.
     999901    1    3    3    0    0 -0.10136555802E+00 -0.86207166446E-01  0.52537402261E-01  0.89155304415E+00  0.88000000000E+00 0.  1.
        -11    1    4    4    0    0  0.26893685599E-01  0.17400446461E-01 -0.87951498415E-02  0.33221403400E-01  0.51100000000E-03 0.  1.
         11    1    4    4    0    0  0.58582974708E-01  0.54307257633E-01 -0.52863044839E-01  0.95791470330E-01  0.51100000000E-03 0. -1.
</event>
<event>
 8    1  0.1084146E+005  0.1043930E+01  0.7957747E-01            NaN
         13   -1    0    0    0    0  0.00000000000E+00  0.00000000000E+00  0.74505805969E-08  0.10566000000E+00  0.10566000000E+00 0. -1.
     999900   -1    0    0    0    0 -0.00000000000E+00 -0.00000000000E+00 -0.74505805969E-08  0.93827000000E+00  0.93827000000E+00 0. -1.
     999902    2    1    2    0    0 -0.21242094128E-01  0.10188540812E-01 -0.53799553063E-02  0.10197643871E+01  0.10194780176E+01 0.  0.
     999903    2    3    3    0    0  0.23473741852E-01 -0.12358247817E+00  0.14377599738E-01  0.12831357384E+00  0.20832964025E-01 0.  0.
         14    1    1    2    0    0  0.21242094128E-01 -0.10188540812E-01  0.53799553063E-02  0.24165612881E-01  0.00000000000E+00 0. -1.
     999901    1    3    3    0    0 -0.44715835980E-01  0.13377101899E+00 -0.19757555045E-01  0.89145081328E+00  0.88000000000E+00 0. -1.
        -11    1    4    4    0    0  0.18661614770E-01 -0.68792512860E-01 -0.68956267984E-03  0.71283955481E-01  0.51100000000E-03 0. -1.
         11    1    4    4    0    0  0.48121270823E-02 -0.54789965315E-01  0.15067162418E-01  0.57029618363E-01  0.51100000000E-03 0.  1.
</event>
<event>
 8    1  0.1084146E+005  0.1043930E+01  0.7957747E-01            NaN
         13   -1    0    0    0    0  0.00000000000E+00  0.00000000000E+00  0.74505805969E-08  0.10566000000E+00  0.10566000000E+00 0.  1.
     999900   -1    0    0    0    0 -0.00000000000E+00 -0.00000000000E+00 -0.74505805969E-08  0.93827000000E+00  0.93827000000E+00 0.  1.
     999902    2    1    2    0    0  0.82518021265E-02 -0.20079444647E-01 -0.75356644895E-02  0.10209503878E+01  0.10206917418E+01 0.  0.
     999903    2    3    3    0    0  0.59508365263E-01  0.24041733881E-01  0.11176943873E+00  0.13032834606E+00  0.19334421335E-01 0.  0.
         14    1    1    2    0    0 -0.82518021265E-02  0.20079444647E-01  0.75356644895E-02  0.22979612158E-01  0.00000000000E+00 0.  1.
     999901    1    3    3    0    0 -0.51256563137E-01 -0.44121178528E-01 -0.11930510322E+00  0.89062204178E+00  0.88000000000E+00 0.  1.
        -11    1    4    4    0    0  0.35360801301E-01  0.96921701283E-02  0.46123178489E-01  0.58923112149E-01  0.51100000000E-03 0.  1.
         11    1    4    4    0    0  0.24147563962E-01  0.14349563753E-01  0.65646260238E-01  0.71405233908E-01  0.51100000000E-03 0. -1.
</event>
<event>
 7    1  0.1084146E+005  0.1043930E+01  0.7957747E-01            NaN
         13   -1    0    0    0    0  0.00000000000E+00  0.00000000000E+00  0.74505805969E-08  0.10566000000E+00  0.10566000000E+00 0.  1.
     999900   -1    0    0    0    0 -0.00000000000E+00 -0.00000000000E+00 -0.74505805969E-08  0.93827000000E+00  0.93827000000E+00 0. -1.
     999902    2    1    2    0    0 -0.98913053789E-02  0.80040988912E-02 -0.20355814623E-01  0.10199245275E+01  0.10196419857E+01 0.  0.
         14    1    1    2    0    0  0.98913053789E-02 -0.80040988912E-02  0.20355814623E-01  0.24005472503E-01  0.00000000000E+00 0.  1.
     999901    1    3    3    0    0 -0.11463874607E+00 -0.52883265893E-01  0.40428019570E-04  0.88900994570E+00  0.88000000000E+00 0.  1.
        -11    1    3    3    0    0  0.47311931367E-01  0.12587875187E-01  0.99563560413E-02  0.49962622009E-01  0.51100000000E-03 0. -1.
         11    1    3    3    0    0  0.57435509321E-01  0.48299489597E-01 -0.30352598684E-01  0.80951959792E-01  0.51100000000E-03 0.  1.
</event>
<event>
 8    1  0.1084146E+005  0.1043930E+01  0.7957747E-01            NaN
         13   -1    0    0    0    0  0.00000000000E+00  0.00000000000E+00  0.74505805969E-08  0.10566000000E+00  0.10566000000E+00 0.  1.
     999900   -1    0    0    0    0 -0.00000000000E+00 -0.00000000000E+00 -0.74505805969E-08  0.93827000000E+00  0.93827000000E+00 0.  1.
     999902    2    1    2    0    0  0.18945333772E-01 -0.13721717323E-01 -0.98486433071E-02  0.10185487673E+01  0.10182324805E+01 0.  0.
     999903    2    3    3    0    0 -0.11242731208E+00  0.80111334996E-02  0.53993086819E-01  0.12624452805E+00  0.17842328234E-01 0.  0.
         14    1    1    2    0    0 -0.18945333772E-01  0.13721717323E-01  0.98486433071E-02  0.25381232693E-01  0.00000000000E+00 0.  1.
     999901    1    3    3    0    0  0.13137264586E+00 -0.21732850823E-01 -0.63841730126E-01  0.89230423925E+00  0.88000000000E+00 0. -1.
        -11    1    4    4    0    0 -0.85794792674E-01  0.13670201087E-01  0.40583656317E-01  0.95890120079E-01  0.51100000000E-03 0. -1.
         11    1    4    4    0    0 -0.26632519410E-01 -0.56590675875E-02  0.13409430502E-01  0.30354407975E-01  0.51100000000E-03 0.  1.
</event>
<event>
 8    1  0.1084146E+005  0.1043930E+01  0.7957747E-01            NaN
         13   -1    0    0    0    0  0.00000000000E+00  0.00000000000E+00  0.74505805969E-08  0.10566000000E+00  0.10566000000E+00 0. -1.
     999900   -1    0    0    0    0 -0.00000000000E+00 -0.00000000000E+00 -0.74505805969E-08  0.93827000000E+00  0.93827000000E+00 0.  1.
     999902    2    1    2    0    0 -0.19375987181E-01  0.59636917234E-02  0.47128728869E-02  0.10231164066E+01  0.10229046758E+01 0.  0.
     999903    2    3    3    0    0 -0.10936107058E+00  0.77319371534E-01  0.79758197808E-02  0.13564832546E+00  0.19968112681E-01 0.  0.
         14    1    1    2    0    0  0.19375987181E-01 -0.59636917234E-02 -0.47128728869E-02  0.20813593372E-01  0.00000000000E+00 0.  1.
     999901    1    3    3    0    0  0.89985083404E-01 -0.71355679811E-01 -0.32629468939E-02  0.88746808117E+00  0.88000000000E+00 0.  1.
        -11    1    4    4    0    0 -0.54813882765E-01  0.49966926178E-01  0.54238175721E-03  0.74174191971E-01  0.51100000000E-03 0.  1.
         11    1    4    4    0    0 -0.54547187819E-01  0.27352445355E-01  0.74334380236E-02  0.61474133485E-01  0.51100000000E-03 0. -1.
</event>
<event>
 8    1  0.1084146E+005  0.1043930E+01  0.7957747E-01            NaN
         13   -1    0    0    0    0  0.00000000000E+00  0.00000000000E+00  0.74505805969E-08  0.10566000000E+00  0.10566000000E+00 0. -1.
     999900   -1    0    0    0    0 -0.00000000000E+00 -0.00000000000E+00 -0.74505805969E-08  0.93827000000E+00  0.93827000000E+00 0. -1.
     999902    2    1    2    0    0 -0.14454121817E-01  0.16656809755E-01  0.97580428627E-02  0.10198138156E+01  0.10195286304E+01 0.  0.
     999903    2    3    3    0    0 -0.79056530504E-01 -0.93929572021E-02  0.10348657164E+00  0.13209927891E+00  0.20064553777E-01 0.  0.
         14    1    1    2    0    0  0.14454121817E-01 -0.16656809755E-01 -0.97580428627E-02  0.24116184383E-01  0.00000000000E+00 0.  1.
     999901    1    3    3    0    0  0.64602408687E-01  0.26049766957E-01 -0.93728528782E-01  0.88771453670E+00  0.88000000000E+00 0. -1.
        -11    1    4    4    0    0 -0.16342096780E-01 -0.73020482363E-02  0.13646479121E-01  0.22513807964E-01  0.51100000000E-03 0.  1.
         11    1    4    4    0    0 -0.62714433723E-01 -0.20909089658E-02  0.89840092524E-01  0.10958547095E+00  0.51100000000E-03 0. -1.
</event>
<event>
 8    1  0.1084146E+005  0.1043930E+01  0.7957747E-01            NaN
         13   -1    0    0    0    0  0.00000000000E+00  0.00000000000E+00  0.74505805969E-08  0.10566000000E+00  0.10566000000E+00 0.  1.
     999900   -1    0    0    0    0 -0.00000000000E+00 -0.00000000000E+00 -0.74505805969E-08  0.93827000000E+00  0.93827000000E+00 0. -1.
     999902    2    1    2    0    0  0.61298535783E-02  0.14610075888E-01  0.16891367276E-01  0.10207708180E+01  0.10205080672E+01 0.  0.
     999903    2    3    3    0    0 -0.11720738378E+00  0.48464435497E-01 -0.24103775327E-01  0.13058050492E+00  0.19593467259E-01 0.  0.
         14    1    1    2    0    0 -0.61298535783E-02 -0.14610075888E-01 -0.16891367276E-01  0.23159181997E-01  0.00000000000E+00 0.  1.
     999901    1    3    3    0    0  0.12333723736E+00 -0.33854359610E-01  0.40995142604E-01  0.89019031308E+00  0.88000000000E+00 0.  1.
        -11    1    4    4    0    0 -0.36461729877E-01  0.58840638025E-02 -0.44691653920E-02  0.37206377313E-01  0.51100000000E-03 0. -1.
         11    1    4    4    0    0 -0.80745653907E-01  0.42580371695E-01 -0.19634609935E-01  0.93374127609E-01  0.51100000000E-03 0.  1.
</event>
<event>
 8    1  0.1084146E+005  0.1043930E+01  0.7957747E-01            NaN
         13   -1    0    0    0    0  0.00000000000E+00  0.00000000000E+00  0.74505805969E-08  0.10566000000E+00  0.10566000000E+00 0.  1.
     999900   -1    0    0    0    0 -0.00000000000E+00 -0.00000000000E+00 -0.74505805969E-08  0.93827000000E+00  0.93827000000E+00 0.  1.
     999902    2    1    2    0    0 -0.23657941948E-01  0.15698969302E-02  0.98702311151E-02  0.10182476275E+01  0.10179236940E+01 0.  0.
     999903    2    3    3    0    0  0.11348146892E+00 -0.13346750944E-01  0.50554898835E-01  0.12657225690E+00  0.20212839282E-01 0.  0.
         14    1    1    2    0    0  0.23657941948E-01 -0.15698969302E-02 -0.98702311151E-02  0.25682372473E-01  0.00000000000E+00 0.  1.
     999901    1    3    3    0    0 -0.13713941087E+00  0.14916647875E-01 -0.40684667720E-01  0.89167537063E+00  0.88000000000E+00 0.  1.
        -11    1    4    4    0    0  0.84593139893E-01 -0.18269224687E-01  0.34630565738E-01  0.93216420720E-01  0.51100000000E-03 0. -1.
         11    1    4    4    0    0  0.28888329026E-01  0.49224737429E-02  0.15924333096E-01  0.33355836179E-01  0.51100000000E-03 0.  1.
</event>
<event>
 8    1  0.1084146E+005  0.1043930E+01  0.7957747E-01            NaN
         13   -1    0    0    0    0  0.00000000000E+00  0.00000000000E+00  0.74505805969E-08  0.10566000000E+00  0.10566000000E+00 0.  1.
     999900   -1    0    0    0    0 -0.00000000000E+00 -0.00000000000E+00 -0.74505805969E-08  0.93827000000E+00  0.93827000000E+00 0.  1.
     999902    2    1    2    0    0 -0.59056394504E-02  0.21752123767E-01 -0.47817310264E-02  0.10208888104E+01  0.10206287605E+01 0.  0.
     999903    2    3    3    0    0  0.55347211433E-01 -0.10333805970E+00 -0.49318136388E-01  0.12882213290E+00  0.20513287168E-01 0.  0.
         14    1    1    2    0    0  0.59056394504E-02 -0.21752123767E-01  0.47817310264E-02  0.23041189581E-01  0.00000000000E+00 0.  1.
     999901    1    3    3    0    0 -0.61252850883E-01  0.12509018347E+00  0.44536405361E-01  0.89206667752E+00  0.88000000000E+00 0.  1.
        -11    1    4    4    0    0  0.17668678789E-01 -0.32685310575E-01 -0.55601256701E-02  0.37572434789E-01  0.51100000000E-03 0.  1.
         11    1    4    4    0    0  0.37678532644E-01 -0.70652749130E-01 -0.43758010717E-01  0.91249698108E-01  0.51100000000E-03 0. -1.
</event>
<event>
 8    1  0.1084146E+005  0.1043930E+01  0.7957747E-01            NaN
         13   -1    0    0    0    0  0.00000000000E+00  0.00000000000E+00  0.74505805969E-08  0.10566000000E+00  0.10566000000E+00 0.  1.
     999900   -1    0    0    0    0 -0.00000000000E+00 -0.00000000000E+00 -0.74505805969E-08  0.93827000000E+00  0.93827000000E+00 0.  1.
     999902    2    1    2    0    0  0.11847059839E-01 -0.16414469999E-01  0.12274957294E-01  0.10202559165E+01  0.10199812121E+01 0.  0.
     999903    2    3    3    0    0  0.27752292042E-01 -0.88117472951E-01  0.94208689189E-01  0.13340337327E+00  0.19654621032E-01 0.  0.
         14    1    1    2    0    0 -0.11847059839E-01  0.16414469999E-01 -0.12274957294E-01  0.23674083483E-01  0.00000000000E+00 0. -1.
     999901    1    3    3    0    0 -0.15905232203E-01  0.71703002952E-01 -0.81933731895E-01  0.88685254325E+00  0.88000000000E+00 0.  1.
        -11    1    4    4    0    0  0.35643401006E-02 -0.40471553275E-01  0.34789942140E-01  0.53490675262E-01  0.51100000000E-03 0. -1.
         11    1    4    4    0    0  0.24187951941E-01 -0.47645919676E-01  0.59418747049E-01  0.79912698007E-01  0.51100000000E-03 0.  1.
</event>
<event>
 8    1  0.1084146E+005  0.1043930E+01  0.7957747E-01            NaN
         13   -1    0    0    0    0  0.00000000000E+00  0.00000000000E+00  0.74505805969E-08  0.10566000000E+00  0.10566000000E+00 0.  1.
     999900   -1    0    0    0    0 -0.00000000000E+00 -0.00000000000E+00 -0.74505805969E-08  0.93827000000E+00  0.93827000000E+00 0. -1.
     999902    2    1    2    0    0 -0.33208001767E-02 -0.99683627987E-02 -0.20959862530E-01  0.10204840663E+01  0.10202146920E+01 0.  0.
     999903    2    3    3    0    0 -0.85112863907E-01 -0.18111016910E-01 -0.98594833155E-01  0.13325048195E+00  0.21506772852E-01 0.  0.
         14    1    1    2    0    0  0.33208001767E-02  0.99683627987E-02  0.20959862530E-01  0.23445933719E-01  0.00000000000E+00 0. -1.
     999901    1    3    3    0    0  0.81792063730E-01  0.81426541111E-02  0.77634970625E-01  0.88723358433E+00  0.88000000000E+00 0.  1.
        -11    1    4    4    0    0 -0.69215475025E-01 -0.20410713130E-01 -0.88819024879E-01  0.11443976361E+00  0.51100000000E-03 0.  1.
         11    1    4    4    0    0 -0.15897388882E-01  0.22996962205E-02 -0.97758082759E-02  0.18810718339E-01  0.51100000000E-03 0. -1.
</event>
<event>
 8    1  0.1084146E+005  0.1043930E+01  0.7957747E-01            NaN
         13   -1    0    0    0    0  0.00000000000E+00  0.00000000000E+00  0.74505805969E-08  0.10566000000E+00  0.10566000000E+00 0. -1.
     999900   -1    0    0    0    0 -0.00000000000E+00 -0.00000000000E+00 -0.74505805969E-08  0.93827000000E+00  0.93827000000E+00 0.  1.
     999902    2    1    2    0    0 -0.63528254473E-02  0.58117260573E-02 -0.22715874151E-01  0.10196370897E+01  0.10193476587E+01 0.  0.
     999903    2    3    3    0    0  0.20578130848E-03  0.76818899449E-01  0.10056014796E+00  0.12818770159E+00  0.20458685714E-01 0.  0.
         14    1    1    2    0    0  0.63528254473E-02 -0.58117260573E-02  0.22715874151E-01  0.24292910270E-01  0.00000000000E+00 0. -1.
     999901    1    3    3    0    0 -0.65586067558E-02 -0.71007173392E-01 -0.12327602211E+00  0.89144938814E+00  0.88000000000E+00 0.  1.
        -11    1    4    4    0    0  0.69485546963E-02  0.62326942533E-01  0.86828849183E-01  0.10710947834E+00  0.51100000000E-03 0. -1.
         11    1    4    4    0    0 -0.67427733878E-02  0.14491956916E-01  0.13731298779E-01  0.21078223250E-01  0.51100000000E-03 0.  1.
</event>
<event>
 8    1  0.1084146E+005  0.1043930E+01  0.7957747E-01            NaN
         13   -1    0    0    0    0  0.00000000000E+00  0.00000000000E+00  0.74505805969E-08  0.10566000000E+00  0.10566000000E+00 0.  1.
     999900   -1    0    0    0    0 -0.00000000000E+00 -0.00000000000E+00 -0.74505805969E-08  0.93827000000E+00  0.93827000000E+00 0. -1.
     999902    2    1    2    0    0 -0.22049930222E-01 -0.12056002024E-01 -0.40858159014E-02  0.10184694325E+01  0.10181511402E+01 0.  0.
     999903    2    3    3    0    0  0.25866301929E-01  0.81335495299E-01 -0.92936718716E-01  0.12778855807E+00  0.20202809657E-01 0.  0.
         14    1    1    2    0    0  0.22049930222E-01  0.12056002024E-01  0.40858159014E-02  0.25460567534E-01  0.00000000000E+00 0. -1.
     999901    1    3    3    0    0 -0.47916232150E-01 -0.93391497323E-01  0.88850902815E-01  0.89068087439E+00  0.88000000000E+00 0.  1.
        -11    1    4    4    0    0  0.76292345488E-02  0.54427878430E-01 -0.62860174016E-01  0.83500070470E-01  0.51100000000E-03 0. -1.
         11    1    4    4    0    0  0.18237067380E-01  0.26907616869E-01 -0.30076544701E-01  0.44288487605E-01  0.51100000000E-03 0.  1.
</event>
<event>
 8    1  0.1084146E+005  0.1043930E+01  0.7957747E-01            NaN
         13   -1    0    0    0    0  0.00000000000E+00  0.00000000000E+00  0.74505805969E-08  0.10566000000E+00  0.10566000000E+00 0. -1.
     999900   -1    0    0    0    0 -0.00000000000E+00 -0.00000000000E+00 -0.74505805969E-08  0.93827000000E+00  0.93827000000E+00 0.  1.
     999902    2    1    2    0    0 -0.84567396734E-02  0.10506729590E-01  0.90012207497E-02  0.10277148901E+01  0.10275869626E+01 0.  0.
     999903    2    3    3    0    0  0.53029583888E-02  0.68661700436E-01  0.11888039783E+00  0.13887026735E+00  0.20244794164E-01 0.  0.
         14    1    1    2    0    0  0.84567396734E-02 -0.10506729590E-01 -0.90012207497E-02  0.16215109854E-01  0.00000000000E+00 0.  1.
     999901    1    3    3    0    0 -0.13759698062E-01 -0.58154970845E-01 -0.10987917708E+00  0.88884462280E+00  0.88000000000E+00 0.  1.
        -11    1    4    4    0    0  0.21223994268E-02  0.30244389186E-01  0.33476881905E-01  0.45168466873E-01  0.51100000000E-03 0.  1.
         11    1    4    4    0    0  0.31805589621E-02  0.38417311249E-01  0.85403515923E-01  0.93701800474E-01  0.51100000000E-03 0. -1.
</event>
<event>
 8    1  0.1084146E+005  0.1043930E+01  0.7957747E-01            NaN
         13   -1    0    0    0    0  0.00000000000E+00  0.00000000000E+00  0.74505805969E-08  0.10566000000E+00  0.10566000000E+00 0.  1.
     999900   -1    0    0    0    0 -0.00000000000E+00 -0.00000000000E+00 -0.74505805969E-08  0.93827000000E+00  0.93827000000E+00 0.  1.
     999902    2    1    2    0    0  0.73465057618E-02 -0.10210638825E-01 -0.20192097904E-01  0.10201403151E+01  0.10198628895E+01 0.  0.
     999903    2    3    3    0    0 -0.12596079884E+00  0.20225008209E-01 -0.10427975871E-01  0.12952676017E+00  0.19830913175E-01 0.  0.
         14    1    1    2    0    0 -0.73465057618E-02  0.10210638825E-01  0.20192097904E-01  0.23789684947E-01  0.00000000000E+00 0.  1.
     999901    1    3    3    0    0  0.13330730460E+00 -0.30435647034E-01 -0.97641220326E-02  0.89061355489E+00  0.88000000000E+00 0. -1.
        -11    1    4    4    0    0 -0.22406014320E-01 -0.38248111183E-02 -0.33249009400E-02  0.22977701039E-01  0.51100000000E-03 0.  1.
         11    1    4    4    0    0 -0.10355478452E+00  0.24049819328E-01 -0.71030749312E-02  0.10654905913E+00  0.51100000000E-03 0. -1.
</event>
<event>
 8    1  0.1084146E+005  0.1043930E+01  0.7957747E-01            NaN
         13   -1    0    0    0    0  0.00000000000E+00  0.00000000000E+00  0.74505805969E-08  0.10566000000E+00  0.10566000000E+00 0. -1.
     999900   -1    0    0    0    0 -0.00000000000E+00 -0.00000000000E+00 -0.74505805969E-08  0.93827000000E+00  0.93827000000E+00 0.  1.
     999902    2    1    2    0    0  0.58953736603E-02 -0.18885742338E-01  0.13324656728E-01  0.10200768415E+01  0.10197979159E+01 0.  0.
     999903    2    3    3    0    0  0.31318603282E-01 -0.12613756511E+00  0.21291479065E-01  0.13316491556E+00  0.19698411357E-01 0.  0.
         14    1    1    2    0    0 -0.58953736603E-02  0.18885742338E-01 -0.13324656728E-01  0.23853158516E-01  0.00000000000E+00 0.  1.
     999901    1    3    3    0    0 -0.25423229622E-01  0.10725182278E+00 -0.79668223373E-02  0.88691192593E+00  0.88000000000E+00 0.  1.
        -11    1    4    4    0    0  0.68088979690E-02 -0.58858016481E-01  0.33642341764E-02  0.59348179317E-01  0.51100000000E-03 0. -1.
         11    1    4    4    0    0  0.24509705313E-01 -0.67279548634E-01  0.17927244889E-01  0.73816736241E-01  0.51100000000E-03 0.  1.
</event>
<event>
 8    1  0.1084146E+005  0.1043930E+01  0.7957747E-01            NaN
         13   -1    0    0    0    0  0.00000000000E+00  0.00000000000E+00  0.74505805969E-08  0.10566000000E+00  0.10566000000E+00 0. -1.
     999900   -1    0    0    0    0 -0.00000000000E+00 -0.00000000000E+00 -0.74505805969E-08  0.93827000000E+00  0.93827000000E+00 0. -1.
     999902    2    1    2    0    0 -0.17127951561E-01  0.16718045333E-01  0.10438335458E-01  0.10178183434E+01  0.10174833470E+01 0.  0.
     999903    2    3    3    0    0 -0.11835781985E+00  0.52067786232E-01 -0.10183836894E-02  0.13123594629E+00  0.22410011352E-01 0.  0.
         14    1    1    2    0    0  0.17127951561E-01 -0.16718045333E-01 -0.10438335458E-01  0.26111656622E-01  0.00000000000E+00 0.  1.
     999901    1    3    3    0    0  0.10122986829E+00 -0.35349740899E-01  0.11456719147E-01  0.88658239709E+00  0.88000000000E+00 0. -1.
        -11    1    4    4    0    0 -0.67115895380E-01  0.30437193981E-01  0.10477010694E-01  0.74437860422E-01  0.51100000000E-03 0. -1.
         11    1    4    4    0    0 -0.51241924475E-01  0.21630592251E-01 -0.11495394383E-01  0.56798085866E-01  0.51100000000E-03 0.  1.
</event>
<event>
 8    1  0.1084146E+005  0.1043930E+01  0.7957747E-01            NaN
         13   -1    0    0    0    0  0.00000000000E+00  0.00000000000E+00  0.74505805969E-08  0.10566000000E+00  0.10566000000E+00 0. -1.
     999900   -1    0    0    0    0 -0.00000000000E+00 -0.00000000000E+00 -0.74505805969E-08  0.93827000000E+00  0.93827000000E+00 0.  1.
     999902    2    1    2    0    0 -0.17639181980E-01 -0.15377233982E-01 -0.24181404967E-02  0.10204045357E+01  0.10201333095E+01 0.  0.
     999903    2    3    3    0    0  0.31812256860E-01  0.97040584322E-01  0.76109972540E-01  0.12841245324E+00  0.16374844602E-01 0.  0.
         14    1    1    2    0    0  0.17639181980E-01  0.15377233982E-01  0.24181404967E-02  0.23525464274E-01  0.00000000000E+00 0.  1.
     999901    1    3    3    0    0 -0.49451438840E-01 -0.11241781830E+00 -0.78528113036E-01  0.89199208248E+00  0.88000000000E+00 0.  1.
        -11    1    4    4    0    0  0.25769992705E-01  0.90014287117E-01  0.65239454847E-01  0.11411885032E+00  0.51100000000E-03 0. -1.
         11    1    4    4    0    0  0.60422641552E-02  0.70262972050E-02  0.10870517693E-01  0.14293602920E-01  0.51100000000E-03 0.  1.
</event>
<event>
 8    1  0.1084146E+005  0.1043930E+01  0.7957747E-01            NaN
         13   -1    0    0    0    0  0.00000000000E+00  0.00000000000E+00  0.74505805969E-08  0.10566000000E+00  0.10566000000E+00 0. -1.
     999900   -1    0    0    0    0 -0.00000000000E+00 -0.00000000000E+00 -0.74505805969E-08  0.93827000000E+00  0.93827000000E+00 0. -1.
     999902    2    1    2    0    0 -0.61234782296E-02  0.22522229399E-01 -0.15764260698E-03  0.10205896347E+01  0.10203227086E+01 0.  0.
     999903    2    3    3    0    0  0.75755413820E-01 -0.50377102256E-01 -0.89712813785E-01  0.12927678600E+00  0.19681546829E-01 0.  0.
         14    1    1    2    0    0  0.61234782296E-02 -0.22522229399E-01  0.15764260698E-03  0.23340365334E-01  0.00000000000E+00 0.  1.
     999901    1    3    3    0    0 -0.81878892050E-01  0.72899331655E-01  0.89555171178E-01  0.89131284867E+00  0.88000000000E+00 0.  1.
        -11    1    4    4    0    0  0.49282156970E-01 -0.39960335496E-01 -0.52007671531E-01  0.82040346340E-01  0.51100000000E-03 0. -1.
         11    1    4    4    0    0  0.26473256850E-01 -0.10416766760E-01 -0.37705142254E-01  0.47236439656E-01  0.51100000000E-03 0.  1.
</event>
<event>
 8    1  0.1084146E+005  0.1043930E+01  0.7957747E-01            NaN
         13   -1    0    0    0    0  0.00000000000E+00  0.00000000000E+00  0.74505805969E-08  0.10566000000E+00  0.10566000000E+00 0.  1.
     999900   -1    0    0    0    0 -0.00000000000E+00 -0.00000000000E+00 -0.74505805969E-08  0.93827000000E+00  0.93827000000E+00 0. -1.
     999902    2    1    2    0    0 -0.45119679451E-02 -0.11428240569E-01 -0.20225862218E-01  0.10202646659E+01  0.10199901668E+01 0.  0.
     999903    2    3    3    0    0 -0.71732054559E-01 -0.57323701092E-01  0.89383613604E-01  0.12973719828E+00  0.20268593378E-01 0.  0.
         14    1    1    2    0    0  0.45119679451E-02  0.11428240569E-01  0.20225862218E-01  0.23665334135E-01  0.00000000000E+00 0.  1.
     999901    1    3    3    0    0  0.67220086614E-01  0.45895460524E-01 -0.10960947582E+00  0.89052746759E+00  0.88000000000E+00 0. -1.
        -11    1    4    4    0    0 -0.27946314423E-01 -0.33559826734E-01  0.34879578929E-01  0.55893690229E-01  0.51100000000E-03 0. -1.
         11    1    4    4    0    0 -0.43785740136E-01 -0.23763874358E-01  0.54504034675E-01  0.73843508047E-01  0.51100000000E-03 0.  1.
</event>
<event>
 8    1  0.1084146E+005  0.1043930E+01  0.7957747E-01            NaN
         13   -1    0    0    0    0  0.00000000000E+00  0.00000000000E+00  0.74505805969E-08  0.10566000000E+00  0.10566000000E+00 0.  1.
     999900   -1    0    0    0    0 -0.00000000000E+00 -0.00000000000E+00 -0.74505805969E-08  0.93827000000E+00  0.93827000000E+00 0. -1.
     999902    2    1    2    0    0 -0.17922078352E-03  0.22936156181E-01 -0.47980557095E-02  0.10204966750E+01  0.10202275937E+01 0.  0.
     999903    2    3    3    0    0 -0.11095291310E+00  0.22511402687E-01 -0.64275639847E-01  0.13155990881E+00  0.18956253672E-01 0.  0.
         14    1    1    2    0    0  0.17922078352E-03 -0.22936156181E-01  0.47980557095E-02  0.23433324967E-01  0.00000000000E+00 0.  1.
     999901    1    3    3    0    0  0.11077369231E+00  0.42475349370E-03  0.59477584138E-01  0.88893676622E+00  0.88000000000E+00 0.  1.
        -11    1    4    4    0    0 -0.25761281700E-01  0.25255722583E-02 -0.64741711839E-02  0.26687041117E-01  0.51100000000E-03 0. -1.
         11    1    4    4    0    0 -0.85191631397E-01  0.19985830429E-01 -0.57801468663E-01  0.10487286770E+00  0.51100000000E-03 0.  1.
</event>
<event>
 7    1  0.2523134E+005  0.1043930E+01  0.7957747E-01            NaN
         13   -1    0    0    0    0  0.00000000000E+00  0.00000000000E+00  0.74505805969E-08  0.10566000000E+00  0.10566000000E+00 0.  1.
     999900   -1    0    0    0    0 -0.00000000000E+00 -0.00000000000E+00 -0.74505805969E-08  0.93827000000E+00  0.93827000000E+00 0.  1.
     999903    2    1    2    0    0  0.45273178853E-01 -0.70083782623E-01  0.58593058330E-01  0.10388313686E+00  0.19928931978E-01 0.  0.
         14    1    1    2    0    0 -0.27009122840E-01 -0.30365715390E-01  0.28850565434E-01  0.49838985881E-01  0.00000000000E+00 0. -1.
     999901    1    1    2    0    0 -0.18264056013E-01  0.10044949801E+00 -0.87443623764E-01  0.89020787726E+00  0.88000000000E+00 0.  1.
        -11    1    3    3    0    0  0.25797206590E-01 -0.33750040902E-01  0.41058914013E-01  0.59081779506E-01  0.51100000000E-03 0. -1.
         11    1    3    3    0    0  0.19475972264E-01 -0.36333741721E-01  0.17534144317E-01  0.44801357357E-01  0.51100000000E-03 0.  1.
</event>
<event>
 8    1  0.1084146E+005  0.1043930E+01  0.7957747E-01            NaN
         13   -1    0    0    0    0  0.00000000000E+00  0.00000000000E+00  0.74505805969E-08  0.10566000000E+00  0.10566000000E+00 0.  1.
     999900   -1    0    0    0    0 -0.00000000000E+00 -0.00000000000E+00 -0.74505805969E-08  0.93827000000E+00  0.93827000000E+00 0.  1.
     999902    2    1    2    0    0 -0.21541493779E-01  0.22407965509E-02  0.95491063929E-02  0.10202605565E+01  0.10199859610E+01 0.  0.
     999903    2    3    3    0    0  0.11286705272E+00 -0.52087581858E-01 -0.22130039498E-01  0.12783644298E+00  0.20008241641E-01 0.  0.
         14    1    1    2    0    0  0.21541493779E-01 -0.22407965509E-02 -0.95491063929E-02  0.23669443515E-01  0.00000000000E+00 0. -1.
     999901    1    3    3    0    0 -0.13440854650E+00  0.54328378408E-01  0.31679145891E-01  0.89242411350E+00  0.88000000000E+00 0. -1.
        -11    1    4    4    0    0  0.46624137228E-01 -0.27416510489E-01 -0.11624991927E-02  0.54102566899E-01  0.51100000000E-03 0.  1.
         11    1    4    4    0    0  0.66242915491E-01 -0.24671071369E-01 -0.20967540306E-01  0.73733876086E-01  0.51100000000E-03 0. -1.
</event>
<event>
 8    1  0.1084146E+005  0.1043930E+01  0.7957747E-01            NaN
         13   -1    0    0    0    0  0.00000000000E+00  0.00000000000E+00  0.74505805969E-08  0.10566000000E+00  0.10566000000E+00 0.  1.
     999900   -1    0    0    0    0 -0.00000000000E+00 -0.00000000000E+00 -0.74505805969E-08  0.93827000000E+00  0.93827000000E+00 0.  1.
     999902    2    1    2    0    0 -0.13726863542E-01 -0.46400384576E-02  0.21008107191E-01  0.10184094728E+01  0.10180896606E+01 0.  0.
     999903    2    3    3    0    0  0.15937466307E-02  0.11423403709E+00 -0.53625773678E-01  0.12715418779E+00  0.15508340070E-01 0.  0.
         14    1    1    2    0    0  0.13726863542E-01  0.46400384576E-02 -0.21008107191E-01  0.25520527176E-01  0.00000000000E+00 0. -1.
     999901    1    3    3    0    0 -0.15320610173E-01 -0.11887407554E+00  0.74633880870E-01  0.89125528504E+00  0.88000000000E+00 0. -1.
        -11    1    4    4    0    0  0.25016138640E-02  0.28607702055E-01 -0.20727042818E-01  0.35419346603E-01  0.51100000000E-03 0. -1.
         11    1    4    4    0    0 -0.90786723331E-03  0.85626335032E-01 -0.32898730860E-01  0.91734841184E-01  0.51100000000E-03 0.  1.
</event>
<event>
 8    1  0.1084146E+005  0.1043930E+01  0.7957747E-01            NaN
         13   -1    0    0    0    0  0.00000000000E+00  0.00000000000E+00  0.74505805969E-08  0.10566000000E+00  0.10566000000E+00 0. -1.
     999900   -1    0    0    0    0 -0.00000000000E+00 -0.00000000000E+00 -0.74505805969E-08  0.93827000000E+00  0.93827000000E+00 0.  1.
     999902    2    1    2    0    0  0.15301014222E-01 -0.15802376771E-01 -0.78067014925E-02  0.10205894615E+01  0.10203225315E+01 0.  0.
     999903    2    3    3    0    0 -0.44343943537E-01  0.11794484187E+00  0.13397590507E-01  0.12823557350E+00  0.19684913716E-01 0.  0.
         14    1    1    2    0    0 -0.15301014222E-01  0.15802376771E-01  0.78067014925E-02  0.23340538469E-01  0.00000000000E+00 0.  1.
     999901    1    3    3    0    0  0.59644957759E-01 -0.13374721864E+00 -0.21204292000E-01  0.89235388803E+00  0.88000000000E+00 0.  1.
        -11    1    4    4    0    0 -0.24571915847E-01  0.89409611027E-01  0.76213775292E-02  0.93038723705E-01  0.51100000000E-03 0.  1.
         11    1    4    4    0    0 -0.19772027691E-01  0.28535230843E-01  0.57762129780E-02  0.35196849797E-01  0.51100000000E-03 0. -1.
</event>
<event>
 8    1  0.1084146E+005  0.1043930E+01  0.7957747E-01            NaN
         13   -1    0    0    0    0  0.00000000000E+00  0.00000000000E+00  0.74505805969E-08  0.10566000000E+00  0.10566000000E+00 0.  1.
     999900   -1    0    0    0    0 -0.00000000000E+00 -0.00000000000E+00 -0.74505805969E-08  0.93827000000E+00  0.93827000000E+00 0.  1.
     999902    2    1    2    0    0 -0.21126113221E-01 -0.17220868016E-03 -0.10266615763E-01  0.10204407319E+01  0.10201703493E+01 0.  0.
     999903    2    3    3    0    0  0.81259980853E-01 -0.69959329504E-01 -0.70313130253E-01  0.12973385623E+00  0.19734358223E-01 0.  0.
         14    1    1    2    0    0  0.21126113221E-01  0.17220868016E-03  0.10266615763E-01  0.23489268079E-01  0.00000000000E+00 0.  1.
     999901    1    3    3    0    0 -0.10238609407E+00  0.69787120824E-01  0.60046514490E-01  0.89070687569E+00  0.88000000000E+00 0. -1.
        -11    1    4    4    0    0  0.51169262350E-01 -0.51136766077E-01 -0.55895084834E-01  0.91420916009E-01  0.51100000000E-03 0.  1.
         11    1    4    4    0    0  0.30090718504E-01 -0.18822563426E-01 -0.14418045419E-01  0.38312940226E-01  0.51100000000E-03 0. -1.
</event>
<event>
 8    1  0.1084146E+005  0.1043930E+01  0.7957747E-01            NaN
         13   -1    0    0    0    0  0.00000000000E+00  0.00000000000E+00  0.74505805969E-08  0.10566000000E+00  0.10566000000E+00 0. -1.
     999900   -1    0    0    0    0 -0.00000000000E+00 -0.00000000000E+00 -0.74505805969E-08  0.93827000000E+00  0.93827000000E+00 0. -1.
     999902    2    1    2    0    0 -0.15078019055E-01  0.18032922461E-01 -0.51593661905E-02  0.10198644227E+01  0.10195804474E+01 0.  0.
     999903    2    3    3    0    0  0.14178189788E-01  0.12131340882E+00  0.45501675174E-01  0.13189520830E+00  0.20198497585E-01 0.  0.
         14    1    1    2    0    0  0.15078019055E-01 -0.18032922461E-01  0.51593661905E-02  0.24065577296E-01  0.00000000000E+00 0. -1.
     999901    1    3    3    0    0 -0.29256208843E-01 -0.10328048635E+00 -0.50661041365E-01  0.88796921440E+00  0.88000000000E+00 0. -1.
        -11    1    4    4    0    0  0.50341741346E-02  0.38060287751E-01  0.24503072968E-01  0.45547668643E-01  0.51100000000E-03 0.  1.
         11    1    4    4    0    0  0.91440156534E-02  0.83253121064E-01  0.20998602206E-01  0.86347539657E-01  0.51100000000E-03 0. -1.
</event>
<event>
 8    1  0.1084146E+005  0.1043930E+01  0.7957747E-01            NaN
         13   -1    0    0    0    0  0.00000000000E+00  0.00000000000E+00  0.74505805969E-08  0.10566000000E+00  0.10566000000E+00 0.  1.
     999900   -1    0    0    0    0 -0.00000000000E+00 -0.00000000000E+00 -0.74505805969E-08  0.93827000000E+00  0.93827000000E+00 0. -1.
     999902    2    1    2    0    0 -0.21098569794E-01 -0.90599521613E-03  0.10507916851E-01  0.10203421474E+01  0.10200694638E+01 0.  0.
     999903    2    3    3    0    0 -0.12225819378E+00  0.35430891092E-01 -0.32177553046E-01  0.13277486082E+00  0.19782688260E-01 0.  0.
         14    1    1    2    0    0  0.21098569794E-01  0.90599521613E-03 -0.10507916851E-01  0.23587852620E-01  0.00000000000E+00 0. -1.
     999901    1    3    3    0    0  0.10115962399E+00 -0.36336886308E-01  0.42685469896E-01  0.88756728656E+00  0.88000000000E+00 0.  1.
        -11    1    4    4    0    0 -0.48170121823E-01  0.41062645732E-02 -0.10702396848E-01  0.49517920640E-01  0.51100000000E-03 0. -1.
         11    1    4    4    0    0 -0.74088071960E-01  0.31324626518E-01 -0.21475156197E-01  0.83256940179E-01  0.51100000000E-03 0.  1.
</event>
<event>
 8    1  0.1084146E+005  0.1043930E+01  0.7957747E-01            NaN
         13   -1    0    0    0    0  0.00000000000E+00  0.00000000000E+00  0.74505805969E-08  0.10566000000E+00  0.10566000000E+00 0.  1.
     999900   -1    0    0    0    0 -0.00000000000E+00 -0.00000000000E+00 -0.74505805969E-08  0.93827000000E+00  0.93827000000E+00 0. -1.
     999902    2    1    2    0    0  0.10711841033E-01 -0.55543173578E-02  0.20583971178E-01  0.10200701205E+01  0.10197910359E+01 0.  0.
     999903    2    3    3    0    0  0.12794012931E+00 -0.23187875068E-01  0.55765576405E-02  0.13199431497E+00  0.22023781511E-01 0.  0.
         14    1    1    2    0    0 -0.10711841033E-01  0.55543173578E-02 -0.20583971178E-01  0.23859879486E-01  0.00000000000E+00 0. -1.
     999901    1    3    3    0    0 -0.11722828828E+00  0.17633557710E-01  0.15007413537E-01  0.88807580554E+00  0.88000000000E+00 0.  1.
        -11    1    4    4    0    0  0.95064412297E-01 -0.97503439326E-02 -0.23814500075E-02  0.95594163615E-01  0.51100000000E-03 0. -1.
         11    1    4    4    0    0  0.32875717012E-01 -0.13437531135E-01  0.79580076480E-02  0.36400151357E-01  0.51100000000E-03 0.  1.
</event>
<event>
 8    1  0.1084146E+005  0.1043930E+01  0.7957747E-01            NaN
         13   -1    0    0    0    0  0.00000000000E+00  0.00000000000E+00  0.74505805969E-08  0.10566000000E+00  0.10566000000E+00 0.  1.
     999900   -1    0    0    0    0 -0.00000000000E+00 -0.00000000000E+00 -0.74505805969E-08  0.93827000000E+00  0.93827000000E+00 0.  1.
     999902    2    1    2    0    0  0.87188292678E-02 -0.19639819156E-01 -0.10734121834E-01  0.10199099698E+01  0.10196270811E+01 0.  0.
     999903    2    3    3    0    0  0.20230778603E-01 -0.12716666205E+00  0.23713074406E-01  0.13262131537E+00  0.21105900857E-01 0.  0.
         14    1    1    2    0    0 -0.87188292678E-02  0.19639819156E-01  0.10734121834E-01  0.24020030221E-01  0.00000000000E+00 0.  1.
     999901    1    3    3    0    0 -0.11511949336E-01  0.10752684290E+00 -0.34447196239E-01  0.88728865441E+00  0.88000000000E+00 0.  1.
        -11    1    4    4    0    0  0.16749706628E-01 -0.48698651566E-01  0.14706306132E-01  0.53559760059E-01  0.51100000000E-03 0.  1.
         11    1    4    4    0    0  0.34810719753E-02 -0.78468010487E-01  0.90067682740E-02  0.79061555308E-01  0.51100000000E-03 0. -1.
</event>
<event>
 8    1  0.1084146E+005  0.1043930E+01  0.7957747E-01            NaN
         13   -1    0    0    0    0  0.00000000000E+00  0.00000000000E+00  0.74505805969E-08  0.10566000000E+00  0.10566000000E+00 0. -1.
     999900   -1    0    0    0    0 -0.00000000000E+00 -0.00000000000E+00 -0.74505805969E-08  0.93827000000E+00  0.93827000000E+00 0.  1.
     999902    2    1    2    0    0  0.16466892463E-01  0.26387200292E-01  0.12155784717E-01  0.10105353000E+01  0.10099833595E+01 0.  0.
     999903    2    3    3    0    0 -0.90101484386E-01 -0.65402709864E-01  0.37182455852E-01  0.11901494643E+00  0.19652747989E-01 0.  0.
         14    1    1    2    0    0 -0.16466892463E-01 -0.26387200292E-01 -0.12155784717E-01  0.33394700010E-01  0.00000000000E+00 0.  1.
     999901    1    3    3    0    0  0.10656837685E+00  0.91789910156E-01 -0.25026671135E-01  0.89152035356E+00  0.88000000000E+00 0. -1.
        -11    1    4    4    0    0 -0.20689948577E-01 -0.24888204085E-01  0.66905830817E-02  0.33053315987E-01  0.51100000000E-03 0. -1.
         11    1    4    4    0    0 -0.69411535809E-01 -0.40514505778E-01  0.30491872771E-01  0.85961630440E-01  0.51100000000E-03 0.  1.
</event>
<event>
 8    1  0.1084146E+005  0.1043930E+01  0.7957747E-01            NaN
         13   -1    0    0    0    0  0.00000000000E+00  0.00000000000E+00  0.74505805969E-08  0.10566000000E+00  0.10566000000E+00 0. -1.
     999900   -1    0    0    0    0 -0.00000000000E+00 -0.00000000000E+00 -0.74505805969E-08  0.93827000000E+00  0.93827000000E+00 0.  1.
     999902    2    1    2    0    0 -0.29220281418E-02 -0.69063442555E-02 -0.22733400171E-01  0.10199916767E+01  0.10197107321E+01 0.  0.
     999903    2    3    3    0    0  0.38110924757E-01 -0.85509052760E-01 -0.92261896969E-01  0.13280719707E+00  0.19006663905E-01 0.  0.
         14    1    1    2    0    0  0.29220281418E-02  0.69063442555E-02  0.22733400171E-01  0.23938323308E-01  0.00000000000E+00 0. -1.
     999901    1    3    3    0    0 -0.41032952899E-01  0.78602708504E-01  0.69528496798E-01  0.88718447962E+00  0.88000000000E+00 0. -1.
        -11    1    4    4    0    0  0.33418312106E-01 -0.60974227236E-01 -0.75932516158E-01  0.10295944882E+00  0.51100000000E-03 0.  1.
         11    1    4    4    0    0  0.46926126517E-02 -0.24534825524E-01 -0.16329380811E-01  0.29847748251E-01  0.51100000000E-03 0. -1.
</event>
<event>
 8    1  0.1084146E+005  0.1043930E+01  0.7957747E-01            NaN
         13   -1    0    0    0    0  0.00000000000E+00  0.00000000000E+00  0.74505805969E-08  0.10566000000E+00  0.10566000000E+00 0.  1.
     999900   -1    0    0    0    0 -0.00000000000E+00 -0.00000000000E+00 -0.74505805969E-08  0.93827000000E+00  0.93827000000E+00 0.  1.
     999902    2    1    2    0    0 -0.77608719932E-03  0.69427625116E-02  0.25560230742E-01  0.10174322707E+01  0.10170871623E+01 0.  0.
     999903    2    3    3    0    0 -0.83850823379E-01 -0.75465458398E-01 -0.53049373230E-01  0.12621288328E+00  0.19734738764E-01 0.  0.
         14    1    1    2    0    0  0.77608719932E-03 -0.69427625116E-02 -0.25560230742E-01  0.26497729303E-01  0.00000000000E+00 0. -1.
     999901    1    3    3    0    0  0.83074736180E-01  0.82408220909E-01  0.78609603972E-01  0.89121938741E+00  0.88000000000E+00 0. -1.
        -11    1    4    4    0    0 -0.62365378907E-01 -0.60370264153E-01 -0.31842100414E-01  0.92456420869E-01  0.51100000000E-03 0. -1.
         11    1    4    4    0    0 -0.21485444472E-01 -0.15095194245E-01 -0.21207272816E-01  0.33756462415E-01  0.51100000000E-03 0.  1.
</event>
<event>
 8    1  0.1084146E+005  0.1043930E+01  0.7957747E-01            NaN
         13   -1    0    0    0    0  0.00000000000E+00  0.00000000000E+00  0.74505805969E-08  0.10566000000E+00  0.10566000000E+00 0.  1.
     999900   -1    0    0    0    0 -0.00000000000E+00 -0.00000000000E+00 -0.74505805969E-08  0.93827000000E+00  0.93827000000E+00 0. -1.
     999902    2    1    2    0    0  0.61080057490E-02  0.95469004019E-02  0.21224368859E-01  0.10198691423E+01  0.10195852796E+01 0.  0.
     999903    2    3    3    0    0 -0.51454112362E-01  0.11768723079E+00  0.19595772590E-01  0.13138144915E+00  0.19475135609E-01 0.  0.
         14    1    1    2    0    0 -0.61080057490E-02 -0.95469004019E-02 -0.21224368859E-01  0.24060857736E-01  0.00000000000E+00 0. -1.
     999901    1    3    3    0    0  0.57562118111E-01 -0.10814033038E+00  0.16285962689E-02  0.88848769312E+00  0.88000000000E+00 0.  1.
        -11    1    4    4    0    0 -0.18482529305E-01  0.29801961694E-01  0.12549515048E-01  0.37249325622E-01  0.51100000000E-03 0. -1.
         11    1    4    4    0    0 -0.32971583057E-01  0.87885269092E-01  0.70462575418E-02  0.94132123524E-01  0.51100000000E-03 0.  1.
</event>
<event>
 8    1  0.1084146E+005  0.1043930E+01  0.7957747E-01            NaN
         13   -1    0    0    0    0  0.00000000000E+00  0.00000000000E+00  0.74505805969E-08  0.10566000000E+00  0.10566000000E+00 0. -1.
     999900   -1    0    0    0    0 -0.00000000000E+00 -0.00000000000E+00 -0.74505805969E-08  0.93827000000E+00  0.93827000000E+00 0. -1.
     999902    2    1    2    0    0 -0.15206574003E-01 -0.17243366274E-01 -0.64763430246E-02  0.10200445108E+01  0.10197648197E+01 0.  0.
     999903    2    3    3    0    0 -0.59834141659E-01 -0.11752981970E+00 -0.33950855266E-02  0.13321956381E+00  0.18507905007E-01 0.  0.
         14    1    1    2    0    0  0.15206574003E-01  0.17243366274E-01  0.64763430246E-02  0.23885489158E-01  0.00000000000E+00 0. -1.
     999901    1    3    3    0    0  0.44627567656E-01  0.10028645343E+00 -0.30812574980E-02  0.88682494704E+00  0.88000000000E+00 0.  1.
        -11    1    4    4    0    0 -0.57403574206E-01 -0.99034255948E-01 -0.17098886393E-02  0.11448204673E+00  0.51100000000E-03 0. -1.
         11    1    4    4    0    0 -0.24305674530E-02 -0.18495563755E-01 -0.16851968872E-02  0.18737517079E-01  0.51100000000E-03 0.  1.
</event>
<event>
 8    1  0.1267104E+005  0.1043930E+01  0.7957747E-01            NaN
         13   -1    0    0    0    0  0.00000000000E+00  0.00000000000E+00  0.74505805969E-08  0.10566000000E+00  0.10566000000E+00 0.  1.
     999900   -1    0    0    0    0 -0.00000000000E+00 -0.00000000000E+00 -0.74505805969E-08  0.93827000000E+00  0.93827000000E+00 0. -1.
     999902    2    1    2    0    0 -0.14714769758E-01  0.20827700877E-01  0.10337146726E-02  0.10184077325E+01  0.10180878761E+01 0.  0.
     999903    2    3    3    0    0 -0.62454343116E-02  0.13410516022E-01 -0.12793563332E+00  0.12893607077E+00  0.61754904576E-02 0.  0.
         14    1    1    2    0    0  0.14714769758E-01 -0.20827700877E-01 -0.10337146726E-02  0.25522267510E-01  0.00000000000E+00 0. -1.
     999901    1    3    3    0    0 -0.84693354465E-02  0.74171848554E-02  0.12896934800E+00  0.88947166172E+00  0.88000000000E+00 0.  1.
        -11    1    4    4    0    0  0.25373302911E-03  0.61646026481E-02 -0.43106139461E-01  0.43548445283E-01  0.51100000000E-03 0. -1.
         11    1    4    4    0    0 -0.64991673407E-02  0.72459133734E-02 -0.84829493864E-01  0.85387625490E-01  0.51100000000E-03 0.  1.
</event>
<event>
 8    1  0.1084146E+005  0.1043930E+01  0.7957747E-01            NaN
         13   -1    0    0    0    0  0.00000000000E+00  0.00000000000E+00  0.74505805969E-08  0.10566000000E+00  0.10566000000E+00 0.  1.
     999900   -1    0    0    0    0 -0.00000000000E+00 -0.00000000000E+00 -0.74505805969E-08  0.93827000000E+00  0.93827000000E+00 0. -1.
     999902    2    1    2    0    0  0.92898588604E-02 -0.19654837335E-01 -0.10154482723E-01  0.10199356751E+01  0.10196533988E+01 0.  0.
     999903    2    3    3    0    0  0.68799216721E-01  0.59822419062E-01  0.88847735823E-01  0.12883554759E+00  0.19814744986E-01 0.  0.
         14    1    1    2    0    0 -0.92898588604E-02  0.19654837335E-01  0.10154482723E-01  0.23994324905E-01  0.00000000000E+00 0. -1.
     999901    1    3    3    0    0 -0.59509357860E-01 -0.79477256397E-01 -0.99002218545E-01  0.89110012750E+00  0.88000000000E+00 0. -1.
        -11    1    4    4    0    0  0.50271027114E-01  0.51766230574E-01  0.61386828101E-01  0.94739234640E-01  0.51100000000E-03 0.  1.
         11    1    4    4    0    0  0.18528189607E-01  0.80561884884E-02  0.27460907721E-01  0.34096312952E-01  0.51100000000E-03 0. -1.
</event>
<event>
 8    1  0.1084146E+005  0.1043930E+01  0.7957747E-01            NaN
         13   -1    0    0    0    0  0.00000000000E+00  0.00000000000E+00  0.74505805969E-08  0.10566000000E+00  0.10566000000E+00 0.  1.
     999900   -1    0    0    0    0 -0.00000000000E+00 -0.00000000000E+00 -0.74505805969E-08  0.93827000000E+00  0.93827000000E+00 0.  1.
     999902    2    1    2    0    0 -0.10273861202E-01  0.26010465792E-01 -0.85693794803E-02  0.10146805416E+01  0.10142588775E+01 0.  0.
     999903    2    3    3    0    0  0.16705873254E-01  0.18005450540E-01 -0.12284171698E+00  0.12684601110E+00  0.19913328516E-01 0.  0.
         14    1    1    2    0    0  0.10273861202E-01 -0.26010465792E-01  0.85693794803E-02  0.29249458446E-01  0.00000000000E+00 0.  1.
     999901    1    3    3    0    0 -0.26979734456E-01  0.80050152523E-02  0.11427233750E+00  0.88783453045E+00  0.88000000000E+00 0. -1.
        -11    1    4    4    0    0  0.20128143877E-01  0.91786025752E-02 -0.84438702468E-01  0.87290002386E-01  0.51100000000E-03 0. -1.
         11    1    4    4    0    0 -0.34222706227E-02  0.88268479644E-02 -0.38403014511E-01  0.39556008719E-01  0.51100000000E-03 0.  1.
</event>
<event>
 8    1  0.1084146E+005  0.1043930E+01  0.7957747E-01            NaN
         13   -1    0    0    0    0  0.00000000000E+00  0.00000000000E+00  0.74505805969E-08  0.10566000000E+00  0.10566000000E+00 0. -1.
     999900   -1    0    0    0    0 -0.00000000000E+00 -0.00000000000E+00 -0.74505805969E-08  0.93827000000E+00  0.93827000000E+00 0.  1.
     999902    2    1    2    0    0 -0.20263325874E-02  0.13632531672E-01  0.19181514534E-01  0.10203104648E+01  0.10200370396E+01 0.  0.
     999903    2    3    3    0    0  0.62285595475E-02  0.12727239045E+00  0.31554520869E-01  0.13287863528E+00  0.20590959222E-01 0.  0.
         14    1    1    2    0    0  0.20263325874E-02 -0.13632531672E-01 -0.19181514534E-01  0.23619535206E-01  0.00000000000E+00 0.  1.
     999901    1    3    3    0    0 -0.82548921349E-02 -0.11363985878E+00 -0.12373006336E-01  0.88743182951E+00  0.88000000000E+00 0. -1.
        -11    1    4    4    0    0  0.78090384042E-02  0.32733062514E-01  0.15166623663E-01  0.36915065443E-01  0.51100000000E-03 0.  1.
         11    1    4    4    0    0 -0.15804788566E-02  0.94539327936E-01  0.16387897207E-01  0.95963569837E-01  0.51100000000E-03 0. -1.
</event>
<event>
 8    1  0.1084146E+005  0.1043930E+01  0.7957747E-01            NaN
         13   -1    0    0    0    0  0.00000000000E+00  0.00000000000E+00  0.74505805969E-08  0.10566000000E+00  0.10566000000E+00 0. -1.
     999900   -1    0    0    0    0 -0.00000000000E+00 -0.00000000000E+00 -0.74505805969E-08  0.93827000000E+00  0.93827000000E+00 0.  1.
     999902    2    1    2    0    0 -0.18396679151E-01  0.28958754016E-03 -0.16048151084E-01  0.10195155613E+01  0.10192231919E+01 0.  0.
     999903    2    3    3    0    0 -0.30979334608E-01 -0.79584021015E-01 -0.98637692251E-01  0.13195759198E+00  0.19750346189E-01 0.  0.
         14    1    1    2    0    0  0.18396679151E-01 -0.28958754016E-03  0.16048151084E-01  0.24414438718E-01  0.00000000000E+00 0. -1.
     999901    1    3    3    0    0  0.12582655458E-01  0.79873608555E-01  0.82589541167E-01  0.88755796930E+00  0.88000000000E+00 0. -1.
        -11    1    4    4    0    0 -0.28868407045E-01 -0.51456641590E-01 -0.60373283288E-01  0.84417802299E-01  0.51100000000E-03 0. -1.
         11    1    4    4    0    0 -0.21109275631E-02 -0.28127379425E-01 -0.38264408964E-01  0.47539789680E-01  0.51100000000E-03 0.  1.
</event>
<event>
 8    1  0.1084146E+005  0.1043930E+01  0.7957747E-01            NaN
         13   -1    0    0    0    0  0.00000000000E+00  0.00000000000E+00  0.74505805969E-08  0.10566000000E+00  0.10566000000E+00 0. -1.
     999900   -1    0    0    0    0 -0.00000000000E+00 -0.00000000000E+00 -0.74505805969E-08  0.93827000000E+00  0.93827000000E+00 0. -1.
     999902    2    1    2    0    0 -0.21012218490E-02  0.43505980738E-02 -0.23421065266E-01  0.10200157964E+01  0.10197354244E+01 0.  0.
     999903    2    3    3    0    0 -0.47599359925E-01 -0.11487434619E-01 -0.12235830799E+00  0.13316208699E+00  0.19050607809E-01 0.  0.
         14    1    1    2    0    0  0.21012218490E-02 -0.43505980738E-02  0.23421065266E-01  0.23914203625E-01  0.00000000000E+00 0. -1.
     999901    1    3    3    0    0  0.45498138076E-01  0.15838032693E-01  0.98937242727E-01  0.88685370938E+00  0.88000000000E+00 0.  1.
        -11    1    4    4    0    0 -0.62539030898E-02 -0.81130082676E-02 -0.34669254969E-01  0.36154537310E-01  0.51100000000E-03 0.  1.
         11    1    4    4    0    0 -0.41345456835E-01 -0.33744263512E-02 -0.87689053023E-01  0.97007549681E-01  0.51100000000E-03 0. -1.
</event>
<event>
 8    1  0.1084146E+005  0.1043930E+01  0.7957747E-01            NaN
         13   -1    0    0    0    0  0.00000000000E+00  0.00000000000E+00  0.74505805969E-08  0.10566000000E+00  0.10566000000E+00 0.  1.
     999900   -1    0    0    0    0 -0.00000000000E+00 -0.00000000000E+00 -0.74505805969E-08  0.93827000000E+00  0.93827000000E+00 0. -1.
     999902    2    1    2    0    0  0.23083988587E-01 -0.10333114742E-02 -0.60920617705E-02  0.10200333166E+01  0.10197533601E+01 0.  0.
     999903    2    3    3    0    0  0.12936596308E+00  0.85647642424E-02  0.22722759005E-01  0.13311828398E+00  0.19880798877E-01 0.  0.
         14    1    1    2    0    0 -0.23083988587E-01  0.10333114742E-02  0.60920617705E-02  0.23896683416E-01  0.00000000000E+00 0.  1.
     999901    1    3    3    0    0 -0.10628197449E+00 -0.95980757167E-02 -0.28814820776E-01  0.88691503260E+00  0.88000000000E+00 0. -1.
        -11    1    4    4    0    0  0.57734240542E-01 -0.22913658470E-02  0.17966908181E-01  0.60510856869E-01  0.51100000000E-03 0.  1.
         11    1    4    4    0    0  0.71631722535E-01  0.10856130089E-01  0.47558508241E-02  0.72607427113E-01  0.51100000000E-03 0. -1.
</event>
<event>
 8    1  0.1084146E+005  0.1043930E+01  0.7957747E-01            NaN
         13   -1    0    0    0    0  0.00000000000E+00  0.00000000000E+00  0.74505805969E-08  0.10566000000E+00  0.10566000000E+00 0. -1.
     999900   -1    0    0    0    0 -0.00000000000E+00 -0.00000000000E+00 -0.74505805969E-08  0.93827000000E+00  0.93827000000E+00 0. -1.
     999902    2    1    2    0    0  0.22575685965E-01 -0.57716425089E-02 -0.11946587395E-01  0.10177442328E+01  0.10174073073E+01 0.  0.
     999903    2    3    3    0    0  0.53890401382E-01  0.12262326901E-01 -0.11683471383E+00  0.13077898289E+00  0.19956251871E-01 0.  0.
         14    1    1    2    0    0 -0.22575685965E-01  0.57716425089E-02  0.11946587395E-01  0.26185767211E-01  0.00000000000E+00 0. -1.
     999901    1    3    3    0    0 -0.31314715417E-01 -0.18033969410E-01  0.10488812644E+00  0.88696524990E+00  0.88000000000E+00 0.  1.
        -11    1    4    4    0    0  0.11299161336E-01 -0.55132804534E-02 -0.26556138698E-01  0.29386339204E-01  0.51100000000E-03 0. -1.
         11    1    4    4    0    0  0.42591240045E-01  0.17775607354E-01 -0.90278575133E-01  0.10139264369E+00  0.51100000000E-03 0.  1.
</event>
<event>
 8    1  0.1084146E+005  0.1043930E+01  0.7957747E-01            NaN
         13   -1    0    0    0    0  0.00000000000E+00  0.00000000000E+00  0.74505805969E-08  0.10566000000E+00  0.10566000000E+00 0.  1.
     999900   -1    0    0    0    0 -0.00000000000E+00 -0.00000000000E+00 -0.74505805969E-08  0.93827000000E+00  0.93827000000E+00 0.  1.
     999902    2    1    2    0    0 -0.22207581836E-01 -0.41062134943E-02  0.10444163747E-01  0.10190479133E+01  0.10187440952E+01 0.  0.
     999903    2    3    3    0    0 -0.65859966339E-01 -0.55260258704E-01 -0.95608224145E-01  0.13013319527E+00  0.20062019585E-01 0.  0.
         14    1    1    2    0    0  0.22207581836E-01  0.41062134943E-02 -0.10444163747E-01  0.24882086662E-01  0.00000000000E+00 0. -1.
     999901    1    3    3    0    0  0.43652384503E-01  0.51154045210E-01  0.10605238789E+00  0.88891471806E+00  0.88000000000E+00 0. -1.
        -11    1    4    4    0    0 -0.55312369677E-01 -0.51013648063E-01 -0.73086250996E-01  0.10489857832E+00  0.51100000000E-03 0.  1.
         11    1    4    4    0    0 -0.10547596662E-01 -0.42466106416E-02 -0.22521973148E-01  0.25234616953E-01  0.51100000000E-03 0. -1.
</event>
<event>
 8    1  0.1084146E+005  0.1043930E+01  0.7957747E-01            NaN
         13   -1    0    0    0    0  0.00000000000E+00  0.00000000000E+00  0.74505805969E-08  0.10566000000E+00  0.10566000000E+00 0.  1.
     999900   -1    0    0    0    0 -0.00000000000E+00 -0.00000000000E+00 -0.74505805969E-08  0.93827000000E+00  0.93827000000E+00 0. -1.
     999902    2    1    2    0    0 -0.24705474525E-01  0.23338993392E-02 -0.57843616731E-02  0.10184492936E+01  0.10181304913E+01 0.  0.
     999903    2    3    3    0    0  0.89113405015E-01 -0.85933247674E-01  0.18128552378E-01  0.12641921899E+00  0.18095648937E-01 0.  0.
         14    1    1    2    0    0  0.24705474525E-01 -0.23338993392E-02  0.57843616731E-02  0.25480706379E-01  0.00000000000E+00 0. -1.
     999901    1    3    3    0    0 -0.11381887954E+00  0.88267147013E-01 -0.23912914051E-01  0.89203007463E+00  0.88000000000E+00 0. -1.
        -11    1    4    4    0    0  0.35304977215E-01 -0.22497429833E-01  0.42101555428E-02  0.42078050050E-01  0.51100000000E-03 0.  1.
         11    1    4    4    0    0  0.53808427800E-01 -0.63435817840E-01  0.13918396835E-01  0.84341168944E-01  0.51100000000E-03 0. -1.
</event>
<event>
 8    1  0.1084146E+005  0.1043930E+01  0.7957747E-01            NaN
         13   -1    0    0    0    0  0.00000000000E+00  0.00000000000E+00  0.74505805969E-08  0.10566000000E+00  0.10566000000E+00 0. -1.
     999900   -1    0    0    0    0 -0.00000000000E+00 -0.00000000000E+00 -0.74505805969E-08  0.93827000000E+00  0.93827000000E+00 0.  1.
     999902    2    1    2    0    0 -0.67973504811E-02 -0.15551743597E-01 -0.16576352789E-01  0.10202058314E+01  0.10199299497E+01 0.  0.
     999903    2    3    3    0    0 -0.20291706586E-01  0.38278784139E-01  0.11891587702E+00  0.12810832123E+00  0.19842819592E-01 0.  0.
         14    1    1    2    0    0  0.67973504811E-02  0.15551743597E-01  0.16576352789E-01  0.23724168568E-01  0.00000000000E+00 0. -1.
     999901    1    3    3    0    0  0.13494356105E-01 -0.53830527736E-01 -0.13549222981E+00  0.89209751020E+00  0.88000000000E+00 0.  1.
        -11    1    4    4    0    0 -0.30745498185E-02  0.14566343344E-01  0.65579009060E-01  0.67249526134E-01  0.51100000000E-03 0.  1.
         11    1    4    4    0    0 -0.17217156768E-01  0.23712440795E-01  0.53336867964E-01  0.60858795098E-01  0.51100000000E-03 0. -1.
</event>
<event>
 8    1  0.1084146E+005  0.1043930E+01  0.7957747E-01            NaN
         13   -1    0    0    0    0  0.00000000000E+00  0.00000000000E+00  0.74505805969E-08  0.10566000000E+00  0.10566000000E+00 0. -1.
     999900   -1    0    0    0    0 -0.00000000000E+00 -0.00000000000E+00 -0.74505805969E-08  0.93827000000E+00  0.93827000000E+00 0.  1.
     999902    2    1    2    0    0  0.22273260760E-01  0.48395400553E-02  0.76849335598E-02  0.10198763621E+01  0.10195926718E+01 0.  0.
     999903    2    3    3    0    0  0.44188281052E-01 -0.12114878024E+00  0.61136555794E-02  0.13063185473E+00  0.19941753913E-01 0.  0.
         14    1    1    2    0    0 -0.22273260760E-01 -0.48395400553E-02 -0.76849335598E-02  0.24053637908E-01  0.00000000000E+00 0.  1.
     999901    1    3    3    0    0 -0.21915020293E-01  0.12598832029E+00  0.15712779804E-02  0.88924450737E+00  0.88000000000E+00 0. -1.
        -11    1    4    4    0    0 -0.46561118481E-03 -0.15758781734E-01 -0.19151588119E-02  0.15889775008E-01  0.51100000000E-03 0. -1.
         11    1    4    4    0    0  0.44653892237E-01 -0.10538999850E+00  0.80288143913E-02  0.11474207972E+00  0.51100000000E-03 0.  1.
</event>
<event>
 8    1  0.1084146E+005  0.1043930E+01  0.7957747E-01            NaN
         13   -1    0    0    0    0  0.00000000000E+00  0.00000000000E+00  0.74505805969E-08  0.10566000000E+00  0.10566000000E+00 0. -1.
     999900   -1    0    0    0    0 -0.00000000000E+00 -0.00000000000E+00 -0.74505805969E-08  0.93827000000E+00  0.93827000000E+00 0. -1.
     999902    2    1    2    0    0 -0.12099163716E-01 -0.55147249617E-04 -0.20673376269E-01  0.10199762677E+01  0.10196949570E+01 0.  0.
     999903    2    3    3    0    0  0.12374836114E+00 -0.21657566994E-01 -0.23102778748E-01  0.12928714319E+00  0.19967972259E-01 0.  0.
         14    1    1    2    0    0  0.12099163716E-01  0.55147249617E-04  0.20673376269E-01  0.23953732281E-01  0.00000000000E+00 0. -1.
     999901    1    3    3    0    0 -0.13584752486E+00  0.21602419745E-01  0.24294024795E-02  0.89068912452E+00  0.88000000000E+00 0.  1.
        -11    1    4    4    0    0  0.64600349020E-01 -0.12951827026E-02 -0.13230603782E-01  0.65955989790E-01  0.51100000000E-03 0.  1.
         11    1    4    4    0    0  0.59148012121E-01 -0.20362384292E-01 -0.98721749665E-02  0.63331153404E-01  0.51100000000E-03 0. -1.
</event>
<event>
 8    1  0.1084146E+005  0.1043930E+01  0.7957747E-01            NaN
         13   -1    0    0    0    0  0.00000000000E+00  0.00000000000E+00  0.74505805969E-08  0.10566000000E+00  0.10566000000E+00 0. -1.
     999900   -1    0    0    0    0 -0.00000000000E+00 -0.00000000000E+00 -0.74505805969E-08  0.93827000000E+00  0.93827000000E+00 0.  1.
     999902    2    1    2    0    0  0.15578125376E-01 -0.11866868388E-01 -0.12951578345E-01  0.10204514153E+01  0.10201812815E+01 0.  0.
     999903    2    3    3    0    0  0.10195361699E+00 -0.82205203966E-01 -0.16490181735E-01  0.13342225646E+00  0.19425160228E-01 0.  0.
         14    1    1    2    0    0 -0.15578125376E-01  0.11866868388E-01  0.12951578345E-01  0.23478584650E-01  0.00000000000E+00 0.  1.
     999901    1    3    3    0    0 -0.86375491611E-01  0.70338335578E-01  0.35386033902E-02  0.88702915889E+00  0.88000000000E+00 0.  1.
        -11    1    4    4    0    0  0.32536562386E-01 -0.34302175748E-01 -0.12871034738E-01  0.49001957198E-01  0.51100000000E-03 0. -1.
         11    1    4    4    0    0  0.69417054601E-01 -0.47903028218E-01 -0.36191469968E-02  0.84420299264E-01  0.51100000000E-03 0.  1.
</event>
<event>
 8    1  0.1084146E+005  0.1043930E+01  0.7957747E-01            NaN
         13   -1    0    0    0    0  0.00000000000E+00  0.00000000000E+00  0.74505805969E-08  0.10566000000E+00  0.10566000000E+00 0. -1.
     999900   -1    0    0    0    0 -0.00000000000E+00 -0.00000000000E+00 -0.74505805969E-08  0.93827000000E+00  0.93827000000E+00 0.  1.
     999902    2    1    2    0    0 -0.13012242294E-01 -0.45699003687E-02  0.19434591881E-01  0.10200992258E+01  0.10198208297E+01 0.  0.
     999903    2    3    3    0    0 -0.62768628983E-01  0.96383853213E-01 -0.56549113279E-01  0.12968309730E+00  0.19752356044E-01 0.  0.
         14    1    1    2    0    0  0.13012242294E-01  0.45699003687E-02 -0.19434591881E-01  0.23830774232E-01  0.00000000000E+00 0.  1.
     999901    1    3    3    0    0  0.49756386689E-01 -0.10095375358E+00  0.75983705160E-01  0.89041612846E+00  0.88000000000E+00 0. -1.
        -11    1    4    4    0    0 -0.44141316444E-01  0.66578108126E-01 -0.49050881941E-01  0.93740868564E-01  0.51100000000E-03 0.  1.
         11    1    4    4    0    0 -0.18627312539E-01  0.29805745087E-01 -0.74982313383E-02  0.35942228740E-01  0.51100000000E-03 0. -1.
</event>
<event>
 8    1  0.1084146E+005  0.1043930E+01  0.7957747E-01            NaN
         13   -1    0    0    0    0  0.00000000000E+00  0.00000000000E+00  0.74505805969E-08  0.10566000000E+00  0.10566000000E+00 0.  1.
     999900   -1    0    0    0    0 -0.00000000000E+00 -0.00000000000E+00 -0.74505805969E-08  0.93827000000E+00  0.93827000000E+00 0. -1.
     999902    2    1    2    0    0  0.17652618999E-02 -0.86029167017E-02  0.22966618259E-01  0.10193415499E+01  0.10190449467E+01 0.  0.
     999903    2    3    3    0    0 -0.12600640000E+00  0.22636491890E-01  0.95096432348E-02  0.12946369960E+00  0.16744927397E-01 0.  0.
         14    1    1    2    0    0 -0.17652618999E-02  0.86029167017E-02 -0.22966618259E-01  0.24588450126E-01  0.00000000000E+00 0. -1.
     999901    1    3    3    0    0  0.12777166190E+00 -0.31239408591E-01  0.13456975024E-01  0.88987785028E+00  0.88000000000E+00 0.  1.
        -11    1    4    4    0    0 -0.41905947447E-01  0.13699598489E-01 -0.18418299656E-02  0.44129818590E-01  0.51100000000E-03 0.  1.
         11    1    4    4    0    0 -0.84100452552E-01  0.89368934001E-02  0.11351473200E-01  0.85333881009E-01  0.51100000000E-03 0. -1.
</event>
<event>
 8    1  0.1084146E+005  0.1043930E+01  0.7957747E-01            NaN
         13   -1    0    0    0    0  0.00000000000E+00  0.00000000000E+00  0.74505805969E-08  0.10566000000E+00  0.10566000000E+00 0. -1.
     999900   -1    0    0    0    0 -0.00000000000E+00 -0.00000000000E+00 -0.74505805969E-08  0.93827000000E+00  0.93827000000E+00 0.  1.
     999902    2    1    2    0    0 -0.93975928426E-02 -0.16362986856E-01  0.97049078990E-02  0.10227109678E+01  0.10224908197E+01 0.  0.
     999903    2    3    3    0    0  0.48750623196E-01 -0.11890129275E+00  0.34558588241E-01  0.13450320797E+00  0.19562112686E-01 0.  0.
         14    1    1    2    0    0  0.93975928426E-02  0.16362986856E-01 -0.97049078990E-02  0.21219032198E-01  0.00000000000E+00 0.  1.
     999901    1    3    3    0    0 -0.58148216039E-01  0.10253830589E+00 -0.24853680342E-01  0.88820775983E+00  0.88000000000E+00 0.  1.
        -11    1    4    4    0    0  0.38897805729E-01 -0.96647052554E-01  0.35710971514E-01  0.11013276835E+00  0.51100000000E-03 0. -1.
         11    1    4    4    0    0  0.98528174674E-02 -0.22254240196E-01 -0.11523832727E-02  0.24370439613E-01  0.51100000000E-03 0.  1.
</event>
<event>
 8    1  0.1084146E+005  0.1043930E+01  0.7957747E-01            NaN
         13   -1    0    0    0    0  0.00000000000E+00  0.00000000000E+00  0.74505805969E-08  0.10566000000E+00  0.10566000000E+00 0.  1.
     999900   -1    0    0    0    0 -0.00000000000E+00 -0.00000000000E+00 -0.74505805969E-08  0.93827000000E+00  0.93827000000E+00 0. -1.
     999902    2    1    2    0    0  0.26709501550E-03 -0.11498388469E-01 -0.30988693426E-01  0.10108757507E+01  0.10103351919E+01 0.  0.
     999903    2    3    3    0    0  0.67334526275E-01  0.81331417293E-01 -0.59669540730E-01  0.12299174691E+00  0.20439614690E-01 0.  0.
         14    1    1    2    0    0 -0.26709501550E-03  0.11498388469E-01  0.30988693426E-01  0.33054249309E-01  0.00000000000E+00 0.  1.
     999901    1    3    3    0    0 -0.67067431260E-01 -0.92829805762E-01  0.28680847303E-01  0.88788400378E+00  0.88000000000E+00 0. -1.
        -11    1    4    4    0    0  0.49490156106E-01  0.69973721809E-01 -0.53155804085E-01  0.10085334860E+00  0.51100000000E-03 0. -1.
         11    1    4    4    0    0  0.17844370169E-01  0.11357695484E-01 -0.65137366444E-02  0.22138398305E-01  0.51100000000E-03 0.  1.
</event>
<event>
 8    1  0.1084146E+005  0.1043930E+01  0.7957747E-01            NaN
         13   -1    0    0    0    0  0.00000000000E+00  0.00000000000E+00  0.74505805969E-08  0.10566000000E+00  0.10566000000E+00 0. -1.
     999900   -1    0    0    0    0 -0.00000000000E+00 -0.00000000000E+00 -0.74505805969E-08  0.93827000000E+00  0.93827000000E+00 0. -1.
     999902    2    1    2    0    0 -0.12932936434E-01 -0.19444495680E-01  0.48277079439E-03  0.10205722962E+01  0.10203049689E+01 0.  0.
     999903    2    3    3    0    0 -0.97247703402E-02 -0.76220433525E-02  0.12861343726E+00  0.13120874269E+00  0.22839684977E-01 0.  0.
         14    1    1    2    0    0  0.12932936434E-01  0.19444495680E-01 -0.48277079439E-03  0.23357703755E-01  0.00000000000E+00 0. -1.
     999901    1    3    3    0    0 -0.32081660941E-02 -0.11822452328E-01 -0.12813066647E+00  0.88936355356E+00  0.88000000000E+00 0. -1.
        -11    1    4    4    0    0  0.57607733844E-02  0.71161883845E-03  0.12765170252E-01  0.14032234459E-01  0.51100000000E-03 0. -1.
         11    1    4    4    0    0 -0.15485543725E-01 -0.83336621909E-02  0.11584826701E+00  0.11717650823E+00  0.51100000000E-03 0.  1.
</event>
<event>
 8    1  0.1084146E+005  0.1043930E+01  0.7957747E-01            NaN
         13   -1    0    0    0    0  0.00000000000E+00  0.00000000000E+00  0.74505805969E-08  0.10566000000E+00  0.10566000000E+00 0.  1.
     999900   -1    0    0    0    0 -0.00000000000E+00 -0.00000000000E+00 -0.74505805969E-08  0.93827000000E+00  0.93827000000E+00 0. -1.
     999902    2    1    2    0    0  0.68529560100E-02  0.25984047248E-01  0.28815544277E-02  0.10169034006E+01  0.10165441895E+01 0.  0.
     999903    2    3    3    0    0 -0.89204066977E-01  0.16261615752E-01 -0.86765595137E-01  0.12709550633E+00  0.20079679219E-01 0.  0.
         14    1    1    2    0    0 -0.68529560100E-02 -0.25984047248E-01 -0.28815544277E-02  0.27026599367E-01  0.00000000000E+00 0.  1.
     999901    1    3    3    0    0  0.96057022987E-01  0.97224314951E-02  0.89647149564E-01  0.88980789430E+00  0.88000000000E+00 0. -1.
        -11    1    4    4    0    0 -0.66753262584E-01  0.20599679317E-01 -0.62316097802E-01  0.93615714599E-01  0.51100000000E-03 0.  1.
         11    1    4    4    0    0 -0.22450804394E-01 -0.43380635650E-02 -0.24449497334E-01  0.33479791730E-01  0.51100000000E-03 0. -1.
</event>
<event>
 8    1  0.1084146E+005  0.1043930E+01  0.7957747E-01            NaN
         13   -1    0    0    0    0  0.00000000000E+00  0.00000000000E+00  0.74505805969E-08  0.10566000000E+00  0.10566000000E+00 0.  1.
     999900   -1    0    0    0    0 -0.00000000000E+00 -0.00000000000E+00 -0.74505805969E-08  0.93827000000E+00  0.93827000000E+00 0.  1.
     999902    2    1    2    0    0  0.23203483721E-01 -0.34995326230E-02 -0.60644208825E-02  0.10196931358E+01  0.10194050547E+01 0.  0.
     999903    2    3    3    0    0 -0.35491844252E-01 -0.90282870274E-01 -0.82340132543E-01  0.13020200408E+00  0.27604288923E-01 0.  0.
         14    1    1    2    0    0 -0.23203483721E-01  0.34995326230E-02  0.60644208825E-02  0.24236864195E-01  0.00000000000E+00 0. -1.
     999901    1    3    3    0    0  0.58695327973E-01  0.86783337652E-01  0.76275711660E-01  0.88949113172E+00  0.88000000000E+00 0. -1.
        -11    1    4    4    0    0 -0.21787976686E-01 -0.21312666697E-01 -0.22917626218E-01  0.38136916528E-01  0.51100000000E-03 0.  1.
         11    1    4    4    0    0 -0.13703867566E-01 -0.68970203577E-01 -0.59422506325E-01  0.92065087556E-01  0.51100000000E-03 0. -1.
</event>
<event>
 8    1  0.1084146E+005  0.1043930E+01  0.7957747E-01            NaN
         13   -1    0    0    0    0  0.00000000000E+00  0.00000000000E+00  0.74505805969E-08  0.10566000000E+00  0.10566000000E+00 0.  1.
     999900   -1    0    0    0    0 -0.00000000000E+00 -0.00000000000E+00 -0.74505805969E-08  0.93827000000E+00  0.93827000000E+00 0.  1.
     999902    2    1    2    0    0  0.19682538588E-01 -0.21005738795E-02  0.14045923159E-01  0.10196585622E+01  0.10193696487E+01 0.  0.
     999903    2    3    3    0    0 -0.10651554564E+00  0.10267241073E-01  0.69039392360E-01  0.12887059586E+00  0.19753862354E-01 0.  0.
         14    1    1    2    0    0 -0.19682538588E-01  0.21005738795E-02 -0.14045923159E-01  0.24271437808E-01  0.00000000000E+00 0. -1.
     999901    1    3    3    0    0  0.12619808423E+00 -0.12367814952E-01 -0.54993469201E-01  0.89078796633E+00  0.88000000000E+00 0.  1.
        -11    1    4    4    0    0 -0.37191274571E-01  0.62856593458E-02  0.13902794885E-01  0.40202602456E-01  0.51100000000E-03 0.  1.
         11    1    4    4    0    0 -0.69324271066E-01  0.39815817271E-02  0.55136597475E-01  0.88667993402E-01  0.51100000000E-03 0. -1.
</event>
<event>
 8    1  0.1084146E+005  0.1043930E+01  0.7957747E-01            NaN
         13   -1    0    0    0    0  0.00000000000E+00  0.00000000000E+00  0.74505805969E-08  0.10566000000E+00  0.10566000000E+00 0.  1.
     999900   -1    0    0    0    0 -0.00000000000E+00 -0.00000000000E+00 -0.74505805969E-08  0.93827000000E+00  0.93827000000E+00 0.  1.
     999902    2    1    2    0    0  0.17926365443E-01 -0.28823924334E-02 -0.12296492862E-01  0.10220013315E+01  0.10217660472E+01 0.  0.
     999903    2    3    3    0    0  0.40764378971E-01  0.41820765122E-01 -0.11877308868E+00  0.13416282560E+00  0.21952361846E-01 0.  0.
         14    1    1    2    0    0 -0.17926365443E-01  0.28823924334E-02  0.12296492862E-01  0.21928668469E-01  0.00000000000E+00 0.  1.
     999901    1    3    3    0    0 -0.22838013528E-01 -0.44703157555E-01  0.10647659582E+00  0.88783850593E+00  0.88000000000E+00 0.  1.
        -11    1    4    4    0    0  0.45595029519E-02  0.13939089628E-01 -0.16132850897E-01  0.21808651630E-01  0.51100000000E-03 0.  1.
         11    1    4    4    0    0  0.36204876019E-01  0.27881675494E-01 -0.10264023778E+00  0.11235417397E+00  0.51100000000E-03 0. -1.
</event>
<event>
 8    1  0.1084146E+005  0.1043930E+01  0.7957747E-01            NaN
         13   -1    0    0    0    0  0.00000000000E+00  0.00000000000E+00  0.74505805969E-08  0.10566000000E+00  0.10566000000E+00 0.  1.
     999900   -1    0    0    0    0 -0.00000000000E+00 -0.00000000000E+00 -0.74505805969E-08  0.93827000000E+00  0.93827000000E+00 0.  1.
     999902    2    1    2    0    0  0.13385234187E-01 -0.19182883840E-01  0.46062119296E-02  0.10200895991E+01  0.10198109754E+01 0.  0.
     999903    2    3    3    0    0  0.93650741434E-01  0.56669094123E-01 -0.68014263612E-01  0.13021893003E+00  0.18686414378E-01 0.  0.
         14    1    1    2    0    0 -0.13385234187E-01  0.19182883840E-01 -0.46062119296E-02  0.23840400899E-01  0.00000000000E+00 0. -1.
     999901    1    3    3    0    0 -0.80265507247E-01 -0.75851977963E-01  0.72620475542E-01  0.88987066908E+00  0.88000000000E+00 0.  1.
        -11    1    4    4    0    0  0.92827522627E-02  0.24686942735E-02 -0.11919666197E-01  0.15316771991E-01  0.51100000000E-03 0.  1.
         11    1    4    4    0    0  0.84367989171E-01  0.54200399850E-01 -0.56094597415E-01  0.11490215803E+00  0.51100000000E-03 0. -1.
</event>
<event>
 8    1  0.1084146E+005  0.1043930E+01  0.7957747E-01            NaN
         13   -1    0    0    0    0  0.00000000000E+00  0.00000000000E+00  0.74505805969E-08  0.10566000000E+00  0.10566000000E+00 0. -1.
     999900   -1    0    0    0    0 -0.00000000000E+00 -0.00000000000E+00 -0.74505805969E-08  0.93827000000E+00  0.93827000000E+00 0. -1.
     999902    2    1    2    0    0  0.16007174437E-01  0.99439909821E-02 -0.13434142646E-01  0.10207872089E+01  0.10205248342E+01 0.  0.
     999903    2    3    3    0    0  0.73869807029E-02 -0.10188400459E+00  0.76954248950E-01  0.12907544514E+00  0.17424013064E-01 0.  0.
         14    1    1    2    0    0 -0.16007174437E-01 -0.99439909821E-02  0.13434142646E-01  0.23142791075E-01  0.00000000000E+00 0. -1.
     999901    1    3    3    0    0  0.86201937344E-02  0.11182799557E+00 -0.90388391596E-01  0.89171176378E+00  0.88000000000E+00 0. -1.
        -11    1    4    4    0    0  0.69233782598E-02 -0.61190678902E-01  0.35981461525E-01  0.71324322958E-01  0.51100000000E-03 0. -1.
         11    1    4    4    0    0  0.46360244310E-03 -0.40693325690E-01  0.40972787425E-01  0.57751122183E-01  0.51100000000E-03 0.  1.
</event>
<event>
 8    1  0.1084146E+005  0.1043930E+01  0.7957747E-01            NaN
         13   -1    0    0    0    0  0.00000000000E+00  0.00000000000E+00  0.74505805969E-08  0.10566000000E+00  0.10566000000E+00 0.  1.
     999900   -1    0    0    0    0 -0.00000000000E+00 -0.00000000000E+00 -0.74505805969E-08  0.93827000000E+00  0.93827000000E+00 0.  1.
     999902    2    1    2    0    0  0.20150536506E-01 -0.48545747916E-02  0.10680895651E-01  0.10206127843E+01  0.10203463936E+01 0.  0.
     999903    2    3    3    0    0  0.97264915009E-01 -0.55096632453E-01 -0.67953186554E-01  0.13232554997E+00  0.19907611899E-01 0.  0.
         14    1    1    2    0    0 -0.20150536506E-01  0.48545747916E-02 -0.10680895651E-01  0.23317215738E-01  0.00000000000E+00 0.  1.
     999901    1    3    3    0    0 -0.77114378503E-01  0.50242057662E-01  0.78634082204E-01  0.88828723430E+00  0.88000000000E+00 0. -1.
        -11    1    4    4    0    0  0.49022813207E-01 -0.20027157466E-01 -0.23501285422E-01  0.57938715799E-01  0.51100000000E-03 0. -1.
         11    1    4    4    0    0  0.48242101801E-01 -0.35069474988E-01 -0.44451901132E-01  0.74386834167E-01  0.51100000000E-03 0.  1.
</event>
<event>
 8    1  0.1084146E+005  0.1043930E+01  0.7957747E-01            NaN
         13   -1    0    0    0    0  0.00000000000E+00  0.00000000000E+00  0.74505805969E-08  0.10566000000E+00  0.10566000000E+00 0.  1.
     999900   -1    0    0    0    0 -0.00000000000E+00 -0.00000000000E+00 -0.74505805969E-08  0.93827000000E+00  0.93827000000E+00 0.  1.
     999902    2    1    2    0    0 -0.11662169268E-01 -0.16006203870E-01  0.12869690335E-01  0.10203114970E+01  0.10200380960E+01 0.  0.
     999903    2    3    3    0    0 -0.77442781102E-01 -0.73119695957E-01 -0.74511378012E-01  0.13170332071E+00  0.21211905891E-01 0.  0.
         14    1    1    2    0    0  0.11662169268E-01  0.16006203870E-01 -0.12869690335E-01  0.23618502994E-01  0.00000000000E+00 0. -1.
     999901    1    3    3    0    0  0.65780611835E-01  0.57113492086E-01  0.87381068347E-01  0.88860817629E+00  0.88000000000E+00 0. -1.
        -11    1    4    4    0    0 -0.21314280971E-01 -0.86512264833E-02 -0.18275048282E-01  0.29383342282E-01  0.51100000000E-03 0.  1.
         11    1    4    4    0    0 -0.56128500132E-01 -0.64468469473E-01 -0.56236329730E-01  0.10231997843E+00  0.51100000000E-03 0. -1.
</event>
<event>
 8    1  0.1084146E+005  0.1043930E+01  0.7957747E-01            NaN
         13   -1    0    0    0    0  0.00000000000E+00  0.00000000000E+00  0.74505805969E-08  0.10566000000E+00  0.10566000000E+00 0.  1.
     999900   -1    0    0    0    0 -0.00000000000E+00 -0.00000000000E+00 -0.74505805969E-08  0.93827000000E+00  0.93827000000E+00 0. -1.
     999902    2    1    2    0    0 -0.15517603780E-01  0.16146843616E-01  0.25844818933E-01  0.10097324672E+01  0.10091532015E+01 0.  0.
     999903    2    3    3    0    0 -0.28625069820E-01 -0.10836382868E+00  0.40108394133E-01  0.12075656043E+00  0.20281755839E-01 0.  0.
         14    1    1    2    0    0  0.15517603780E-01 -0.16146843616E-01 -0.25844818933E-01  0.34197532828E-01  0.00000000000E+00 0. -1.
     999901    1    3    3    0    0  0.13107466039E-01  0.12451067230E+00 -0.14263575200E-01  0.88897590674E+00  0.88000000000E+00 0. -1.
        -11    1    4    4    0    0  0.94690886768E-03 -0.23458171755E-01  0.37806160470E-02  0.23785218880E-01  0.51100000000E-03 0. -1.
         11    1    4    4    0    0 -0.29571978687E-01 -0.84905656924E-01  0.36327778086E-01  0.96971341555E-01  0.51100000000E-03 0.  1.
</event>
<event>
 8    1  0.1084146E+005  0.1043930E+01  0.7957747E-01            NaN
         13   -1    0    0    0    0  0.00000000000E+00  0.00000000000E+00  0.74505805969E-08  0.10566000000E+00  0.10566000000E+00 0.  1.
     999900   -1    0    0    0    0 -0.00000000000E+00 -0.00000000000E+00 -0.74505805969E-08  0.93827000000E+00  0.93827000000E+00 0. -1.
     999902    2    1    2    0    0 -0.12869159638E-01 -0.19511063592E-01  0.85848431503E-02  0.10190302730E+01  0.10187260186E+01 0.  0.
     999903    2    3    3    0    0  0.33854750606E-01 -0.29503927391E-01 -0.11920119672E+00  0.12851791874E+00  0.17067638039E-01 0.  0.
         14    1    1    2    0    0  0.12869159638E-01  0.19511063592E-01 -0.85848431503E-02  0.24899726991E-01  0.00000000000E+00 0. -1.
     999901    1    3    3    0    0 -0.46723910243E-01  0.99928637990E-02  0.12778603987E+00  0.89051235427E+00  0.88000000000E+00 0.  1.
        -11    1    4    4    0    0 -0.23393858713E-03 -0.26498721386E-02 -0.20745680320E-01  0.20921781056E-01  0.51100000000E-03 0.  1.
         11    1    4    4    0    0  0.34088689193E-01 -0.26854055253E-01 -0.98455516401E-01  0.10759613769E+00  0.51100000000E-03 0. -1.
</event>
<event>
 8    1  0.1084146E+005  0.1043930E+01  0.7957747E-01            NaN
         13   -1    0    0    0    0  0.00000000000E+00  0.00000000000E+00  0.74505805969E-08  0.10566000000E+00  0.10566000000E+00 0.  1.
     999900   -1    0    0    0    0 -0.00000000000E+00 -0.00000000000E+00 -0.74505805969E-08  0.93827000000E+00  0.93827000000E+00 0. -1.
     999902    2    1    2    0    0 -0.13084795949E-01  0.19972979254E-01 -0.28334034629E-02  0.10198850429E+01  0.10196015598E+01 0.  0.
     999903    2    3    3    0    0  0.38301150808E-02 -0.73880661996E-01 -0.10378032221E+00  0.12899509429E+00  0.19908718513E-01 0.  0.
         14    1    1    2    0    0  0.13084795949E-01 -0.19972979254E-01  0.28334034629E-02  0.24044957070E-01  0.00000000000E+00 0.  1.
     999901    1    3    3    0    0 -0.16914911029E-01  0.93853641250E-01  0.10094691875E+00  0.89088994864E+00  0.88000000000E+00 0.  1.
        -11    1    4    4    0    0 -0.37260112040E-02 -0.17243829679E-01 -0.37758817400E-01  0.41679998008E-01  0.51100000000E-03 0.  1.
         11    1    4    4    0    0  0.75561262849E-02 -0.56636832317E-01 -0.66021504812E-01  0.87315096278E-01  0.51100000000E-03 0. -1.
</event>
<event>
 8    1  0.1084146E+005  0.1043930E+01  0.7957747E-01            NaN
         13   -1    0    0    0    0  0.00000000000E+00  0.00000000000E+00  0.74505805969E-08  0.10566000000E+00  0.10566000000E+00 0.  1.
     999900   -1    0    0    0    0 -0.00000000000E+00 -0.00000000000E+00 -0.74505805969E-08  0.93827000000E+00  0.93827000000E+00 0.  1.
     999902    2    1    2    0    0  0.11208668198E-01 -0.19797132912E-01 -0.57187636625E-02  0.10204722727E+01  0.10202026241E+01 0.  0.
     999903    2    3    3    0    0  0.83456248473E-01 -0.10232536786E-02  0.99121549689E-01  0.13111089352E+00  0.19974792347E-01 0.  0.
         14    1    1    2    0    0 -0.11208668198E-01  0.19797132912E-01  0.57187636625E-02  0.23457727344E-01  0.00000000000E+00 0. -1.
     999901    1    3    3    0    0 -0.72247580275E-01 -0.18773879233E-01 -0.10484031335E+00  0.88936137914E+00  0.88000000000E+00 0.  1.
        -11    1    4    4    0    0  0.30431570365E-01 -0.41501232323E-02  0.50446975316E-01  0.59063207137E-01  0.51100000000E-03 0. -1.
         11    1    4    4    0    0  0.53024678108E-01  0.31268695538E-02  0.48674574373E-01  0.72047686383E-01  0.51100000000E-03 0.  1.
</event>
<event>
 8    1  0.1084146E+005  0.1043930E+01  0.7957747E-01            NaN
         13   -1    0    0    0    0  0.00000000000E+00  0.00000000000E+00  0.74505805969E-08  0.10566000000E+00  0.10566000000E+00 0. -1.
     999900   -1    0    0    0    0 -0.00000000000E+00 -0.00000000000E+00 -0.74505805969E-08  0.93827000000E+00  0.93827000000E+00 0. -1.
     999902    2    1    2    0    0 -0.19505463063E-01  0.85254823945E-02 -0.11313818755E-01  0.10198229588E+01  0.10195379924E+01 0.  0.
     999903    2    3    3    0    0 -0.77718829189E-01  0.78849272487E-01 -0.71176706767E-01  0.13307733757E+00  0.19647646354E-01 0.  0.
         14    1    1    2    0    0  0.19505463063E-01 -0.85254823945E-02  0.11313818755E-01  0.24107041174E-01  0.00000000000E+00 0. -1.
     999901    1    3    3    0    0  0.58213366126E-01 -0.70323790093E-01  0.59862888012E-01  0.88674562125E+00  0.88000000000E+00 0.  1.
        -11    1    4    4    0    0 -0.29717988745E-01  0.22421624711E-01 -0.32924217734E-01  0.49700637260E-01  0.51100000000E-03 0.  1.
         11    1    4    4    0    0 -0.48000840444E-01  0.56427647776E-01 -0.38252489033E-01  0.83376700313E-01  0.51100000000E-03 0. -1.
</event>
<event>
 8    1  0.1084146E+005  0.1043930E+01  0.7957747E-01            NaN
         13   -1    0    0    0    0  0.00000000000E+00  0.00000000000E+00  0.74505805969E-08  0.10566000000E+00  0.10566000000E+00 0. -1.
     999900   -1    0    0    0    0 -0.00000000000E+00 -0.00000000000E+00 -0.74505805969E-08  0.93827000000E+00  0.93827000000E+00 0. -1.
     999902    2    1    2    0    0 -0.60130067482E-02 -0.17740431627E-01 -0.14454911848E-01  0.10202694074E+01  0.10199950196E+01 0.  0.
     999903    2    3    3    0    0  0.11120614653E+00 -0.57704402163E-01  0.30524674681E-01  0.13046009525E+00  0.19785743134E-01 0.  0.
         14    1    1    2    0    0  0.60130067482E-02  0.17740431627E-01  0.14454911848E-01  0.23660592574E-01  0.00000000000E+00 0. -1.
     999901    1    3    3    0    0 -0.11721915328E+00  0.39963970536E-01 -0.44979586529E-01  0.88980931218E+00  0.88000000000E+00 0.  1.
        -11    1    4    4    0    0  0.33997494328E-01 -0.27428544829E-01  0.14193567122E-01  0.45933355643E-01  0.51100000000E-03 0. -1.
         11    1    4    4    0    0  0.77208652206E-01 -0.30275857334E-01  0.16331107559E-01  0.84526739603E-01  0.51100000000E-03 0.  1.
</event>
<event>
 8    1  0.1084146E+005  0.1043930E+01  0.7957747E-01            NaN
         13   -1    0    0    0    0  0.00000000000E+00  0.00000000000E+00  0.74505805969E-08  0.10566000000E+00  0.10566000000E+00 0. -1.
     999900   -1    0    0    0    0 -0.00000000000E+00 -0.00000000000E+00 -0.74505805969E-08  0.93827000000E+00  0.93827000000E+00 0.  1.
     999902    2    1    2    0    0 -0.64643759418E-02  0.71180929866E-02  0.20838112199E-01  0.10209804396E+01  0.10207224773E+01 0.  0.
     999903    2    3    3    0    0 -0.82771883597E-02 -0.48634529810E-01 -0.11689378077E+00  0.12852219652E+00  0.20493161779E-01 0.  0.
         14    1    1    2    0    0  0.64643759418E-02 -0.71180929866E-02 -0.20838112199E-01  0.22949560434E-01  0.00000000000E+00 0.  1.
     999901    1    3    3    0    0  0.18128124179E-02  0.55752622797E-01  0.13773189297E+00  0.89245824304E+00  0.88000000000E+00 0. -1.
        -11    1    4    4    0    0 -0.13087628718E-01 -0.18982346217E-01 -0.43952248416E-01  0.49635438501E-01  0.51100000000E-03 0.  1.
         11    1    4    4    0    0  0.48104403578E-02 -0.29652183593E-01 -0.72941532352E-01  0.78886758021E-01  0.51100000000E-03 0. -1.
</event>
<event>
 8    1  0.1084146E+005  0.1043930E+01  0.7957747E-01            NaN
         13   -1    0    0    0    0  0.00000000000E+00  0.00000000000E+00  0.74505805969E-08  0.10566000000E+00  0.10566000000E+00 0.  1.
     999900   -1    0    0    0    0 -0.00000000000E+00 -0.00000000000E+00 -0.74505805969E-08  0.93827000000E+00  0.93827000000E+00 0.  1.
     999902    2    1    2    0    0  0.57197457437E-03  0.14500484213E-01  0.19357853235E-01  0.10197366604E+01  0.10194496255E+01 0.  0.
     999903    2    3    3    0    0  0.62153095049E-01  0.59387931380E-01  0.99443017640E-01  0.13282023209E+00  0.19035931231E-01 0.  0.
         14    1    1    2    0    0 -0.57197457437E-03 -0.14500484213E-01 -0.19357853235E-01  0.24193339562E-01  0.00000000000E+00 0. -1.
     999901    1    3    3    0    0 -0.61581120475E-01 -0.44887447167E-01 -0.80085164405E-01  0.88691642835E+00  0.88000000000E+00 0. -1.
        -11    1    4    4    0    0  0.43708081738E-01  0.52296359437E-01  0.79916679180E-01  0.10503448173E+00  0.51100000000E-03 0. -1.
         11    1    4    4    0    0  0.18445013311E-01  0.70915719434E-02  0.19526338460E-01  0.27785750365E-01  0.51100000000E-03 0.  1.
</event>
<event>
 8    1  0.1084146E+005  0.1043930E+01  0.7957747E-01            NaN
         13   -1    0    0    0    0  0.00000000000E+00  0.00000000000E+00  0.74505805969E-08  0.10566000000E+00  0.10566000000E+00 0. -1.
     999900   -1    0    0    0    0 -0.00000000000E+00 -0.00000000000E+00 -0.74505805969E-08  0.93827000000E+00  0.93827000000E+00 0.  1.
     999902    2    1    2    0    0  0.14177874307E-01  0.17507290470E-01 -0.38121536419E-04  0.10214018223E+01  0.10211533497E+01 0.  0.
     999903    2    3    3    0    0 -0.11666815726E-01 -0.12185302295E+00 -0.36096888337E-01  0.12933148891E+00  0.20961271066E-01 0.  0.
         14    1    1    2    0    0 -0.14177874307E-01 -0.17507290470E-01  0.38121536419E-04  0.22528177749E-01  0.00000000000E+00 0. -1.
     999901    1    3    3    0    0  0.25844690033E-01  0.13936031342E+00  0.36058766800E-01  0.89207033334E+00  0.88000000000E+00 0. -1.
        -11    1    4    4    0    0 -0.65002458487E-02 -0.96132428935E-01 -0.19568415735E-01  0.98320298537E-01  0.51100000000E-03 0. -1.
         11    1    4    4    0    0 -0.51665698776E-02 -0.25720594018E-01 -0.16528472602E-01  0.31011190375E-01  0.51100000000E-03 0.  1.
</event>
<event>
 8    1  0.1084146E+005  0.1043930E+01  0.7957747E-01            NaN
         13   -1    0    0    0    0  0.00000000000E+00  0.00000000000E+00  0.74505805969E-08  0.10566000000E+00  0.10566000000E+00 0. -1.
     999900   -1    0    0    0    0 -0.00000000000E+00 -0.00000000000E+00 -0.74505805969E-08  0.93827000000E+00  0.93827000000E+00 0. -1.
     999902    2    1    2    0    0 -0.15313056434E-01 -0.17900493503E-01 -0.21402244357E-03  0.10203723437E+01  0.10201003659E+01 0.  0.
     999903    2    3    3    0    0 -0.41889115138E-01  0.10166197603E+00 -0.66736458853E-01  0.12940281247E+00  0.14194280473E-01 0.  0.
         14    1    1    2    0    0  0.15313056434E-01  0.17900493503E-01  0.21402244357E-03  0.23557656306E-01  0.00000000000E+00 0.  1.
     999901    1    3    3    0    0  0.26576058704E-01 -0.11956246954E+00  0.66522436409E-01  0.89096953122E+00  0.88000000000E+00 0.  1.
        -11    1    4    4    0    0 -0.20969213609E-01  0.55103749989E-01 -0.27707017880E-01  0.65146535925E-01  0.51100000000E-03 0.  1.
         11    1    4    4    0    0 -0.20919901530E-01  0.46558226043E-01 -0.39029440973E-01  0.64256276549E-01  0.51100000000E-03 0. -1.
</event>
<event>
 8    1  0.1084146E+005  0.1043930E+01  0.7957747E-01            NaN
         13   -1    0    0    0    0  0.00000000000E+00  0.00000000000E+00  0.74505805969E-08  0.10566000000E+00  0.10566000000E+00 0. -1.
     999900   -1    0    0    0    0 -0.00000000000E+00 -0.00000000000E+00 -0.74505805969E-08  0.93827000000E+00  0.93827000000E+00 0. -1.
     999902    2    1    2    0    0 -0.10177461752E-01  0.36072197322E-02  0.21182582136E-01  0.10201540763E+01  0.10198769753E+01 0.  0.
     999903    2    3    3    0    0 -0.98809839491E-01  0.83468353668E-01  0.16627448914E-01  0.13209200170E+00  0.21011292488E-01 0.  0.
         14    1    1    2    0    0  0.10177461752E-01 -0.36072197322E-02 -0.21182582136E-01  0.23775923702E-01  0.00000000000E+00 0.  1.
     999901    1    3    3    0    0  0.88632377739E-01 -0.79861133936E-01  0.45551332225E-02  0.88806207460E+00  0.88000000000E+00 0. -1.
        -11    1    4    4    0    0 -0.72570354372E-01  0.72089671409E-01  0.15546589506E-01  0.10346658699E+00  0.51100000000E-03 0.  1.
         11    1    4    4    0    0 -0.26239485119E-01  0.11378682259E-01  0.10808594079E-02  0.28625414710E-01  0.51100000000E-03 0. -1.
</event>
<event>
 8    1  0.1084146E+005  0.1043930E+01  0.7957747E-01            NaN
         13   -1    0    0    0    0  0.00000000000E+00  0.00000000000E+00  0.74505805969E-08  0.10566000000E+00  0.10566000000E+00 0.  1.
     999900   -1    0    0    0    0 -0.00000000000E+00 -0.00000000000E+00 -0.74505805969E-08  0.93827000000E+00  0.93827000000E+00 0. -1.
     999902    2    1    2    0    0  0.21268572134E-01 -0.11274020422E-01  0.25136704810E-02  0.10197272267E+01  0.10194399652E+01 0.  0.
     999903    2    3    3    0    0  0.81540796534E-01 -0.41508133103E-01  0.93609294249E-01  0.13245880322E+00  0.20268398234E-01 0.  0.
         14    1    1    2    0    0 -0.21268572134E-01  0.11274020422E-01 -0.25136704810E-02  0.24202773320E-01  0.00000000000E+00 0.  1.
     999901    1    3    3    0    0 -0.60272224399E-01  0.30234112681E-01 -0.91095623768E-01  0.88726842346E+00  0.88000000000E+00 0. -1.
        -11    1    4    4    0    0  0.39517999082E-01 -0.89908759945E-02  0.42602289289E-01  0.58802417265E-01  0.51100000000E-03 0. -1.
         11    1    4    4    0    0  0.42022797452E-01 -0.32517257109E-01  0.51007004960E-01  0.73656385952E-01  0.51100000000E-03 0.  1.
</event>
<event>
 8    1  0.1084146E+005  0.1043930E+01  0.7957747E-01            NaN
         13   -1    0    0    0    0  0.00000000000E+00  0.00000000000E+00  0.74505805969E-08  0.10566000000E+00  0.10566000000E+00 0. -1.
     999900   -1    0    0    0    0 -0.00000000000E+00 -0.00000000000E+00 -0.74505805969E-08  0.93827000000E+00  0.93827000000E+00 0. -1.
     999902    2    1    2    0    0  0.17518363304E-01 -0.15460474260E-01 -0.55501540787E-02  0.10199149312E+01  0.10196321609E+01 0.  0.
     999903    2    3    3    0    0 -0.10893480291E+00  0.55643955431E-01  0.30009459415E-01  0.12732839242E+00  0.18679154193E-01 0.  0.
         14    1    1    2    0    0 -0.17518363304E-01  0.15460474260E-01  0.55501540787E-02  0.24015068759E-01  0.00000000000E+00 0.  1.
     999901    1    3    3    0    0  0.12645316622E+00 -0.71104429691E-01 -0.35559613494E-01  0.89258653882E+00  0.88000000000E+00 0. -1.
        -11    1    4    4    0    0 -0.62698666438E-01  0.30803062100E-01  0.76529935036E-02  0.70276460059E-01  0.51100000000E-03 0.  1.
         11    1    4    4    0    0 -0.46236136473E-01  0.24840893331E-01  0.22356465911E-01  0.57051932364E-01  0.51100000000E-03 0. -1.
</event>
<event>
 8    1  0.1084146E+005  0.1043930E+01  0.7957747E-01            NaN
         13   -1    0    0    0    0  0.00000000000E+00  0.00000000000E+00  0.74505805969E-08  0.10566000000E+00  0.10566000000E+00 0.  1.
     999900   -1    0    0    0    0 -0.00000000000E+00 -0.00000000000E+00 -0.74505805969E-08  0.93827000000E+00  0.93827000000E+00 0.  1.
     999902    2    1    2    0    0 -0.17166040806E-01  0.30938676293E-02 -0.17023152195E-01  0.10195572143E+01  0.10192658537E+01 0.  0.
     999903    2    3    3    0    0  0.37509013751E-01  0.74157565646E-01 -0.99531736084E-01  0.13116142568E+00  0.19760628590E-01 0.  0.
         14    1    1    2    0    0  0.17166040806E-01 -0.30938676293E-02  0.17023152195E-01  0.24372785736E-01  0.00000000000E+00 0.  1.
     999901    1    3    3    0    0 -0.54675054557E-01 -0.71063698017E-01  0.82508583888E-01  0.88839578859E+00  0.88000000000E+00 0. -1.
        -11    1    4    4    0    0  0.27588130262E-01  0.54022969534E-01 -0.84966066795E-01  0.10439865802E+00  0.51100000000E-03 0. -1.
         11    1    4    4    0    0  0.99208834894E-02  0.20134596112E-01 -0.14565669289E-01  0.26762767656E-01  0.51100000000E-03 0.  1.
</event>
<event>
 8    1  0.1084146E+005  0.1043930E+01  0.7957747E-01            NaN
         13   -1    0    0    0    0  0.00000000000E+00  0.00000000000E+00  0.74505805969E-08  0.10566000000E+00  0.10566000000E+00 0. -1.
     999900   -1    0    0    0    0 -0.00000000000E+00 -0.00000000000E+00 -0.74505805969E-08  0.93827000000E+00  0.93827000000E+00 0. -1.
     999902    2    1    2    0    0 -0.68373049837E-02  0.22289316802E-01  0.43556570223E-02  0.10202121980E+01  0.10199364661E+01 0.  0.
     999903    2    3    3    0    0 -0.37267239713E-01  0.12201536031E+00  0.33988138666E-01  0.13356156296E+00  0.20171817483E-01 0.  0.
         14    1    1    2    0    0  0.68373049837E-02 -0.22289316802E-01 -0.43556570223E-02  0.23717801986E-01  0.00000000000E+00 0. -1.
     999901    1    3    3    0    0  0.30429934729E-01 -0.99726043513E-01 -0.29632481643E-01  0.88665063506E+00  0.88000000000E+00 0. -1.
        -11    1    4    4    0    0 -0.10254308048E-01  0.56105603364E-01  0.22939428420E-01  0.61477378438E-01  0.51100000000E-03 0. -1.
         11    1    4    4    0    0 -0.27012931665E-01  0.65909756951E-01  0.11048710246E-01  0.72084184518E-01  0.51100000000E-03 0.  1.
</event>
<event>
 8    1  0.1084146E+005  0.1043930E+01  0.7957747E-01            NaN
         13   -1    0    0    0    0  0.00000000000E+00  0.00000000000E+00  0.74505805969E-08  0.10566000000E+00  0.10566000000E+00 0. -1.
     999900   -1    0    0    0    0 -0.00000000000E+00 -0.00000000000E+00 -0.74505805969E-08  0.93827000000E+00  0.93827000000E+00 0.  1.
     999902    2    1    2    0    0 -0.15144443379E-01 -0.20717034170E-01  0.24205443168E-02  0.10181538734E+01  0.10178275400E+01 0.  0.
     999903    2    3    3    0    0  0.11813470092E+00 -0.88604393454E-02  0.41568988811E-01  0.12717884012E+00  0.20301763401E-01 0.  0.
         14    1    1    2    0    0  0.15144443379E-01  0.20717034170E-01 -0.24205443168E-02  0.25776126645E-01  0.00000000000E+00 0.  1.
     999901    1    3    3    0    0 -0.13327914429E+00 -0.11856594824E-01 -0.39148444494E-01  0.89097503324E+00  0.88000000000E+00 0. -1.
        -11    1    4    4    0    0  0.62771805982E-01 -0.13319259238E-01  0.16621631897E-01  0.66289079499E-01  0.51100000000E-03 0.  1.
         11    1    4    4    0    0  0.55362894934E-01  0.44588198923E-02  0.24947356914E-01  0.60889760620E-01  0.51100000000E-03 0. -1.
</event>
<event>
 8    1  0.1084146E+005  0.1043930E+01  0.7957747E-01            NaN
         13   -1    0    0    0    0  0.00000000000E+00  0.00000000000E+00  0.74505805969E-08  0.10566000000E+00  0.10566000000E+00 0. -1.
     999900   -1    0    0    0    0 -0.00000000000E+00 -0.00000000000E+00 -0.74505805969E-08  0.93827000000E+00  0.93827000000E+00 0.  1.
     999902    2    1    2    0    0 -0.13375865019E-01 -0.11844717213E-01  0.15957309090E-01  0.10199749002E+01  0.10196935571E+01 0.  0.
     999903    2    3    3    0    0  0.71924505143E-01  0.10413671420E+00 -0.92953394256E-03  0.12811560022E+00  0.19878463241E-01 0.  0.
         14    1    1    2    0    0  0.13375865019E-01  0.11844717213E-01 -0.15957309090E-01  0.23955099754E-01  0.00000000000E+00 0.  1.
     999901    1    3    3    0    0 -0.85300370162E-01 -0.11598143141E+00  0.16886843032E-01  0.89185930003E+00  0.88000000000E+00 0.  1.
        -11    1    4    4    0    0  0.47312689886E-01  0.52626908463E-01 -0.45121509359E-02  0.70913346739E-01  0.51100000000E-03 0.  1.
         11    1    4    4    0    0  0.24611815257E-01  0.51509805737E-01  0.35826169934E-02  0.57202253477E-01  0.51100000000E-03 0. -1.
</event>
<event>
 8    1  0.1244196E+005  0.1043930E+01  0.7957747E-01            NaN
         13   -1    0    0    0    0  0.00000000000E+00  0.00000000000E+00  0.74505805969E-08  0.10566000000E+00  0.10566000000E+00 0.  1.
     999900   -1    0    0    0    0 -0.00000000000E+00 -0.00000000000E+00 -0.74505805969E-08  0.93827000000E+00  0.93827000000E+00 0.  1.
     999902    2    1    2    0    0  0.10539968176E-01 -0.80987444878E-02  0.18922215634E-01  0.10208057522E+01  0.10205438025E+01 0.  0.
     999903    2    3    3    0    0  0.31413225725E-01 -0.10221852708E+00  0.77638770134E-01  0.13359559665E+00  0.19610884379E-01 0.  0.
         14    1    1    2    0    0 -0.10539968176E-01  0.80987444878E-02 -0.18922215634E-01  0.23124247792E-01  0.00000000000E+00 0. -1.
     999901    1    3    3    0    0 -0.20873257549E-01  0.94119782596E-01 -0.58716554499E-01  0.88721015556E+00  0.88000000000E+00 0.  1.
        -11    1    4    4    0    0  0.20136600303E-01 -0.33710171659E-01  0.29216100855E-01  0.48945888645E-01  0.51100000000E-03 0.  1.
         11    1    4    4    0    0  0.11276625422E-01 -0.68508355425E-01  0.48422669278E-01  0.84649708003E-01  0.51100000000E-03 0. -1.
</event>
<event>
 8    1  0.1084146E+005  0.1043930E+01  0.7957747E-01            NaN
         13   -1    0    0    0    0  0.00000000000E+00  0.00000000000E+00  0.74505805969E-08  0.10566000000E+00  0.10566000000E+00 0.  1.
     999900   -1    0    0    0    0 -0.00000000000E+00 -0.00000000000E+00 -0.74505805969E-08  0.93827000000E+00  0.93827000000E+00 0.  1.
     999902    2    1    2    0    0  0.96156336850E-02  0.16144603483E-01 -0.18737150771E-01  0.10173934318E+01  0.10170472976E+01 0.  0.
     999903    2    3    3    0    0  0.91539367659E-01  0.78855567346E-01 -0.46625088569E-01  0.13092747067E+00  0.19247009062E-01 0.  0.
         14    1    1    2    0    0 -0.96156336850E-02 -0.16144603483E-01  0.18737150771E-01  0.26536568200E-01  0.00000000000E+00 0. -1.
     999901    1    3    3    0    0 -0.81923733974E-01 -0.62710963863E-01  0.27887937798E-01  0.88646596114E+00  0.88000000000E+00 0. -1.
        -11    1    4    4    0    0  0.22147407542E-01  0.29661371350E-01 -0.10248363473E-01  0.38413470113E-01  0.51100000000E-03 0. -1.
         11    1    4    4    0    0  0.69391960117E-01  0.49194195995E-01 -0.36376725096E-01  0.92514000552E-01  0.51100000000E-03 0.  1.
</event>
<event>
 8    1  0.1084146E+005  0.1043930E+01  0.7957747E-01            NaN
         13   -1    0    0    0    0  0.00000000000E+00  0.00000000000E+00  0.74505805969E-08  0.10566000000E+00  0.10566000000E+00 0.  1.
     999900   -1    0    0    0    0 -0.00000000000E+00 -0.00000000000E+00 -0.74505805969E-08  0.93827000000E+00  0.93827000000E+00 0. -1.
     999902    2    1    2    0    0  0.48530394842E-02  0.17725596901E-01  0.14744707735E-01  0.10203682687E+01  0.10200961957E+01 0.  0.
     999903    2    3    3    0    0 -0.80981480826E-02  0.13082212952E+00  0.10696494690E-01  0.13302676338E+00  0.20042335279E-01 0.  0.
         14    1    1    2    0    0 -0.48530394842E-02 -0.17725596901E-01 -0.14744707735E-01  0.23561731344E-01  0.00000000000E+00 0. -1.
     999901    1    3    3    0    0  0.12951187567E-01 -0.11309653262E+00  0.40482130449E-02  0.88734150527E+00  0.88000000000E+00 0.  1.
        -11    1    4    4    0    0 -0.84596055771E-03  0.11677278852E+00  0.94721242332E-02  0.11716049695E+00  0.51100000000E-03 0.  1.
         11    1    4    4    0    0 -0.72521875249E-02  0.14049340999E-01  0.12243704570E-02  0.15866266430E-01  0.51100000000E-03 0. -1.
</event>
<event>
 8    1  0.1084146E+005  0.1043930E+01  0.7957747E-01            NaN
         13   -1    0    0    0    0  0.00000000000E+00  0.00000000000E+00  0.74505805969E-08  0.10566000000E+00  0.10566000000E+00 0.  1.
     999900   -1    0    0    0    0 -0.00000000000E+00 -0.00000000000E+00 -0.74505805969E-08  0.93827000000E+00  0.93827000000E+00 0. -1.
     999902    2    1    2    0    0 -0.14217312667E-01 -0.19961397332E-02  0.17753458934E-01  0.10210979642E+01  0.10208426670E+01 0.  0.
     999903    2    3    3    0    0 -0.32525184696E-01 -0.37479779402E-01  0.12301826820E+00  0.13392551936E+00  0.18437161444E-01 0.  0.
         14    1    1    2    0    0  0.14217312667E-01  0.19961397332E-02 -0.17753458934E-01  0.22832035771E-01  0.00000000000E+00 0. -1.
     999901    1    3    3    0    0  0.18307872029E-01  0.35483639668E-01 -0.10526480927E+00  0.88717244487E+00  0.88000000000E+00 0. -1.
        -11    1    4    4    0    0 -0.37517393177E-02 -0.15410202754E-01  0.48900220584E-01  0.51410529962E-01  0.51100000000E-03 0.  1.
         11    1    4    4    0    0 -0.28773445378E-01 -0.22069576648E-01  0.74118047616E-01  0.82514989400E-01  0.51100000000E-03 0. -1.
</event>
<event>
 8    1  0.1084146E+005  0.1043930E+01  0.7957747E-01            NaN
         13   -1    0    0    0    0  0.00000000000E+00  0.00000000000E+00  0.74505805969E-08  0.10566000000E+00  0.10566000000E+00 0.  1.
     999900   -1    0    0    0    0 -0.00000000000E+00 -0.00000000000E+00 -0.74505805969E-08  0.93827000000E+00  0.93827000000E+00 0. -1.
     999902    2    1    2    0    0  0.15794196218E-01  0.16822746137E-01 -0.45224828407E-02  0.10204158708E+01  0.10201449089E+01 0.  0.
     999903    2    3    3    0    0  0.74711293142E-01  0.30791836295E-01 -0.10347754915E+00  0.13280195419E+00  0.19971012789E-01 0.  0.
         14    1    1    2    0    0 -0.15794196218E-01 -0.16822746137E-01  0.45224828407E-02  0.23514129217E-01  0.00000000000E+00 0.  1.
     999901    1    3    3    0    0 -0.58917096924E-01 -0.13969090158E-01  0.98955066310E-01  0.88761391660E+00  0.88000000000E+00 0.  1.
        -11    1    4    4    0    0  0.47506861423E-01  0.92820854918E-02 -0.64142146566E-01  0.80358789690E-01  0.51100000000E-03 0. -1.
         11    1    4    4    0    0  0.27204431719E-01  0.21509750803E-01 -0.39335402585E-01  0.52443164496E-01  0.51100000000E-03 0.  1.
</event>
<event>
 8    1  0.1084146E+005  0.1043930E+01  0.7957747E-01            NaN
         13   -1    0    0    0    0  0.00000000000E+00  0.00000000000E+00  0.74505805969E-08  0.10566000000E+00  0.10566000000E+00 0.  1.
     999900   -1    0    0    0    0 -0.00000000000E+00 -0.00000000000E+00 -0.74505805969E-08  0.93827000000E+00  0.93827000000E+00 0. -1.
     999902    2    1    2    0    0 -0.32283486901E-02 -0.15033623419E-01  0.13367059654E-01  0.10235557429E+01  0.10233529442E+01 0.  0.
     999903    2    3    3    0    0  0.12251995486E+00 -0.36535449636E-01 -0.32365781536E-01  0.13318140750E+00  0.18540902652E-01 0.  0.
         14    1    1    2    0    0  0.32283486901E-02  0.15033623419E-01 -0.13367059654E-01  0.20374257095E-01  0.00000000000E+00 0. -1.
     999901    1    3    3    0    0 -0.12574830355E+00  0.21501826217E-01  0.45732841189E-01  0.89037433540E+00  0.88000000000E+00 0. -1.
        -11    1    4    4    0    0  0.71825081183E-01 -0.30167108424E-01 -0.23050435403E-01  0.81243340717E-01  0.51100000000E-03 0.  1.
         11    1    4    4    0    0  0.50694873679E-01 -0.63683412127E-02 -0.93153461332E-02  0.51938066788E-01  0.51100000000E-03 0. -1.
</event>
<event>
 8    1  0.1084146E+005  0.1043930E+01  0.7957747E-01            NaN
         13   -1    0    0    0    0  0.00000000000E+00  0.00000000000E+00  0.74505805969E-08  0.10566000000E+00  0.10566000000E+00 0.  1.
     999900   -1    0    0    0    0 -0.00000000000E+00 -0.00000000000E+00 -0.74505805969E-08  0.93827000000E+00  0.93827000000E+00 0.  1.
     999902    2    1    2    0    0 -0.64939271799E-02  0.22109698458E-01  0.45030170514E-02  0.10204504979E+01  0.10201803427E+01 0.  0.
     999903    2    3    3    0    0 -0.48082296428E-01 -0.10863362001E+00 -0.42024234411E-01  0.12860511169E+00  0.25691785627E-01 0.  0.
         14    1    1    2    0    0  0.64939271799E-02 -0.22109698458E-01 -0.45030170514E-02  0.23479502096E-01  0.00000000000E+00 0.  1.
     999901    1    3    3    0    0  0.41588369249E-01  0.13074331847E+00  0.46527251462E-01  0.89184538621E+00  0.88000000000E+00 0.  1.
        -11    1    4    4    0    0 -0.18002460089E-01 -0.54158970546E-01 -0.32415996073E-01  0.65637950778E-01  0.51100000000E-03 0. -1.
         11    1    4    4    0    0 -0.30079836339E-01 -0.54474649465E-01 -0.96082383376E-02  0.62967160913E-01  0.51100000000E-03 0.  1.
</event>
<event>
 8    1  0.1084146E+005  0.1043930E+01  0.7957747E-01            NaN
         13   -1    0    0    0    0  0.00000000000E+00  0.00000000000E+00  0.74505805969E-08  0.10566000000E+00  0.10566000000E+00 0.  1.
     999900   -1    0    0    0    0 -0.00000000000E+00 -0.00000000000E+00 -0.74505805969E-08  0.93827000000E+00  0.93827000000E+00 0.  1.
     999902    2    1    2    0    0 -0.23203979892E-01  0.24711829838E-02 -0.44941598824E-02  0.10201659746E+01  0.10198891542E+01 0.  0.
     999903    2    3    3    0    0 -0.13063425832E+00  0.12362338652E-01  0.12195669580E-01  0.13342043612E+00  0.20836063808E-01 0.  0.
         14    1    1    2    0    0  0.23203979892E-01 -0.24711829838E-02  0.44941598824E-02  0.23764025358E-01  0.00000000000E+00 0. -1.
     999901    1    3    3    0    0  0.10743027842E+00 -0.98911556679E-02 -0.16689829463E-01  0.88674553852E+00  0.88000000000E+00 0. -1.
        -11    1    4    4    0    0 -0.56299636380E-01  0.10604116232E-01 -0.35970038581E-02  0.57404667888E-01  0.51100000000E-03 0.  1.
         11    1    4    4    0    0 -0.74334621936E-01  0.17582224200E-02  0.15792673438E-01  0.76015768231E-01  0.51100000000E-03 0. -1.
</event>
<event>
 8    1  0.1084146E+005  0.1043930E+01  0.7957747E-01            NaN
         13   -1    0    0    0    0  0.00000000000E+00  0.00000000000E+00  0.74505805969E-08  0.10566000000E+00  0.10566000000E+00 0. -1.
     999900   -1    0    0    0    0 -0.00000000000E+00 -0.00000000000E+00 -0.74505805969E-08  0.93827000000E+00  0.93827000000E+00 0. -1.
     999902    2    1    2    0    0 -0.22425460950E-02 -0.78756564501E-03 -0.23410483446E-01  0.10203991690E+01  0.10201278175E+01 0.  0.
     999903    2    3    3    0    0 -0.76474858574E-01 -0.16440439214E-01 -0.10605108894E+00  0.13327746464E+00  0.19933817448E-01 0.  0.
         14    1    1    2    0    0  0.22425460950E-02  0.78756564501E-03  0.23410483446E-01  0.23530831006E-01  0.00000000000E+00 0. -1.
     999901    1    3    3    0    0  0.74232312479E-01  0.15652873569E-01  0.82640605498E-01  0.88712170436E+00  0.88000000000E+00 0.  1.
        -11    1    4    4    0    0 -0.61475013316E-01 -0.78288460694E-02 -0.71389116399E-01  0.94536422369E-01  0.51100000000E-03 0. -1.
         11    1    4    4    0    0 -0.14999845258E-01 -0.86115931450E-02 -0.34661972545E-01  0.38741042267E-01  0.51100000000E-03 0.  1.
</event>
<event>
 8    1  0.1084146E+005  0.1043930E+01  0.7957747E-01            NaN
         13   -1    0    0    0    0  0.00000000000E+00  0.00000000000E+00  0.74505805969E-08  0.10566000000E+00  0.10566000000E+00 0.  1.
     999900   -1    0    0    0    0 -0.00000000000E+00 -0.00000000000E+00 -0.74505805969E-08  0.93827000000E+00  0.93827000000E+00 0. -1.
     999902    2    1    2    0    0 -0.46051865919E-03  0.44561986778E-02  0.22716965329E-01  0.10207755124E+01  0.10205128693E+01 0.  0.
     999903    2    3    3    0    0 -0.84565403945E-01  0.61384393922E-01 -0.73789078670E-01  0.12969309885E+00  0.21356975354E-01 0.  0.
         14    1    1    2    0    0  0.46051865919E-03 -0.44561986778E-02 -0.22716965329E-01  0.23154487639E-01  0.00000000000E+00 0. -1.
     999901    1    3    3    0    0  0.84104885286E-01 -0.56928195244E-01  0.96506043999E-01  0.89108241351E+00  0.88000000000E+00 0.  1.
        -11    1    4    4    0    0 -0.34366179814E-01  0.29452090843E-01 -0.44122163079E-01  0.63209859720E-01  0.51100000000E-03 0. -1.
         11    1    4    4    0    0 -0.50199224131E-01  0.31932303079E-01 -0.29666915591E-01  0.66483239128E-01  0.51100000000E-03 0.  1.
</event>
<event>
 8    1  0.1084146E+005  0.1043930E+01  0.7957747E-01            NaN
         13   -1    0    0    0    0  0.00000000000E+00  0.00000000000E+00  0.74505805969E-08  0.10566000000E+00  0.10566000000E+00 0. -1.
     999900   -1    0    0    0    0 -0.00000000000E+00 -0.00000000000E+00 -0.74505805969E-08  0.93827000000E+00  0.93827000000E+00 0.  1.
     999902    2    1    2    0    0 -0.99521087646E-02 -0.92547837075E-02  0.19607938128E-01  0.10200727846E+01  0.10197937630E+01 0.  0.
     999903    2    3    3    0    0  0.12740298768E+00  0.11987378778E-01  0.10934790717E-01  0.12912223854E+00  0.13332828549E-01 0.  0.
         14    1    1    2    0    0  0.99521087646E-02  0.92547837075E-02 -0.19607938128E-01  0.23857215428E-01  0.00000000000E+00 0.  1.
     999901    1    3    3    0    0 -0.13735509645E+00 -0.21242162486E-01  0.86731474116E-02  0.89095054603E+00  0.88000000000E+00 0. -1.
        -11    1    4    4    0    0  0.70247658742E-01  0.10041124047E-01  0.11727389906E-01  0.71926007298E-01  0.51100000000E-03 0.  1.
         11    1    4    4    0    0  0.57155328942E-01  0.19462547315E-02 -0.79259918894E-03  0.57196231243E-01  0.51100000000E-03 0. -1.
</event>
<event>
 8    1  0.1084146E+005  0.1043930E+01  0.7957747E-01            NaN
         13   -1    0    0    0    0  0.00000000000E+00  0.00000000000E+00  0.74505805969E-08  0.10566000000E+00  0.10566000000E+00 0.  1.
     999900   -1    0    0    0    0 -0.00000000000E+00 -0.00000000000E+00 -0.74505805969E-08  0.93827000000E+00  0.93827000000E+00 0.  1.
     999902    2    1    2    0    0 -0.11902343130E-01  0.46930815449E-02 -0.19983127262E-01  0.10202020384E+01  0.10199260674E+01 0.  0.
     999903    2    3    3    0    0 -0.10843812733E+00 -0.35624175413E-01 -0.65293587555E-01  0.13284772549E+00  0.18903868901E-01 0.  0.
         14    1    1    2    0    0  0.11902343130E-01 -0.46930815449E-02  0.19983127262E-01  0.23727961597E-01  0.00000000000E+00 0.  1.
     999901    1    3    3    0    0  0.96535784196E-01  0.40317256957E-01  0.45310460293E-01  0.88735431292E+00  0.88000000000E+00 0. -1.
        -11    1    4    4    0    0 -0.14278389978E-01 -0.11095796676E-01 -0.13843706557E-01  0.22779342758E-01  0.51100000000E-03 0. -1.
         11    1    4    4    0    0 -0.94159737348E-01 -0.24528378736E-01 -0.51449880998E-01  0.11006838273E+00  0.51100000000E-03 0.  1.
</event>
<event>
 8    1  0.1084146E+005  0.1043930E+01  0.7957747E-01            NaN
         13   -1    0    0    0    0  0.00000000000E+00  0.00000000000E+00  0.74505805969E-08  0.10566000000E+00  0.10566000000E+00 0.  1.
     999900   -1    0    0    0    0 -0.00000000000E+00 -0.00000000000E+00 -0.74505805969E-08  0.93827000000E+00  0.93827000000E+00 0.  1.
     999902    2    1    2    0    0 -0.46048918429E-02  0.65921692366E-02 -0.24601250140E-01  0.10180478974E+01  0.10177188405E+01 0.  0.
     999903    2    3    3    0    0  0.64409358617E-01  0.10570357170E+00  0.26077905315E-01  0.12835445942E+00  0.21748553062E-01 0.  0.
         14    1    1    2    0    0  0.46048918429E-02 -0.65921692366E-02  0.24601250140E-01  0.25882102553E-01  0.00000000000E+00 0.  1.
     999901    1    3    3    0    0 -0.69014250460E-01 -0.99111402465E-01 -0.50679155455E-01  0.88969343802E+00  0.88000000000E+00 0. -1.
        -11    1    4    4    0    0  0.52108582818E-01  0.67195888477E-01  0.14149908682E-01  0.86203670851E-01  0.51100000000E-03 0.  1.
         11    1    4    4    0    0  0.12300775800E-01  0.38507683225E-01  0.11927996633E-01  0.42150788572E-01  0.51100000000E-03 0. -1.
</event>
<event>
 8    1  0.1084146E+005  0.1043930E+01  0.7957747E-01            NaN
         13   -1    0    0    0    0  0.00000000000E+00  0.00000000000E+00  0.74505805969E-08  0.10566000000E+00  0.10566000000E+00 0.  1.
     999900   -1    0    0    0    0 -0.00000000000E+00 -0.00000000000E+00 -0.74505805969E-08  0.93827000000E+00  0.93827000000E+00 0. -1.
     999902    2    1    2    0    0  0.10055697961E-01 -0.65496239624E-02 -0.21181718205E-01  0.10195849836E+01  0.10192942946E+01 0.  0.
     999903    2    3    3    0    0 -0.10603404584E+00  0.15301844342E-02  0.67686597663E-01  0.12748650842E+00  0.20634291470E-01 0.  0.
         14    1    1    2    0    0 -0.10055697961E-01  0.65496239624E-02  0.21181718205E-01  0.24345016362E-01  0.00000000000E+00 0.  1.
     999901    1    3    3    0    0  0.11608974380E+00 -0.80798083966E-02 -0.88868315868E-01  0.89209847522E+00  0.88000000000E+00 0. -1.
        -11    1    4    4    0    0 -0.14427503638E-01  0.64577118462E-02  0.14427092778E-01  0.21406938840E-01  0.51100000000E-03 0.  1.
         11    1    4    4    0    0 -0.91606542203E-01 -0.49275274120E-02  0.53259504885E-01  0.10607956958E+00  0.51100000000E-03 0. -1.
</event>
<event>
 8    1  0.1084146E+005  0.1043930E+01  0.7957747E-01            NaN
         13   -1    0    0    0    0  0.00000000000E+00  0.00000000000E+00  0.74505805969E-08  0.10566000000E+00  0.10566000000E+00 0. -1.
     999900   -1    0    0    0    0 -0.00000000000E+00 -0.00000000000E+00 -0.74505805969E-08  0.93827000000E+00  0.93827000000E+00 0.  1.
     999902    2    1    2    0    0  0.17394617954E-01  0.12356378948E-01  0.13615102463E-01  0.10186194518E+01  0.10183049463E+01 0.  0.
     999903    2    3    3    0    0 -0.73874281505E-01 -0.44882344636E-01 -0.89614242343E-01  0.12605988455E+00  0.19711614176E-01 0.  0.
         14    1    1    2    0    0 -0.17394617954E-01 -0.12356378948E-01 -0.13615102463E-01  0.25310548188E-01  0.00000000000E+00 0.  1.
     999901    1    3    3    0    0  0.91268899460E-01  0.57238723584E-01  0.10322934481E+00  0.89255956726E+00  0.88000000000E+00 0. -1.
        -11    1    4    4    0    0 -0.42157870248E-01 -0.36671587068E-01 -0.55373252594E-01  0.78667334680E-01  0.51100000000E-03 0. -1.
         11    1    4    4    0    0 -0.31716411257E-01 -0.82107575686E-02 -0.34240989749E-01  0.47392549867E-01  0.51100000000E-03 0.  1.
</event>
<event>
 7    1  0.1084146E+005  0.1043930E+01  0.7957747E-01            NaN
         13   -1    0    0    0    0  0.00000000000E+00  0.00000000000E+00  0.74505805969E-08  0.10566000000E+00  0.10566000000E+00 0. -1.
     999900   -1    0    0    0    0 -0.00000000000E+00 -0.00000000000E+00 -0.74505805969E-08  0.93827000000E+00  0.93827000000E+00 0. -1.
     999902    2    1    2    0    0  0.11738395272E-01  0.19681017546E-01  0.32315060455E-02  0.10207875065E+01  0.10205251385E+01 0.  0.
         14    1    1    2    0    0 -0.11738395272E-01 -0.19681017546E-01 -0.32315060455E-02  0.23142493525E-01  0.00000000000E+00 0. -1.
     999901    1    3    3    0    0  0.85909022469E-01  0.56933765516E-01 -0.96200367163E-01  0.89122181551E+00  0.88000000000E+00 0. -1.
        -11    1    3    3    0    0 -0.40148690163E-01 -0.20976161615E-01  0.52007262347E-01  0.68970523673E-01  0.51100000000E-03 0.  1.
         11    1    3    3    0    0 -0.34021937034E-01 -0.16276586355E-01  0.47424610861E-01  0.60595167293E-01  0.51100000000E-03 0. -1.
</event>
<event>
 8    1  0.1084146E+005  0.1043930E+01  0.7957747E-01            NaN
         13   -1    0    0    0    0  0.00000000000E+00  0.00000000000E+00  0.74505805969E-08  0.10566000000E+00  0.10566000000E+00 0.  1.
     999900   -1    0    0    0    0 -0.00000000000E+00 -0.00000000000E+00 -0.74505805969E-08  0.93827000000E+00  0.93827000000E+00 0. -1.
     999902    2    1    2    0    0  0.10572150271E-01 -0.19671083156E-01 -0.64282174320E-02  0.10206911564E+01  0.10204265740E+01 0.  0.
     999903    2    3    3    0    0  0.45309144553E-01 -0.82019523559E-01  0.91814306737E-01  0.13235249328E+00  0.17526971500E-01 0.  0.
         14    1    1    2    0    0 -0.10572150271E-01  0.19671083156E-01  0.64282174320E-02  0.23238843630E-01  0.00000000000E+00 0. -1.
     999901    1    3    3    0    0 -0.34736994283E-01  0.62348440403E-01 -0.98242524169E-01  0.88833866309E+00  0.88000000000E+00 0. -1.
        -11    1    4    4    0    0  0.21547537440E-01 -0.52497417204E-01  0.62639610790E-01  0.84523707584E-01  0.51100000000E-03 0.  1.
         11    1    4    4    0    0  0.23761607113E-01 -0.29522106355E-01  0.29174695947E-01  0.47828785692E-01  0.51100000000E-03 0. -1.
</event>
<event>
 8    1  0.1084146E+005  0.1043930E+01  0.7957747E-01            NaN
         13   -1    0    0    0    0  0.00000000000E+00  0.00000000000E+00  0.74505805969E-08  0.10566000000E+00  0.10566000000E+00 0. -1.
     999900   -1    0    0    0    0 -0.00000000000E+00 -0.00000000000E+00 -0.74505805969E-08  0.93827000000E+00  0.93827000000E+00 0.  1.
     999902    2    1    2    0    0 -0.13370842298E-01  0.19237864457E-01  0.12615542016E-01  0.10173212279E+01  0.10169731825E+01 0.  0.
     999903    2    3    3    0    0 -0.19812355887E-01  0.99226047608E-01 -0.77582161579E-01  0.12907845237E+00  0.20097688939E-01 0.  0.
         14    1    1    2    0    0  0.13370842298E-01 -0.19237864457E-01 -0.12615542016E-01  0.26608772106E-01  0.00000000000E+00 0.  1.
     999901    1    3    3    0    0  0.64415135895E-02 -0.79988183151E-01  0.90197703595E-01  0.88824277553E+00  0.88000000000E+00 0. -1.
        -11    1    4    4    0    0 -0.55505206365E-02  0.42481907913E-01 -0.44881468418E-01  0.62049400542E-01  0.51100000000E-03 0. -1.
         11    1    4    4    0    0 -0.14261835250E-01  0.56744139696E-01 -0.32700693161E-01  0.67029051826E-01  0.51100000000E-03 0.  1.
</event>
<event>
 8    1  0.1084146E+005  0.1043930E+01  0.7957747E-01            NaN
         13   -1    0    0    0    0  0.00000000000E+00  0.00000000000E+00  0.74505805969E-08  0.10566000000E+00  0.10566000000E+00 0.  1.
     999900   -1    0    0    0    0 -0.00000000000E+00 -0.00000000000E+00 -0.74505805969E-08  0.93827000000E+00  0.93827000000E+00 0. -1.
     999902    2    1    2    0    0 -0.73685436367E-02 -0.22224451429E-01  0.50931408449E-02  0.10199683273E+01  0.10196868278E+01 0.  0.
     999903    2    3    3    0    0 -0.97363624086E-01 -0.88020754132E-01  0.12839895192E-02  0.13292673997E+00  0.20989071372E-01 0.  0.
         14    1    1    2    0    0  0.73685436367E-02  0.22224451429E-01 -0.50931408449E-02  0.23961672736E-01  0.00000000000E+00 0. -1.
     999901    1    3    3    0    0  0.89995080449E-01  0.65796302704E-01  0.38091513257E-02  0.88704158729E+00  0.88000000000E+00 0. -1.
        -11    1    4    4    0    0 -0.15425859637E-01 -0.21830987958E-01  0.63206206652E-02  0.27472905695E-01  0.51100000000E-03 0.  1.
         11    1    4    4    0    0 -0.81937764449E-01 -0.66189766175E-01 -0.50366311459E-02  0.10545383428E+00  0.51100000000E-03 0. -1.
</event>
<event>
 8    1  0.1084146E+005  0.1043930E+01  0.7957747E-01            NaN
         13   -1    0    0    0    0  0.00000000000E+00  0.00000000000E+00  0.74505805969E-08  0.10566000000E+00  0.10566000000E+00 0. -1.
     999900   -1    0    0    0    0 -0.00000000000E+00 -0.00000000000E+00 -0.74505805969E-08  0.93827000000E+00  0.93827000000E+00 0.  1.
     999902    2    1    2    0    0  0.25821199404E-02 -0.22959386169E-01 -0.30207955026E-02  0.10206292283E+01  0.10203632175E+01 0.  0.
     999903    2    3    3    0    0  0.11717285255E+00 -0.48112775721E-01 -0.32775850793E-01  0.13234487499E+00  0.19914642345E-01 0.  0.
         14    1    1    2    0    0 -0.25821199404E-02  0.22959386169E-01  0.30207955026E-02  0.23300771706E-01  0.00000000000E+00 0. -1.
     999901    1    3    3    0    0 -0.11459073261E+00  0.25153389552E-01  0.29755055291E-01  0.88828435330E+00  0.88000000000E+00 0. -1.
        -11    1    4    4    0    0  0.39718511852E-01 -0.26192659776E-01 -0.15214561942E-01  0.49953574707E-01  0.51100000000E-03 0. -1.
         11    1    4    4    0    0  0.77454340695E-01 -0.21920115945E-01 -0.17561288852E-01  0.82391300285E-01  0.51100000000E-03 0.  1.
</event>
<event>
 8    1  0.1084146E+005  0.1043930E+01  0.7957747E-01            NaN
         13   -1    0    0    0    0  0.00000000000E+00  0.00000000000E+00  0.74505805969E-08  0.10566000000E+00  0.10566000000E+00 0.  1.
     999900   -1    0    0    0    0 -0.00000000000E+00 -0.00000000000E+00 -0.74505805969E-08  0.93827000000E+00  0.93827000000E+00 0.  1.
     999902    2    1    2    0    0  0.22626312355E-01 -0.20470303197E-02  0.29217761290E-02  0.10210241684E+01  0.10207671994E+01 0.  0.
     999903    2    3    3    0    0  0.62417027351E-02  0.12332544708E+00 -0.38704429789E-01  0.13101323899E+00  0.20452656409E-01 0.  0.
         14    1    1    2    0    0 -0.22626312355E-01  0.20470303197E-02 -0.29217761290E-02  0.22905831565E-01  0.00000000000E+00 0.  1.
     999901    1    3    3    0    0  0.16384609620E-01 -0.12537247740E+00  0.41626205918E-01  0.89001092945E+00  0.88000000000E+00 0.  1.
        -11    1    4    4    0    0  0.39100666689E-02  0.78201202363E-01 -0.34712012961E-01  0.85649878208E-01  0.51100000000E-03 0.  1.
         11    1    4    4    0    0  0.23316360661E-02  0.45124244715E-01 -0.39924168282E-02  0.45363360777E-01  0.51100000000E-03 0. -1.
</event>
<event>
 8    1  0.1084146E+005  0.1043930E+01  0.7957747E-01            NaN
         13   -1    0    0    0    0  0.00000000000E+00  0.00000000000E+00  0.74505805969E-08  0.10566000000E+00  0.10566000000E+00 0.  1.
     999900   -1    0    0    0    0 -0.00000000000E+00 -0.00000000000E+00 -0.74505805969E-08  0.93827000000E+00  0.93827000000E+00 0.  1.
     999902    2    1    2    0    0  0.22075204512E-01 -0.68894665176E-02  0.41545801063E-02  0.10204344698E+01  0.10201639414E+01 0.  0.
     999903    2    3    3    0    0  0.41171421571E-01 -0.51577925848E-01  0.11300791121E+00  0.13239687399E+00  0.20069276450E-01 0.  0.
         14    1    1    2    0    0 -0.22075204512E-01  0.68894665176E-02 -0.41545801063E-02  0.23495530192E-01  0.00000000000E+00 0.  1.
     999901    1    3    3    0    0 -0.19096217060E-01  0.44688459330E-01 -0.10885333110E+00  0.88803759582E+00  0.88000000000E+00 0.  1.
        -11    1    4    4    0    0  0.88862089773E-02 -0.17432985103E-01  0.18908121171E-01  0.27214919563E-01  0.51100000000E-03 0.  1.
         11    1    4    4    0    0  0.32285212594E-01 -0.34144940745E-01  0.94099790034E-01  0.10518195442E+00  0.51100000000E-03 0. -1.
</event>
<event>
 8    1  0.1084146E+005  0.1043930E+01  0.7957747E-01            NaN
         13   -1    0    0    0    0  0.00000000000E+00  0.00000000000E+00  0.74505805969E-08  0.10566000000E+00  0.10566000000E+00 0. -1.
     999900   -1    0    0    0    0 -0.00000000000E+00 -0.00000000000E+00 -0.74505805969E-08  0.93827000000E+00  0.93827000000E+00 0. -1.
     999902    2    1    2    0    0  0.28323239688E-01 -0.72227320124E-02  0.10126737326E-01  0.10129958025E+01  0.10125233683E+01 0.  0.
     999903    2    3    3    0    0  0.11077507732E+00 -0.56254013211E-01 -0.20216931347E-01  0.12726271051E+00  0.18746770816E-01 0.  0.
         14    1    1    2    0    0 -0.28323239688E-01  0.72227320124E-02 -0.10126737326E-01  0.30934197468E-01  0.00000000000E+00 0.  1.
     999901    1    3    3    0    0 -0.82451837636E-01  0.49031281198E-01  0.30343668673E-01  0.88573309202E+00  0.88000000000E+00 0.  1.
        -11    1    4    4    0    0  0.21356255685E-01 -0.19646772848E-01 -0.47118886497E-02  0.29403203157E-01  0.51100000000E-03 0.  1.
         11    1    4    4    0    0  0.89418821639E-01 -0.36607240362E-01 -0.15505042697E-01  0.97859507358E-01  0.51100000000E-03 0. -1.
</event>
<event>
 8    1  0.1084146E+005  0.1043930E+01  0.7957747E-01            NaN
         13   -1    0    0    0    0  0.00000000000E+00  0.00000000000E+00  0.74505805969E-08  0.10566000000E+00  0.10566000000E+00 0. -1.
     999900   -1    0    0    0    0 -0.00000000000E+00 -0.00000000000E+00 -0.74505805969E-08  0.93827000000E+00  0.93827000000E+00 0. -1.
     999902    2    1    2    0    0  0.16973196349E-01  0.82555840061E-02 -0.14463440280E-01  0.10201511193E+01  0.10198739486E+01 0.  0.
     999903    2    3    3    0    0 -0.10175618879E+00 -0.70993774750E-01 -0.15618228739E-02  0.12855503393E+00  0.33608324059E-01 0.  0.
         14    1    1    2    0    0 -0.16973196349E-01 -0.82555840061E-02  0.14463440280E-01  0.23778880679E-01  0.00000000000E+00 0. -1.
     999901    1    3    3    0    0  0.11872938514E+00  0.79249358756E-01 -0.12901617406E-01  0.89159608539E+00  0.88000000000E+00 0. -1.
        -11    1    4    4    0    0 -0.35598825154E-01 -0.26700033659E-01  0.15510265513E-01  0.47127461283E-01  0.51100000000E-03 0.  1.
         11    1    4    4    0    0 -0.66157363641E-01 -0.44293741090E-01 -0.17072088387E-01  0.81427572643E-01  0.51100000000E-03 0. -1.
</event>
<event>
 8    1  0.1084146E+005  0.1043930E+01  0.7957747E-01            NaN
         13   -1    0    0    0    0  0.00000000000E+00  0.00000000000E+00  0.74505805969E-08  0.10566000000E+00  0.10566000000E+00 0. -1.
     999900   -1    0    0    0    0 -0.00000000000E+00 -0.00000000000E+00 -0.74505805969E-08  0.93827000000E+00  0.93827000000E+00 0. -1.
     999902    2    1    2    0    0 -0.14861337799E-01 -0.87110531336E-02  0.15897015124E-01  0.10204895030E+01  0.10202202551E+01 0.  0.
     999903    2    3    3    0    0  0.90369605953E-01 -0.80760742671E-01  0.45678989789E-01  0.13079760395E+00  0.18234030137E-01 0.  0.
         14    1    1    2    0    0  0.14861337799E-01  0.87110531336E-02 -0.15897015124E-01  0.23440496960E-01  0.00000000000E+00 0. -1.
     999901    1    3    3    0    0 -0.10523094375E+00  0.72049689537E-01 -0.29781974665E-01  0.88969189909E+00  0.88000000000E+00 0.  1.
        -11    1    4    4    0    0  0.36644284216E-01 -0.40016367368E-01  0.28137118961E-01  0.61123414560E-01  0.51100000000E-03 0. -1.
         11    1    4    4    0    0  0.53725321737E-01 -0.40744375303E-01  0.17541870829E-01  0.69674189394E-01  0.51100000000E-03 0.  1.
</event>
<event>
 8    1  0.1084146E+005  0.1043930E+01  0.7957747E-01            NaN
         13   -1    0    0    0    0  0.00000000000E+00  0.00000000000E+00  0.74505805969E-08  0.10566000000E+00  0.10566000000E+00 0. -1.
     999900   -1    0    0    0    0 -0.00000000000E+00 -0.00000000000E+00 -0.74505805969E-08  0.93827000000E+00  0.93827000000E+00 0.  1.
     999902    2    1    2    0    0  0.12598167228E-01 -0.15320604556E-01 -0.13941345154E-01  0.10196854986E+01  0.10193972338E+01 0.  0.
     999903    2    3    3    0    0 -0.42215542866E-01  0.64302536567E-01 -0.10286365907E+00  0.12993746390E+00  0.19642909655E-01 0.  0.
         14    1    1    2    0    0 -0.12598167228E-01  0.15320604556E-01  0.13941345154E-01  0.24244501359E-01  0.00000000000E+00 0. -1.
     999901    1    3    3    0    0  0.54813710094E-01 -0.79623141123E-01  0.88922313911E-01  0.88974803474E+00  0.88000000000E+00 0. -1.
        -11    1    4    4    0    0 -0.13970046311E-01  0.26635904038E-01 -0.55646554373E-01  0.63256886680E-01  0.51100000000E-03 0. -1.
         11    1    4    4    0    0 -0.28245496555E-01  0.37666632529E-01 -0.47217104692E-01  0.66680577218E-01  0.51100000000E-03 0.  1.
</event>
<event>
 8    1  0.1084146E+005  0.1043930E+01  0.7957747E-01            NaN
         13   -1    0    0    0    0  0.00000000000E+00  0.00000000000E+00  0.74505805969E-08  0.10566000000E+00  0.10566000000E+00 0. -1.
     999900   -1    0    0    0    0 -0.00000000000E+00 -0.00000000000E+00 -0.74505805969E-08  0.93827000000E+00  0.93827000000E+00 0.  1.
     999902    2    1    2    0    0 -0.19214619772E-01  0.17390056524E-01 -0.10366210873E-02  0.10179937269E+01  0.10176632733E+01 0.  0.
     999903    2    3    3    0    0  0.74129846095E-02  0.62418771628E-01  0.11119908397E+00  0.12932423379E+00  0.20210536299E-01 0.  0.
         14    1    1    2    0    0  0.19214619772E-01 -0.17390056524E-01  0.10366210873E-02  0.25936273097E-01  0.00000000000E+00 0.  1.
     999901    1    3    3    0    0 -0.26627604382E-01 -0.45028715105E-01 -0.11223570506E+00  0.88866949311E+00  0.88000000000E+00 0.  1.
        -11    1    4    4    0    0  0.27060200968E-03  0.35812318823E-01  0.80292671172E-01  0.87919108104E-01  0.51100000000E-03 0.  1.
         11    1    4    4    0    0  0.71423825998E-02  0.26606452806E-01  0.30906412797E-01  0.41405125686E-01  0.51100000000E-03 0. -1.
</event>
<event>
 8    1  0.1084146E+005  0.1043930E+01  0.7957747E-01            NaN
         13   -1    0    0    0    0  0.00000000000E+00  0.00000000000E+00  0.74505805969E-08  0.10566000000E+00  0.10566000000E+00 0. -1.
     999900   -1    0    0    0    0 -0.00000000000E+00 -0.00000000000E+00 -0.74505805969E-08  0.93827000000E+00  0.93827000000E+00 0.  1.
     999902    2    1    2    0    0 -0.81193543264E-02 -0.21743360641E-01 -0.81630212371E-04  0.10207199955E+01  0.10204560769E+01 0.  0.
     999903    2    3    3    0    0 -0.32250752049E-02  0.10649602067E+00  0.69321196052E-01  0.12870763839E+00  0.20209513366E-01 0.  0.
         14    1    1    2    0    0  0.81193543264E-02  0.21743360641E-01  0.81630212371E-04  0.23210004527E-01  0.00000000000E+00 0.  1.
     999901    1    3    3    0    0 -0.48942791216E-02 -0.12823938131E+00 -0.69402826264E-01  0.89201235708E+00  0.88000000000E+00 0.  1.
        -11    1    4    4    0    0 -0.55581597681E-02  0.40244060915E-01  0.37005359540E-01  0.54955757975E-01  0.51100000000E-03 0.  1.
         11    1    4    4    0    0  0.23330845632E-02  0.66251959755E-01  0.32315836511E-01  0.73751880419E-01  0.51100000000E-03 0. -1.
</event>
<event>
 7    1  0.1084146E+005  0.1043930E+01  0.7957747E-01            NaN
         13   -1    0    0    0    0  0.00000000000E+00  0.00000000000E+00  0.74505805969E-08  0.10566000000E+00  0.10566000000E+00 0. -1.
     999900   -1    0    0    0    0 -0.00000000000E+00 -0.00000000000E+00 -0.74505805969E-08  0.93827000000E+00  0.93827000000E+00 0. -1.
     999903    2    1    2    0    0 -0.98564668152E-02  0.20035954755E-01 -0.98683965585E-01  0.10207404314E+00  0.13490581847E-01 0.  0.
         14    1    1    2    0    0  0.35457181157E-01 -0.25406762484E-01  0.40538869858E-01  0.59549267375E-01  0.00000000000E+00 0. -1.
     999901    1    1    2    0    0 -0.25600714342E-01  0.53708077291E-02  0.58145095727E-01  0.88230668948E+00  0.88000000000E+00 0.  1.
        -11    1    3    3    0    0 -0.13245615518E-01  0.16141767598E-01 -0.77713427135E-01  0.80471366770E-01  0.51100000000E-03 0. -1.
         11    1    3    3    0    0  0.33891487032E-02  0.38941871569E-02 -0.20970538450E-01  0.21602676371E-01  0.51100000000E-03 0.  1.
</event>
<event>
 8    1  0.1084146E+005  0.1043930E+01  0.7957747E-01            NaN
         13   -1    0    0    0    0  0.00000000000E+00  0.00000000000E+00  0.74505805969E-08  0.10566000000E+00  0.10566000000E+00 0.  1.
     999900   -1    0    0    0    0 -0.00000000000E+00 -0.00000000000E+00 -0.74505805969E-08  0.93827000000E+00  0.93827000000E+00 0. -1.
     999902    2    1    2    0    0 -0.42862886028E-02  0.12853070487E-01  0.21544813010E-01  0.10184790146E+01  0.10181609649E+01 0.  0.
     999903    2    3    3    0    0 -0.77075166082E-01 -0.90409661563E-01 -0.41184371590E-01  0.12724595690E+00  0.19516479009E-01 0.  0.
         14    1    1    2    0    0  0.42862886028E-02 -0.12853070487E-01 -0.21544813010E-01  0.25450985415E-01  0.00000000000E+00 0. -1.
     999901    1    3    3    0    0  0.72788877480E-01  0.10326273205E+00  0.62729184601E-01  0.89123305769E+00  0.88000000000E+00 0.  1.
        -11    1    4    4    0    0 -0.40899396528E-01 -0.46755293441E-01 -0.11252987924E-01  0.63132471513E-01  0.51100000000E-03 0. -1.
         11    1    4    4    0    0 -0.36175769554E-01 -0.43654368122E-01 -0.29931383666E-01  0.64113485384E-01  0.51100000000E-03 0.  1.
</event>
<event>
 8    1  0.1084146E+005  0.1043930E+01  0.7957747E-01            NaN
         13   -1    0    0    0    0  0.00000000000E+00  0.00000000000E+00  0.74505805969E-08  0.10566000000E+00  0.10566000000E+00 0.  1.
     999900   -1    0    0    0    0 -0.00000000000E+00 -0.00000000000E+00 -0.74505805969E-08  0.93827000000E+00  0.93827000000E+00 0. -1.
     999902    2    1    2    0    0 -0.20581766195E-01 -0.27173069966E-02  0.69946431731E-02  0.10220229717E+01  0.10217881565E+01 0.  0.
     999903    2    3    3    0    0  0.21620349960E-01 -0.98552596802E-01 -0.81610996313E-01  0.13139601232E+00  0.20603481865E-01 0.  0.
         14    1    1    2    0    0  0.20581766195E-01  0.27173069966E-02 -0.69946431731E-02  0.21907028328E-01  0.00000000000E+00 0. -1.
     999901    1    3    3    0    0 -0.42202116155E-01  0.95835289806E-01  0.88605639486E-01  0.89062695935E+00  0.88000000000E+00 0.  1.
        -11    1    4    4    0    0  0.10434479356E-01 -0.34210399432E-01 -0.41347803137E-01  0.54672952490E-01  0.51100000000E-03 0.  1.
         11    1    4    4    0    0  0.11185870604E-01 -0.64342197371E-01 -0.40263193176E-01  0.76723059828E-01  0.51100000000E-03 0. -1.
</event>
<event>
 8    1  0.1084146E+005  0.1043930E+01  0.7957747E-01            NaN
         13   -1    0    0    0    0  0.00000000000E+00  0.00000000000E+00  0.74505805969E-08  0.10566000000E+00  0.10566000000E+00 0.  1.
     999900   -1    0    0    0    0 -0.00000000000E+00 -0.00000000000E+00 -0.74505805969E-08  0.93827000000E+00  0.93827000000E+00 0.  1.
     999902    2    1    2    0    0  0.19604320884E-01  0.73351378181E-02 -0.11126693591E-01  0.10202247906E+01  0.10199493548E+01 0.  0.
     999903    2    3    3    0    0  0.50649043254E-01  0.11214727745E+00 -0.46446551853E-01  0.13275825498E+00  0.18031490894E-01 0.  0.
         14    1    1    2    0    0 -0.19604320884E-01 -0.73351378181E-02  0.11126693591E-01  0.23705209436E-01  0.00000000000E+00 0.  1.
     999901    1    3    3    0    0 -0.31044722370E-01 -0.10481213963E+00  0.35319858262E-01  0.88746653559E+00  0.88000000000E+00 0. -1.
        -11    1    4    4    0    0  0.13207663616E-01  0.34044228644E-01 -0.54277736528E-02  0.36921182673E-01  0.51100000000E-03 0. -1.
         11    1    4    4    0    0  0.37441379637E-01  0.78103048804E-01 -0.41018778200E-01  0.95837072303E-01  0.51100000000E-03 0.  1.
</event>
<event>
 8    1  0.1084146E+005  0.1043930E+01  0.7957747E-01            NaN
         13   -1    0    0    0    0  0.00000000000E+00  0.00000000000E+00  0.74505805969E-08  0.10566000000E+00  0.10566000000E+00 0.  1.
     999900   -1    0    0    0    0 -0.00000000000E+00 -0.00000000000E+00 -0.74505805969E-08  0.93827000000E+00  0.93827000000E+00 0.  1.
     999902    2    1    2    0    0  0.85571875430E-02  0.18323204834E-02 -0.22180490616E-01  0.10200855662E+01  0.10198068471E+01 0.  0.
     999903    2    3    3    0    0  0.23804657667E-01 -0.12098222504E+00 -0.40196034111E-01  0.13124336555E+00  0.20142972465E-01 0.  0.
         14    1    1    2    0    0 -0.85571875430E-02 -0.18323204834E-02  0.22180490616E-01  0.23844433753E-01  0.00000000000E+00 0.  1.
     999901    1    3    3    0    0 -0.15247470124E-01  0.12281454552E+00  0.18015543495E-01  0.88884220070E+00  0.88000000000E+00 0.  1.
        -11    1    4    4    0    0  0.20643947762E-01 -0.85049730268E-01 -0.19547882121E-01  0.89677254721E-01  0.51100000000E-03 0.  1.
         11    1    4    4    0    0  0.31607099049E-02 -0.35932494772E-01 -0.20648151990E-01  0.41566110827E-01  0.51100000000E-03 0. -1.
</event>
<event>
 8    1  0.1084146E+005  0.1043930E+01  0.7957747E-01            NaN
         13   -1    0    0    0    0  0.00000000000E+00  0.00000000000E+00  0.74505805969E-08  0.10566000000E+00  0.10566000000E+00 0.  1.
     999900   -1    0    0    0    0 -0.00000000000E+00 -0.00000000000E+00 -0.74505805969E-08  0.93827000000E+00  0.93827000000E+00 0.  1.
     999902    2    1    2    0    0 -0.13114072534E-01 -0.15954514643E-01  0.10753524023E-01  0.10206455907E+01  0.10203799577E+01 0.  0.
     999903    2    3    3    0    0 -0.10240328967E+00  0.62795136645E-01 -0.47635523284E-01  0.13071112533E+00  0.19661950145E-01 0.  0.
         14    1    1    2    0    0  0.13114072534E-01  0.15954514643E-01 -0.10753524023E-01  0.23284409265E-01  0.00000000000E+00 0. -1.
     999901    1    3    3    0    0  0.89289217140E-01 -0.78749651287E-01  0.58389047307E-01  0.88993446541E+00  0.88000000000E+00 0. -1.
        -11    1    4    4    0    0 -0.19048717488E-01  0.11086216643E-01 -0.92501984741E-03  0.22065235555E-01  0.51100000000E-03 0.  1.
         11    1    4    4    0    0 -0.83354572186E-01  0.51708920001E-01 -0.46710503437E-01  0.10864588977E+00  0.51100000000E-03 0. -1.
</event>
<event>
 8    1  0.1084146E+005  0.1043930E+01  0.7957747E-01            NaN
         13   -1    0    0    0    0  0.00000000000E+00  0.00000000000E+00  0.74505805969E-08  0.10566000000E+00  0.10566000000E+00 0.  1.
     999900   -1    0    0    0    0 -0.00000000000E+00 -0.00000000000E+00 -0.74505805969E-08  0.93827000000E+00  0.93827000000E+00 0.  1.
     999902    2    1    2    0    0  0.73591853883E-02 -0.20892216047E-01 -0.83081677640E-02  0.10202726977E+01  0.10199983871E+01 0.  0.
     999903    2    3    3    0    0  0.49689550797E-01 -0.28534144356E-01 -0.11777177225E+00  0.13244808685E+00  0.19724515669E-01 0.  0.
         14    1    1    2    0    0 -0.73591853883E-02  0.20892216047E-01  0.83081677640E-02  0.23657302309E-01  0.00000000000E+00 0. -1.
     999901    1    3    3    0    0 -0.42330365409E-01  0.76419283095E-02  0.10946360449E+00  0.88782461084E+00  0.88000000000E+00 0. -1.
        -11    1    4    4    0    0  0.90971472656E-02  0.19564645908E-02 -0.25196111198E-01  0.26864306851E-01  0.51100000000E-03 0. -1.
         11    1    4    4    0    0  0.40592403531E-01 -0.30490608947E-01 -0.92575661056E-01  0.10558378000E+00  0.51100000000E-03 0.  1.
</event>
<event>
 8    1  0.1084146E+005  0.1043930E+01  0.7957747E-01            NaN
         13   -1    0    0    0    0  0.00000000000E+00  0.00000000000E+00  0.74505805969E-08  0.10566000000E+00  0.10566000000E+00 0. -1.
     999900   -1    0    0    0    0 -0.00000000000E+00 -0.00000000000E+00 -0.74505805969E-08  0.93827000000E+00  0.93827000000E+00 0. -1.
     999902    2    1    2    0    0 -0.76847545906E-02 -0.82641404217E-02  0.20151843635E-01  0.10208335009E+01  0.10205721867E+01 0.  0.
     999903    2    3    3    0    0 -0.70342238439E-01  0.10562902504E+00  0.26947421225E-01  0.13125843754E+00  0.19927179349E-01 0.  0.
         14    1    1    2    0    0  0.76847545906E-02  0.82641404217E-02 -0.20151843635E-01  0.23096499127E-01  0.00000000000E+00 0.  1.
     999901    1    3    3    0    0  0.62657483849E-01 -0.11389316546E+00 -0.67955775898E-02  0.88957506333E+00  0.88000000000E+00 0. -1.
        -11    1    4    4    0    0 -0.45786503173E-01  0.70067129947E-01  0.80499998420E-02  0.84088466452E-01  0.51100000000E-03 0. -1.
         11    1    4    4    0    0 -0.24555735267E-01  0.35561895092E-01  0.18897421383E-01  0.47169971093E-01  0.51100000000E-03 0.  1.
</event>
<event>
 8    1  0.1084146E+005  0.1043930E+01  0.7957747E-01            NaN
         13   -1    0    0    0    0  0.00000000000E+00  0.00000000000E+00  0.74505805969E-08  0.10566000000E+00  0.10566000000E+00 0.  1.
     999900   -1    0    0    0    0 -0.00000000000E+00 -0.00000000000E+00 -0.74505805969E-08  0.93827000000E+00  0.93827000000E+00 0. -1.
     999902    2    1    2    0    0  0.16698223678E-01 -0.96903821291E-02  0.16823004019E-01  0.10183224299E+01  0.10180004046E+01 0.  0.
     999903    2    3    3    0    0  0.69591705354E-01  0.10658067082E+00 -0.55172723313E-03  0.12893018833E+00  0.20499858879E-01 0.  0.
         14    1    1    2    0    0 -0.16698223678E-01  0.96903821291E-02 -0.16823004019E-01  0.25607570053E-01  0.00000000000E+00 0. -1.
     999901    1    3    3    0    0 -0.52893481676E-01 -0.11627105295E+00  0.17374731252E-01  0.88939224161E+00  0.88000000000E+00 0.  1.
        -11    1    4    4    0    0  0.55610122797E-01  0.90570048179E-01  0.66300442688E-02  0.10648773635E+00  0.51100000000E-03 0. -1.
         11    1    4    4    0    0  0.13981582557E-01  0.16010622641E-01 -0.71817715019E-02  0.22442451984E-01  0.51100000000E-03 0.  1.
</event>
<event>
 8    1  0.1084146E+005  0.1043930E+01  0.7957747E-01            NaN
         13   -1    0    0    0    0  0.00000000000E+00  0.00000000000E+00  0.74505805969E-08  0.10566000000E+00  0.10566000000E+00 0. -1.
     999900   -1    0    0    0    0 -0.00000000000E+00 -0.00000000000E+00 -0.74505805969E-08  0.93827000000E+00  0.93827000000E+00 0.  1.
     999902    2    1    2    0    0  0.15759897493E-01 -0.16770555927E-01 -0.94447282586E-02  0.10190537300E+01  0.10187500557E+01 0.  0.
     999903    2    3    3    0    0  0.24909089961E-01 -0.56706515937E-01 -0.11467571672E+00  0.13183777575E+00  0.19864224054E-01 0.  0.
         14    1    1    2    0    0 -0.15759897493E-01  0.16770555927E-01  0.94447282586E-02  0.24876269957E-01  0.00000000000E+00 0.  1.
     999901    1    3    3    0    0 -0.91491924681E-02  0.39935960011E-01  0.10523098846E+00  0.88721595430E+00  0.88000000000E+00 0. -1.
        -11    1    4    4    0    0  0.23315010633E-01 -0.45121276350E-01 -0.75845284713E-01  0.91281365209E-01  0.51100000000E-03 0. -1.
         11    1    4    4    0    0  0.15940793283E-02 -0.11585239587E-01 -0.38830432003E-01  0.40556410539E-01  0.51100000000E-03 0.  1.
</event>
<event>
 7    1  0.1084146E+005  0.1043930E+01  0.7957747E-01            NaN
         13   -1    0    0    0    0  0.00000000000E+00  0.00000000000E+00  0.74505805969E-08  0.10566000000E+00  0.10566000000E+00 0.  1.
     999900   -1    0    0    0    0 -0.00000000000E+00 -0.00000000000E+00 -0.74505805969E-08  0.93827000000E+00  0.93827000000E+00 0. -1.
     999903    2    1    2    0    0  0.97364218893E-01  0.13852397905E-01  0.56134023987E-02  0.10075400605E+00  0.21170248000E-01 0.  0.
         14    1    1    2    0    0 -0.50071931174E-01  0.51830137500E-02 -0.34833679767E-01  0.61216396244E-01  0.00000000000E+00 0. -1.
     999901    1    1    2    0    0 -0.47292287720E-01 -0.19035411655E-01  0.29220277369E-01  0.88195959771E+00  0.88000000000E+00 0.  1.
        -11    1    3    3    0    0  0.94753208036E-01  0.93843965213E-02  0.66554596591E-02  0.95450477189E-01  0.51100000000E-03 0.  1.
         11    1    3    3    0    0  0.26110108569E-02  0.44680013836E-02 -0.10420572603E-02  0.53035288622E-02  0.51100000000E-03 0. -1.
</event>
<event>
 8    1  0.1084146E+005  0.1043930E+01  0.7957747E-01            NaN
         13   -1    0    0    0    0  0.00000000000E+00  0.00000000000E+00  0.74505805969E-08  0.10566000000E+00  0.10566000000E+00 0.  1.
     999900   -1    0    0    0    0 -0.00000000000E+00 -0.00000000000E+00 -0.74505805969E-08  0.93827000000E+00  0.93827000000E+00 0.  1.
     999902    2    1    2    0    0 -0.10480503451E-02 -0.15838520936E-01 -0.17348631037E-01  0.10204154906E+01  0.10201445198E+01 0.  0.
     999903    2    3    3    0    0  0.11775947769E+00 -0.30350405284E-01 -0.46951199217E-01  0.13181989327E+00  0.19586410259E-01 0.  0.
         14    1    1    2    0    0  0.10480503451E-02  0.15838520936E-01  0.17348631037E-01  0.23514509432E-01  0.00000000000E+00 0. -1.
     999901    1    3    3    0    0 -0.11880752803E+00  0.14511884348E-01  0.29602568181E-01  0.88859559730E+00  0.88000000000E+00 0. -1.
        -11    1    4    4    0    0  0.75813988072E-01 -0.11726663909E-01 -0.23240622436E-01  0.80160233819E-01  0.51100000000E-03 0. -1.
         11    1    4    4    0    0  0.41945489614E-01 -0.18623741376E-01 -0.23710576781E-01  0.51659659446E-01  0.51100000000E-03 0.  1.
</event>
<event>
 8    1  0.1084146E+005  0.1043930E+01  0.7957747E-01            NaN
         13   -1    0    0    0    0  0.00000000000E+00  0.00000000000E+00  0.74505805969E-08  0.10566000000E+00  0.10566000000E+00 0. -1.
     999900   -1    0    0    0    0 -0.00000000000E+00 -0.00000000000E+00 -0.74505805969E-08  0.93827000000E+00  0.93827000000E+00 0. -1.
     999902    2    1    2    0    0  0.70398765433E-02 -0.76821714335E-02 -0.22222682201E-01  0.10193856886E+01  0.10190901623E+01 0.  0.
     999903    2    3    3    0    0 -0.52410108245E-01  0.34603961589E-01 -0.11401508331E+00  0.13160854162E+00  0.19419459329E-01 0.  0.
         14    1    1    2    0    0 -0.70398765433E-02  0.76821714335E-02  0.22222682201E-01  0.24544311436E-01  0.00000000000E+00 0. -1.
     999901    1    3    3    0    0  0.59449984788E-01 -0.42286133022E-01  0.91792401110E-01  0.88777714695E+00  0.88000000000E+00 0.  1.
        -11    1    4    4    0    0 -0.35978304897E-01  0.21227326047E-01 -0.92043492939E-01  0.10108067821E+00  0.51100000000E-03 0.  1.
         11    1    4    4    0    0 -0.16431803348E-01  0.13376635542E-01 -0.21971590372E-01  0.30527863406E-01  0.51100000000E-03 0. -1.
</event>
<event>
 8    1  0.1084146E+005  0.1043930E+01  0.7957747E-01            NaN
         13   -1    0    0    0    0  0.00000000000E+00  0.00000000000E+00  0.74505805969E-08  0.10566000000E+00  0.10566000000E+00 0.  1.
     999900   -1    0    0    0    0 -0.00000000000E+00 -0.00000000000E+00 -0.74505805969E-08  0.93827000000E+00  0.93827000000E+00 0. -1.
     999902    2    1    2    0    0  0.82978286771E-02 -0.23561670852E-01 -0.28143163398E-01  0.10062996407E+01  0.10055958050E+01 0.  0.
     999903    2    3    3    0    0 -0.64876881277E-01  0.92152152190E-01  0.96984493645E-02  0.11490959439E+00  0.20226865451E-01 0.  0.
         14    1    1    2    0    0 -0.82978286771E-02  0.23561670852E-01  0.28143163398E-01  0.37630359288E-01  0.00000000000E+00 0.  1.
     999901    1    3    3    0    0  0.73174709954E-01 -0.11571382304E+00 -0.37841612763E-01  0.89139004632E+00  0.88000000000E+00 0. -1.
        -11    1    4    4    0    0 -0.37157776717E-01  0.56330961288E-01 -0.39549679598E-02  0.67600151352E-01  0.51100000000E-03 0.  1.
         11    1    4    4    0    0 -0.27719104560E-01  0.35821190902E-01  0.13653417324E-01  0.47309443041E-01  0.51100000000E-03 0. -1.
</event>
<event>
 8    1  0.1084146E+005  0.1043930E+01  0.7957747E-01            NaN
         13   -1    0    0    0    0  0.00000000000E+00  0.00000000000E+00  0.74505805969E-08  0.10566000000E+00  0.10566000000E+00 0.  1.
     999900   -1    0    0    0    0 -0.00000000000E+00 -0.00000000000E+00 -0.74505805969E-08  0.93827000000E+00  0.93827000000E+00 0. -1.
     999902    2    1    2    0    0 -0.20396948779E-01  0.11314489587E-01  0.52646222873E-02  0.10200182991E+01  0.10197379864E+01 0.  0.
     999903    2    3    3    0    0  0.11022553459E+00  0.41154236366E-01  0.48473977961E-01  0.12882825644E+00  0.20091129157E-01 0.  0.
         14    1    1    2    0    0  0.20396948779E-01 -0.11314489587E-01 -0.52646222873E-02  0.23911700942E-01  0.00000000000E+00 0.  1.
     999901    1    3    3    0    0 -0.13062248337E+00 -0.29839746779E-01 -0.43209355673E-01  0.89119004262E+00  0.88000000000E+00 0.  1.
        -11    1    4    4    0    0  0.46016102635E-01  0.15660199529E-01  0.95810916458E-02  0.49545756520E-01  0.51100000000E-03 0. -1.
         11    1    4    4    0    0  0.64209431955E-01  0.25494036837E-01  0.38892886315E-01  0.79282499917E-01  0.51100000000E-03 0.  1.
</event>
<event>
 8    1  0.1084146E+005  0.1043930E+01  0.7957747E-01            NaN
         13   -1    0    0    0    0  0.00000000000E+00  0.00000000000E+00  0.74505805969E-08  0.10566000000E+00  0.10566000000E+00 0.  1.
     999900   -1    0    0    0    0 -0.00000000000E+00 -0.00000000000E+00 -0.74505805969E-08  0.93827000000E+00  0.93827000000E+00 0.  1.
     999902    2    1    2    0    0  0.14990438339E-01  0.90442806214E-03  0.17665044833E-01  0.10207441198E+01  0.10204807559E+01 0.  0.
     999903    2    3    3    0    0  0.63163518323E-02  0.11321592890E+00  0.66116146543E-01  0.13224165933E+00  0.16086291415E-01 0.  0.
         14    1    1    2    0    0 -0.14990438339E-01 -0.90442806214E-03 -0.17665044833E-01  0.23185880201E-01  0.00000000000E+00 0. -1.
     999901    1    3    3    0    0  0.86740865067E-02 -0.11231150084E+00 -0.48451101709E-01  0.88850246047E+00  0.88000000000E+00 0.  1.
        -11    1    4    4    0    0 -0.27385281549E-02  0.81207384761E-01  0.46432864395E-01  0.93586381985E-01  0.51100000000E-03 0. -1.
         11    1    4    4    0    0  0.90548799872E-02  0.32008544143E-01  0.19683282148E-01  0.38655277348E-01  0.51100000000E-03 0.  1.
</event>
<event>
 8    1  0.1084146E+005  0.1043930E+01  0.7957747E-01            NaN
         13   -1    0    0    0    0  0.00000000000E+00  0.00000000000E+00  0.74505805969E-08  0.10566000000E+00  0.10566000000E+00 0. -1.
     999900   -1    0    0    0    0 -0.00000000000E+00 -0.00000000000E+00 -0.74505805969E-08  0.93827000000E+00  0.93827000000E+00 0.  1.
     999902    2    1    2    0    0  0.16147418692E-01 -0.17833853715E-01 -0.33442500548E-02  0.10196407127E+01  0.10193513690E+01 0.  0.
     999903    2    3    3    0    0 -0.15269453239E-01 -0.98644196257E-01 -0.83414801377E-01  0.13176199098E+00  0.20960904597E-01 0.  0.
         14    1    1    2    0    0 -0.16147418692E-01  0.17833853715E-01  0.33442500548E-02  0.24289287292E-01  0.00000000000E+00 0.  1.
     999901    1    3    3    0    0  0.31416871931E-01  0.80810342542E-01  0.80070551322E-01  0.88787872173E+00  0.88000000000E+00 0. -1.
        -11    1    4    4    0    0 -0.16256781795E-01 -0.45555938786E-01 -0.46444981730E-01  0.67059853578E-01  0.51100000000E-03 0. -1.
         11    1    4    4    0    0  0.98732855602E-03 -0.53088257471E-01 -0.36969819647E-01  0.64702137405E-01  0.51100000000E-03 0.  1.
</event>
<event>
 8    1  0.1084146E+005  0.1043930E+01  0.7957747E-01            NaN
         13   -1    0    0    0    0  0.00000000000E+00  0.00000000000E+00  0.74505805969E-08  0.10566000000E+00  0.10566000000E+00 0. -1.
     999900   -1    0    0    0    0 -0.00000000000E+00 -0.00000000000E+00 -0.74505805969E-08  0.93827000000E+00  0.93827000000E+00 0. -1.
     999902    2    1    2    0    0 -0.10891684879E-01  0.16151319898E-01  0.16812787708E-01  0.10181974571E+01  0.10178722404E+01 0.  0.
     999903    2    3    3    0    0  0.70064476255E-01  0.48664115994E-01  0.96391314946E-01  0.13031023231E+00  0.20303793465E-01 0.  0.
         14    1    1    2    0    0  0.10891684879E-01 -0.16151319898E-01 -0.16812787708E-01  0.25732542907E-01  0.00000000000E+00 0.  1.
     999901    1    3    3    0    0 -0.80956161134E-01 -0.32512796096E-01 -0.79578527238E-01  0.88788722478E+00  0.88000000000E+00 0. -1.
        -11    1    4    4    0    0  0.33301410026E-01  0.26709466395E-01  0.33706128365E-01  0.54394335322E-01  0.51100000000E-03 0. -1.
         11    1    4    4    0    0  0.36763066229E-01  0.21954649599E-01  0.62685186582E-01  0.75915896987E-01  0.51100000000E-03 0.  1.
</event>
<event>
 8    1  0.1084146E+005  0.1043930E+01  0.7957747E-01            NaN
         13   -1    0    0    0    0  0.00000000000E+00  0.00000000000E+00  0.74505805969E-08  0.10566000000E+00  0.10566000000E+00 0. -1.
     999900   -1    0    0    0    0 -0.00000000000E+00 -0.00000000000E+00 -0.74505805969E-08  0.93827000000E+00  0.93827000000E+00 0. -1.
     999902    2    1    2    0    0  0.17124462587E-01 -0.13040414322E-01 -0.50276156485E-02  0.10218262324E+01  0.10215871341E+01 0.  0.
     999903    2    3    3    0    0 -0.86465571618E-01 -0.92941726785E-01  0.28045599300E-01  0.13154034993E+00  0.20046155886E-01 0.  0.
         14    1    1    2    0    0 -0.17124462587E-01  0.13040414322E-01  0.50276156485E-02  0.22103767636E-01  0.00000000000E+00 0. -1.
     999901    1    3    3    0    0  0.10359003421E+00  0.79901312463E-01 -0.33073214948E-01  0.89028588244E+00  0.88000000000E+00 0. -1.
        -11    1    4    4    0    0 -0.31566824868E-01 -0.20607783685E-01  0.77039092435E-02  0.38480599259E-01  0.51100000000E-03 0.  1.
         11    1    4    4    0    0 -0.54898746750E-01 -0.72333943100E-01  0.20341690056E-01  0.93059750668E-01  0.51100000000E-03 0. -1.
</event>
<event>
 8    1  0.1084146E+005  0.1043930E+01  0.7957747E-01            NaN
         13   -1    0    0    0    0  0.00000000000E+00  0.00000000000E+00  0.74505805969E-08  0.10566000000E+00  0.10566000000E+00 0. -1.
     999900   -1    0    0    0    0 -0.00000000000E+00 -0.00000000000E+00 -0.74505805969E-08  0.93827000000E+00  0.93827000000E+00 0.  1.
     999902    2    1    2    0    0  0.16280879533E-02 -0.18076349197E-01 -0.15248118262E-01  0.10202253553E+01  0.10199499328E+01 0.  0.
     999903    2    3    3    0    0  0.11672976110E+00 -0.31018610069E-01 -0.48277755901E-01  0.13202106896E+00  0.22601540590E-01 0.  0.
         14    1    1    2    0    0 -0.16280879533E-02  0.18076349197E-01  0.15248118262E-01  0.23704644718E-01  0.00000000000E+00 0. -1.
     999901    1    3    3    0    0 -0.11510167315E+00  0.12942260872E-01  0.33029637640E-01  0.88820428632E+00  0.88000000000E+00 0. -1.
        -11    1    4    4    0    0  0.28369113039E-01 -0.64173773606E-02 -0.22407014210E-01  0.36719541304E-01  0.51100000000E-03 0.  1.
         11    1    4    4    0    0  0.88360648063E-01 -0.24601232708E-01 -0.25870741692E-01  0.95301527656E-01  0.51100000000E-03 0. -1.
</event>
<event>
 8    1  0.1084146E+005  0.1043930E+01  0.7957747E-01            NaN
         13   -1    0    0    0    0  0.00000000000E+00  0.00000000000E+00  0.74505805969E-08  0.10566000000E+00  0.10566000000E+00 0.  1.
     999900   -1    0    0    0    0 -0.00000000000E+00 -0.00000000000E+00 -0.74505805969E-08  0.93827000000E+00  0.93827000000E+00 0.  1.
     999902    2    1    2    0    0  0.18855308836E-01  0.94547855552E-02  0.64318028616E-02  0.10218781581E+01  0.10216401942E+01 0.  0.
     999903    2    3    3    0    0  0.53073734545E-01  0.40438649557E-01  0.11429172885E+00  0.13409177386E+00  0.21584690344E-01 0.  0.
         14    1    1    2    0    0 -0.18855308836E-01 -0.94547855552E-02 -0.64318028616E-02  0.22051841856E-01  0.00000000000E+00 0. -1.
     999901    1    3    3    0    0 -0.34218425709E-01 -0.30983864001E-01 -0.10785992599E+00  0.88778638428E+00  0.88000000000E+00 0.  1.
        -11    1    4    4    0    0  0.15084475230E-01  0.10030655940E-02  0.20365698576E-01  0.25368688043E-01  0.51100000000E-03 0.  1.
         11    1    4    4    0    0  0.37989259315E-01  0.39435583963E-01  0.93926030272E-01  0.10872308582E+00  0.51100000000E-03 0. -1.
</event>
<event>
 8    1  0.1084146E+005  0.1043930E+01  0.7957747E-01            NaN
         13   -1    0    0    0    0  0.00000000000E+00  0.00000000000E+00  0.74505805969E-08  0.10566000000E+00  0.10566000000E+00 0.  1.
     999900   -1    0    0    0    0 -0.00000000000E+00 -0.00000000000E+00 -0.74505805969E-08  0.93827000000E+00  0.93827000000E+00 0. -1.
     999902    2    1    2    0    0  0.97074727992E-02  0.88030174508E-02 -0.19963597913E-01  0.10200496025E+01  0.10197700320E+01 0.  0.
     999903    2    3    3    0    0  0.55850714180E-01  0.32161132364E-01 -0.11518484990E+00  0.13340317515E+00  0.19370513273E-01 0.  0.
         14    1    1    2    0    0 -0.97074727992E-02 -0.88030174508E-02  0.19963597913E-01  0.23880397527E-01  0.00000000000E+00 0.  1.
     999901    1    3    3    0    0 -0.46143241381E-01 -0.23358114914E-01  0.95221251985E-01  0.88664642732E+00  0.88000000000E+00 0.  1.
        -11    1    4    4    0    0  0.43650961153E-01  0.16758466629E-01 -0.70637522802E-01  0.84712297583E-01  0.51100000000E-03 0. -1.
         11    1    4    4    0    0  0.12199753028E-01  0.15402665735E-01 -0.44547327096E-01  0.48690877566E-01  0.51100000000E-03 0.  1.
</event>
<event>
 8    1  0.1084146E+005  0.1043930E+01  0.7957747E-01            NaN
         13   -1    0    0    0    0  0.00000000000E+00  0.00000000000E+00  0.74505805969E-08  0.10566000000E+00  0.10566000000E+00 0.  1.
     999900   -1    0    0    0    0 -0.00000000000E+00 -0.00000000000E+00 -0.74505805969E-08  0.93827000000E+00  0.93827000000E+00 0.  1.
     999902    2    1    2    0    0  0.12884186271E-01  0.21868360613E-02 -0.51233064562E-02  0.10298931636E+01  0.10297975022E+01 0.  0.
     999903    2    3    3    0    0  0.91567015887E-01  0.61553459743E-01  0.84138923661E-01  0.13990264148E+00  0.17889768427E-01 0.  0.
         14    1    1    2    0    0 -0.12884186271E-01 -0.21868360613E-02  0.51233064562E-02  0.14036836427E-01  0.00000000000E+00 0.  1.
     999901    1    3    3    0    0 -0.78682829615E-01 -0.59366623682E-01 -0.89262230117E-01  0.88999052209E+00  0.88000000000E+00 0.  1.
        -11    1    4    4    0    0  0.40008423758E-01  0.31900776864E-01  0.29115050321E-01  0.58875128980E-01  0.51100000000E-03 0.  1.
         11    1    4    4    0    0  0.51558592129E-01  0.29652682879E-01  0.55023873340E-01  0.81027512504E-01  0.51100000000E-03 0. -1.
</event>
<event>
 8    1  0.1084146E+005  0.1043930E+01  0.7957747E-01            NaN
         13   -1    0    0    0    0  0.00000000000E+00  0.00000000000E+00  0.74505805969E-08  0.10566000000E+00  0.10566000000E+00 0.  1.
     999900   -1    0    0    0    0 -0.00000000000E+00 -0.00000000000E+00 -0.74505805969E-08  0.93827000000E+00  0.93827000000E+00 0.  1.
     999902    2    1    2    0    0 -0.67925227457E-02 -0.30208019738E-02 -0.23271754783E-01  0.10194997282E+01  0.10192069749E+01 0.  0.
     999903    2    3    3    0    0  0.10913501761E-01  0.35105757898E-01  0.11981901733E+00  0.12695163037E+00  0.20213875928E-01 0.  0.
         14    1    1    2    0    0  0.67925227457E-02  0.30208019738E-02  0.23271754783E-01  0.24430271806E-01  0.00000000000E+00 0.  1.
     999901    1    3    3    0    0 -0.17706024507E-01 -0.38126559872E-01 -0.14309077212E+00  0.89254809783E+00  0.88000000000E+00 0.  1.
        -11    1    4    4    0    0 -0.33867453384E-02  0.93881146297E-02  0.14588713819E-01  0.17683281149E-01  0.51100000000E-03 0. -1.
         11    1    4    4    0    0  0.14300247099E-01  0.25717643268E-01  0.10523030351E+00  0.10926834922E+00  0.51100000000E-03 0.  1.
</event>
<event>
 8    1  0.1084146E+005  0.1043930E+01  0.7957747E-01            NaN
         13   -1    0    0    0    0  0.00000000000E+00  0.00000000000E+00  0.74505805969E-08  0.10566000000E+00  0.10566000000E+00 0. -1.
     999900   -1    0    0    0    0 -0.00000000000E+00 -0.00000000000E+00 -0.74505805969E-08  0.93827000000E+00  0.93827000000E+00 0. -1.
     999902    2    1    2    0    0  0.20026226433E-01 -0.14573177716E-01  0.26419118151E-02  0.10190220304E+01  0.10187175719E+01 0.  0.
     999903    2    3    3    0    0 -0.10368115674E+00  0.60707740305E-01 -0.31599549213E-01  0.12652933519E+00  0.23998524048E-01 0.  0.
         14    1    1    2    0    0 -0.20026226433E-01  0.14573177716E-01 -0.26419118151E-02  0.24907969647E-01  0.00000000000E+00 0. -1.
     999901    1    3    3    0    0  0.12370738317E+00 -0.75280918021E-01  0.34241461028E-01  0.89249269517E+00  0.88000000000E+00 0.  1.
        -11    1    4    4    0    0 -0.82672366764E-01  0.50987446992E-01 -0.34751044837E-01  0.10316169936E+00  0.51100000000E-03 0. -1.
         11    1    4    4    0    0 -0.21008789977E-01  0.97202933136E-02  0.31514956239E-02  0.23367635826E-01  0.51100000000E-03 0.  1.
</event>
<event>
 8    1  0.1084146E+005  0.1043930E+01  0.7957747E-01            NaN
         13   -1    0    0    0    0  0.00000000000E+00  0.00000000000E+00  0.74505805969E-08  0.10566000000E+00  0.10566000000E+00 0.  1.
     999900   -1    0    0    0    0 -0.00000000000E+00 -0.00000000000E+00 -0.74505805969E-08  0.93827000000E+00  0.93827000000E+00 0.  1.
     999902    2    1    2    0    0 -0.16830958166E-01  0.16458352047E-01 -0.22197897138E-02  0.10202850011E+01  0.10200109791E+01 0.  0.
     999903    2    3    3    0    0 -0.61483166340E-01  0.47498278511E-01 -0.10499035079E+00  0.13263693746E+00  0.23093661767E-01 0.  0.
         14    1    1    2    0    0  0.16830958166E-01 -0.16458352047E-01  0.22197897138E-02  0.23644998864E-01  0.00000000000E+00 0. -1.
     999901    1    3    3    0    0  0.44652208174E-01 -0.31039926464E-01  0.10277056108E+00  0.88764806368E+00  0.88000000000E+00 0. -1.
        -11    1    4    4    0    0 -0.13477029706E-01  0.73908614226E-02 -0.83048749405E-02  0.17478193014E-01  0.51100000000E-03 0.  1.
         11    1    4    4    0    0 -0.48006136634E-01  0.40107417088E-01 -0.96685475851E-01  0.11515874444E+00  0.51100000000E-03 0. -1.
</event>
<event>
 8    1  0.1084146E+005  0.1043930E+01  0.7957747E-01            NaN
         13   -1    0    0    0    0  0.00000000000E+00  0.00000000000E+00  0.74505805969E-08  0.10566000000E+00  0.10566000000E+00 0.  1.
     999900   -1    0    0    0    0 -0.00000000000E+00 -0.00000000000E+00 -0.74505805969E-08  0.93827000000E+00  0.93827000000E+00 0. -1.
     999902    2    1    2    0    0  0.72053128120E-02 -0.10994063966E-01 -0.19579146140E-01  0.10203476138E+01  0.10200750580E+01 0.  0.
     999903    2    3    3    0    0 -0.10861918194E+00 -0.37445569979E-02 -0.70627846229E-01  0.13126165692E+00  0.20716696730E-01 0.  0.
         14    1    1    2    0    0 -0.72053128120E-02  0.10994063966E-01  0.19579146140E-01  0.23582386198E-01  0.00000000000E+00 0.  1.
     999901    1    3    3    0    0  0.11582449475E+00 -0.72495069679E-02  0.51048700088E-01  0.88908595688E+00  0.88000000000E+00 0.  1.
        -11    1    4    4    0    0 -0.72471292988E-01 -0.12188881133E-01 -0.48235703240E-01  0.87906776296E-01  0.51100000000E-03 0.  1.
         11    1    4    4    0    0 -0.36147888952E-01  0.84443241348E-02 -0.22392142988E-01  0.43354880629E-01  0.51100000000E-03 0. -1.
</event>
<event>
 8    1  0.1084146E+005  0.1043930E+01  0.7957747E-01            NaN
         13   -1    0    0    0    0  0.00000000000E+00  0.00000000000E+00  0.74505805969E-08  0.10566000000E+00  0.10566000000E+00 0.  1.
     999900   -1    0    0    0    0 -0.00000000000E+00 -0.00000000000E+00 -0.74505805969E-08  0.93827000000E+00  0.93827000000E+00 0. -1.
     999902    2    1    2    0    0 -0.12490755021E-01  0.13886607458E-01 -0.16080286427E-01  0.10192838555E+01  0.10189858417E+01 0.  0.
     999903    2    3    3    0    0 -0.66937280087E-01 -0.69007224981E-02 -0.11201965793E+00  0.13215314348E+00  0.19693403287E-01 0.  0.
         14    1    1    2    0    0  0.12490755021E-01 -0.13886607458E-01  0.16080286427E-01  0.24646144511E-01  0.00000000000E+00 0.  1.
     999901    1    3    3    0    0  0.54446525065E-01  0.20787329957E-01  0.95939371505E-01  0.88713071201E+00  0.88000000000E+00 0.  1.
        -11    1    4    4    0    0 -0.15052937189E-01 -0.99105838892E-02 -0.32184664873E-01  0.36890708384E-01  0.51100000000E-03 0.  1.
         11    1    4    4    0    0 -0.51884342898E-01  0.30098613911E-02 -0.79834993058E-01  0.95262435100E-01  0.51100000000E-03 0. -1.
</event>
<event>
 8    1  0.1084146E+005  0.1043930E+01  0.7957747E-01            NaN
         13   -1    0    0    0    0  0.00000000000E+00  0.00000000000E+00  0.74505805969E-08  0.10566000000E+00  0.10566000000E+00 0. -1.
     999900   -1    0    0    0    0 -0.00000000000E+00 -0.00000000000E+00 -0.74505805969E-08  0.93827000000E+00  0.93827000000E+00 0.  1.
     999902    2    1    2    0    0  0.15220813313E-01  0.18296583433E-01 -0.35222253342E-03  0.10201274332E+01  0.10198497036E+01 0.  0.
     999903    2    3    3    0    0  0.26463299987E-01  0.11202348225E+00  0.63262801167E-01  0.13279547941E+00  0.19567588429E-01 0.  0.
         14    1    1    2    0    0 -0.15220813313E-01 -0.18296583433E-01  0.35222253342E-03  0.23802566751E-01  0.00000000000E+00 0. -1.
     999901    1    3    3    0    0 -0.11242486674E-01 -0.93726898821E-01 -0.63615023700E-01  0.88733195384E+00  0.88000000000E+00 0.  1.
        -11    1    4    4    0    0  0.12785263417E-01  0.24757859754E-01  0.97890708544E-02  0.29538138218E-01  0.51100000000E-03 0. -1.
         11    1    4    4    0    0  0.13678036570E-01  0.87265622500E-01  0.53473730313E-01  0.10325734119E+00  0.51100000000E-03 0.  1.
</event>
<event>
 8    1  0.1084146E+005  0.1043930E+01  0.7957747E-01            NaN
         13   -1    0    0    0    0  0.00000000000E+00  0.00000000000E+00  0.74505805969E-08  0.10566000000E+00  0.10566000000E+00 0. -1.
     999900   -1    0    0    0    0 -0.00000000000E+00 -0.00000000000E+00 -0.74505805969E-08  0.93827000000E+00  0.93827000000E+00 0. -1.
     999902    2    1    2    0    0  0.20730227885E-02 -0.23604045404E-01 -0.35934026688E-02  0.10199641717E+01  0.10196825735E+01 0.  0.
     999903    2    3    3    0    0  0.49557538844E-01 -0.11592211523E+00 -0.37757896572E-01  0.13320342724E+00  0.20581735106E-01 0.  0.
         14    1    1    2    0    0 -0.20730227885E-02  0.23604045404E-01  0.35934026688E-02  0.23965828291E-01  0.00000000000E+00 0. -1.
     999901    1    3    3    0    0 -0.47484516055E-01  0.92318069827E-01  0.34164493903E-01  0.88676074447E+00  0.88000000000E+00 0.  1.
        -11    1    4    4    0    0  0.34028240555E-01 -0.54452465419E-01 -0.16059897128E-01  0.66190434069E-01  0.51100000000E-03 0.  1.
         11    1    4    4    0    0  0.15529298289E-01 -0.61469649812E-01 -0.21697999444E-01  0.67012993175E-01  0.51100000000E-03 0. -1.
</event>
<event>
 8    1  0.1084146E+005  0.1043930E+01  0.7957747E-01            NaN
         13   -1    0    0    0    0  0.00000000000E+00  0.00000000000E+00  0.74505805969E-08  0.10566000000E+00  0.10566000000E+00 0. -1.
     999900   -1    0    0    0    0 -0.00000000000E+00 -0.00000000000E+00 -0.74505805969E-08  0.93827000000E+00  0.93827000000E+00 0. -1.
     999902    2    1    2    0    0 -0.47897057823E-03  0.23460719337E-01 -0.11650723292E-01  0.10177312573E+01  0.10173939935E+01 0.  0.
     999903    2    3    3    0    0  0.34578680559E-02  0.20224944904E-01 -0.12705707509E+00  0.13018148690E+00  0.19563076271E-01 0.  0.
         14    1    1    2    0    0  0.47897057823E-03 -0.23460719337E-01  0.11650723292E-01  0.26198742677E-01  0.00000000000E+00 0. -1.
     999901    1    3    3    0    0 -0.39368386341E-02  0.32357744334E-02  0.11540635180E+00  0.88754977042E+00  0.88000000000E+00 0.  1.
        -11    1    4    4    0    0 -0.69925796680E-03  0.11907081996E-01 -0.25042032166E-01  0.27742243228E-01  0.51100000000E-03 0.  1.
         11    1    4    4    0    0  0.41571260227E-02  0.83178629085E-02 -0.10201504293E+00  0.10243924368E+00  0.51100000000E-03 0. -1.
</event>
<event>
 8    1  0.1084146E+005  0.1043930E+01  0.7957747E-01            NaN
         13   -1    0    0    0    0  0.00000000000E+00  0.00000000000E+00  0.74505805969E-08  0.10566000000E+00  0.10566000000E+00 0. -1.
     999900   -1    0    0    0    0 -0.00000000000E+00 -0.00000000000E+00 -0.74505805969E-08  0.93827000000E+00  0.93827000000E+00 0.  1.
     999902    2    1    2    0    0 -0.10876646975E-01  0.18238377839E-02 -0.20534651158E-01  0.10206212091E+01  0.10203550131E+01 0.  0.
     999903    2    3    3    0    0  0.34659884926E-01 -0.11232849961E+00 -0.55246254762E-01  0.13140288538E+00  0.19888945962E-01 0.  0.
         14    1    1    2    0    0  0.10876646975E-01 -0.18238377839E-02  0.20534651158E-01  0.23308790871E-01  0.00000000000E+00 0. -1.
     999901    1    3    3    0    0 -0.45536531901E-01  0.11415233740E+00  0.34711603603E-01  0.88921832375E+00  0.88000000000E+00 0. -1.
        -11    1    4    4    0    0  0.93510163297E-02 -0.11495359586E-01 -0.10773275242E-01  0.18327830718E-01  0.51100000000E-03 0. -1.
         11    1    4    4    0    0  0.25308868596E-01 -0.10083314003E+00 -0.44472979520E-01  0.11307505466E+00  0.51100000000E-03 0.  1.
</event>
<event>
 8    1  0.1084146E+005  0.1043930E+01  0.7957747E-01            NaN
         13   -1    0    0    0    0  0.00000000000E+00  0.00000000000E+00  0.74505805969E-08  0.10566000000E+00  0.10566000000E+00 0. -1.
     999900   -1    0    0    0    0 -0.00000000000E+00 -0.00000000000E+00 -0.74505805969E-08  0.93827000000E+00  0.93827000000E+00 0.  1.
     999902    2    1    2    0    0  0.13797488200E-01  0.19818763092E-01 -0.20489031088E-02  0.10196946528E+01  0.10194066082E+01 0.  0.
     999903    2    3    3    0    0  0.17242497183E-02  0.53300598794E-01 -0.11821719036E+00  0.13134682260E+00  0.20802808537E-01 0.  0.
         14    1    1    2    0    0 -0.13797488200E-01 -0.19818763092E-01  0.20489031088E-02  0.24235347224E-01  0.00000000000E+00 0.  1.
     999901    1    3    3    0    0  0.12073238481E-01 -0.33481835702E-01  0.11616828725E+00  0.88834783017E+00  0.88000000000E+00 0. -1.
        -11    1    4    4    0    0 -0.68913909076E-02  0.39377167463E-01 -0.72637305015E-01  0.82912555062E-01  0.51100000000E-03 0. -1.
         11    1    4    4    0    0  0.86156406259E-02  0.13923431331E-01 -0.45579885343E-01  0.48434267542E-01  0.51100000000E-03 0.  1.
</event>
<event>
 8    1  0.1084146E+005  0.1043930E+01  0.7957747E-01            NaN
         13   -1    0    0    0    0  0.00000000000E+00  0.00000000000E+00  0.74505805969E-08  0.10566000000E+00  0.10566000000E+00 0. -1.
     999900   -1    0    0    0    0 -0.00000000000E+00 -0.00000000000E+00 -0.74505805969E-08  0.93827000000E+00  0.93827000000E+00 0.  1.
     999902    2    1    2    0    0 -0.15743933692E-01  0.17233036762E-01 -0.32292585514E-02  0.10203656813E+01  0.10200935479E+01 0.  0.
     999903    2    3    3    0    0  0.60806700649E-01  0.11502508600E+00 -0.32789371678E-02  0.13164565399E+00  0.19788924471E-01 0.  0.
         14    1    1    2    0    0  0.15743933692E-01 -0.17233036762E-01  0.32292585514E-02  0.23564318682E-01  0.00000000000E+00 0. -1.
     999901    1    3    3    0    0 -0.76550634341E-01 -0.97792049237E-01  0.49678616359E-04  0.88872002733E+00  0.88000000000E+00 0. -1.
        -11    1    4    4    0    0  0.15580656528E-01  0.26286782374E-01  0.74876609454E-02  0.31465504490E-01  0.51100000000E-03 0. -1.
         11    1    4    4    0    0  0.45226044121E-01  0.88738303626E-01 -0.10766598113E-01  0.10018014950E+00  0.51100000000E-03 0.  1.
</event>
<event>
 8    1  0.1084146E+005  0.1043930E+01  0.7957747E-01            NaN
         13   -1    0    0    0    0  0.00000000000E+00  0.00000000000E+00  0.74505805969E-08  0.10566000000E+00  0.10566000000E+00 0.  1.
     999900   -1    0    0    0    0 -0.00000000000E+00 -0.00000000000E+00 -0.74505805969E-08  0.93827000000E+00  0.93827000000E+00 0.  1.
     999902    2    1    2    0    0 -0.22785786361E-01 -0.79405949639E-03 -0.89799154901E-02  0.10194256846E+01  0.10191311324E+01 0.  0.
     999903    2    3    3    0    0 -0.35698053633E-01 -0.14398471957E-01 -0.12425628403E+00  0.13170926152E+00  0.20640698166E-01 0.  0.
         14    1    1    2    0    0  0.22785786361E-01  0.79405949639E-03  0.89799154901E-02  0.24504315391E-01  0.00000000000E+00 0.  1.
     999901    1    3    3    0    0  0.12912267272E-01  0.13604412460E-01  0.11527636854E+00  0.88771642309E+00  0.88000000000E+00 0. -1.
        -11    1    4    4    0    0 -0.22088085677E-01 -0.36302163185E-02 -0.95739561418E-01  0.98322869877E-01  0.51100000000E-03 0. -1.
         11    1    4    4    0    0 -0.13609967956E-01 -0.10768255638E-01 -0.28516722611E-01  0.33386391639E-01  0.51100000000E-03 0.  1.
</event>
<event>
 8    1  0.1084146E+005  0.1043930E+01  0.7957747E-01            NaN
         13   -1    0    0    0    0  0.00000000000E+00  0.00000000000E+00  0.74505805969E-08  0.10566000000E+00  0.10566000000E+00 0. -1.
     999900   -1    0    0    0    0 -0.00000000000E+00 -0.00000000000E+00 -0.74505805969E-08  0.93827000000E+00  0.93827000000E+00 0.  1.
     999902    2    1    2    0    0  0.14308348878E-01  0.77883808553E-02  0.16807420285E-01  0.10205232253E+01  0.10202547605E+01 0.  0.
     999903    2    3    3    0    0 -0.17963358150E-01 -0.54539487566E-02  0.12989739356E+00  0.13260083884E+00  0.18900312538E-01 0.  0.
         14    1    1    2    0    0 -0.14308348878E-01 -0.77883808553E-02 -0.16807420285E-01  0.23406774673E-01  0.00000000000E+00 0.  1.
     999901    1    3    3    0    0  0.32271707028E-01  0.13242329612E-01 -0.11308997328E+00  0.88792238649E+00  0.88000000000E+00 0.  1.
        -11    1    4    4    0    0 -0.12281859255E-01  0.15943680715E-02  0.32521243900E-01  0.34803426586E-01  0.51100000000E-03 0.  1.
         11    1    4    4    0    0 -0.56814988951E-02 -0.70483168282E-02  0.97376149662E-01  0.97797412255E-01  0.51100000000E-03 0. -1.
</event>
<event>
 8    1  0.1084146E+005  0.1043930E+01  0.7957747E-01            NaN
         13   -1    0    0    0    0  0.00000000000E+00  0.00000000000E+00  0.74505805969E-08  0.10566000000E+00  0.10566000000E+00 0. -1.
     999900   -1    0    0    0    0 -0.00000000000E+00 -0.00000000000E+00 -0.74505805969E-08  0.93827000000E+00  0.93827000000E+00 0. -1.
     999902    2    1    2    0    0 -0.18429498252E-01  0.12392984072E-01 -0.10379698780E-01  0.10194152982E+01  0.10191204931E+01 0.  0.
     999903    2    3    3    0    0  0.91582908114E-01 -0.81758715591E-01 -0.27362389592E-01  0.12741995966E+00  0.20377171578E-01 0.  0.
         14    1    1    2    0    0  0.18429498252E-01 -0.12392984072E-01  0.10379698780E-01  0.24514701850E-01  0.00000000000E+00 0.  1.
     999901    1    3    3    0    0 -0.11001240637E+00  0.94151699663E-01  0.16982690813E-01  0.89199533849E+00  0.88000000000E+00 0. -1.
        -11    1    4    4    0    0  0.47258786750E-01 -0.36552592313E-01 -0.22776567566E-01  0.63941520790E-01  0.51100000000E-03 0. -1.
         11    1    4    4    0    0  0.44324121364E-01 -0.45206123278E-01 -0.45858220266E-02  0.63478438869E-01  0.51100000000E-03 0.  1.
</event>
<event>
 8    1  0.1084146E+005  0.1043930E+01  0.7957747E-01            NaN
         13   -1    0    0    0    0  0.00000000000E+00  0.00000000000E+00  0.74505805969E-08  0.10566000000E+00  0.10566000000E+00 0. -1.
     999900   -1    0    0    0    0 -0.00000000000E+00 -0.00000000000E+00 -0.74505805969E-08  0.93827000000E+00  0.93827000000E+00 0. -1.
     999902    2    1    2    0    0  0.10529121813E-01  0.17073734480E-01 -0.33986370683E-02  0.10235848397E+01  0.10233826256E+01 0.  0.
     999903    2    3    3    0    0  0.61804157841E-01 -0.63269938936E-01  0.97210135934E-01  0.13273897175E+00  0.18627533189E-01 0.  0.
         14    1    1    2    0    0 -0.10529121813E-01 -0.17073734480E-01  0.33986370683E-02  0.20345160337E-01  0.00000000000E+00 0.  1.
     999901    1    3    3    0    0 -0.51275036028E-01  0.80343673416E-01 -0.10060877300E+00  0.89084586792E+00  0.88000000000E+00 0. -1.
        -11    1    4    4    0    0  0.27708820212E-01 -0.39177272483E-01  0.44028104493E-01  0.65125820556E-01  0.51100000000E-03 0. -1.
         11    1    4    4    0    0  0.34095337628E-01 -0.24092666453E-01  0.53182031442E-01  0.67613151191E-01  0.51100000000E-03 0.  1.
</event>
<event>
 8    1  0.1084146E+005  0.1043930E+01  0.7957747E-01            NaN
         13   -1    0    0    0    0  0.00000000000E+00  0.00000000000E+00  0.74505805969E-08  0.10566000000E+00  0.10566000000E+00 0.  1.
     999900   -1    0    0    0    0 -0.00000000000E+00 -0.00000000000E+00 -0.74505805969E-08  0.93827000000E+00  0.93827000000E+00 0. -1.
     999902    2    1    2    0    0  0.81380905609E-02  0.21216427343E-01  0.10295975887E-01  0.10189826068E+01  0.10186771719E+01 0.  0.
     999903    2    3    3    0    0 -0.84828628165E-01  0.78369182818E-01  0.58646894535E-01  0.13092457967E+00  0.19083038303E-01 0.  0.
         14    1    1    2    0    0 -0.81380905609E-02 -0.21216427343E-01 -0.10295975887E-01  0.24947393183E-01  0.00000000000E+00 0. -1.
     999901    1    3    3    0    0  0.92966718726E-01 -0.57152755475E-01 -0.48350918648E-01  0.88805802715E+00  0.88000000000E+00 0. -1.
        -11    1    4    4    0    0 -0.36334981022E-01  0.39843805178E-01  0.36635017282E-01  0.65193138206E-01  0.51100000000E-03 0. -1.
         11    1    4    4    0    0 -0.48493647143E-01  0.38525377640E-01  0.22011877253E-01  0.65731441462E-01  0.51100000000E-03 0.  1.
</event>
<event>
 8    1  0.1084146E+005  0.1043930E+01  0.7957747E-01            NaN
         13   -1    0    0    0    0  0.00000000000E+00  0.00000000000E+00  0.74505805969E-08  0.10566000000E+00  0.10566000000E+00 0. -1.
     999900   -1    0    0    0    0 -0.00000000000E+00 -0.00000000000E+00 -0.74505805969E-08  0.93827000000E+00  0.93827000000E+00 0. -1.
     999902    2    1    2    0    0  0.12958421846E-01 -0.14804740515E-01  0.13299466191E-01  0.10201818034E+01  0.10199053560E+01 0.  0.
     999903    2    3    3    0    0 -0.75025448911E-01  0.95151407774E-01 -0.34714519538E-01  0.12769266689E+00  0.20437977487E-01 0.  0.
         14    1    1    2    0    0 -0.12958421846E-01  0.14804740515E-01 -0.13299466191E-01  0.23748196550E-01  0.00000000000E+00 0.  1.
     999901    1    3    3    0    0  0.87983870757E-01 -0.10995614829E+00  0.48013985728E-01  0.89248913656E+00  0.88000000000E+00 0.  1.
        -11    1    4    4    0    0 -0.48133710058E-01  0.61144331990E-01 -0.11978475440E-01  0.78735178753E-01  0.51100000000E-03 0. -1.
         11    1    4    4    0    0 -0.26891738853E-01  0.34007075784E-01 -0.22736044098E-01  0.48957488132E-01  0.51100000000E-03 0.  1.
</event>
<event>
 8    1  0.1084146E+005  0.1043930E+01  0.7957747E-01            NaN
         13   -1    0    0    0    0  0.00000000000E+00  0.00000000000E+00  0.74505805969E-08  0.10566000000E+00  0.10566000000E+00 0.  1.
     999900   -1    0    0    0    0 -0.00000000000E+00 -0.00000000000E+00 -0.74505805969E-08  0.93827000000E+00  0.93827000000E+00 0.  1.
     999902    2    1    2    0    0 -0.10517962812E-01 -0.73457311634E-02  0.18250136131E-01  0.10216218226E+01  0.10213782325E+01 0.  0.
     999903    2    3    3    0    0 -0.51124698236E-01 -0.11045524541E+00  0.52186317677E-01  0.13402273336E+00  0.20605467620E-01 0.  0.
         14    1    1    2    0    0  0.10517962812E-01  0.73457311634E-02 -0.18250136131E-01  0.22308177354E-01  0.00000000000E+00 0. -1.
     999901    1    3    3    0    0  0.40606735424E-01  0.10310951425E+00 -0.33936181546E-01  0.88759908929E+00  0.88000000000E+00 0.  1.
        -11    1    4    4    0    0 -0.17854243976E-01 -0.49167636817E-01  0.12503304435E-01  0.53784981927E-01  0.51100000000E-03 0.  1.
         11    1    4    4    0    0 -0.33270454260E-01 -0.61287608592E-01  0.39683013242E-01  0.80237751430E-01  0.51100000000E-03 0. -1.
</event>
<event>
 8    1  0.1084146E+005  0.1043930E+01  0.7957747E-01            NaN
         13   -1    0    0    0    0  0.00000000000E+00  0.00000000000E+00  0.74505805969E-08  0.10566000000E+00  0.10566000000E+00 0. -1.
     999900   -1    0    0    0    0 -0.00000000000E+00 -0.00000000000E+00 -0.74505805969E-08  0.93827000000E+00  0.93827000000E+00 0. -1.
     999902    2    1    2    0    0 -0.14015557830E-01 -0.18968224558E-01 -0.16073620992E-02  0.10202907738E+01  0.10200168871E+01 0.  0.
     999903    2    3    3    0    0  0.51714838754E-01 -0.49126999702E-01  0.10770385311E+00  0.13058353061E+00  0.19080142636E-01 0.  0.
         14    1    1    2    0    0  0.14015557830E-01  0.18968224558E-01  0.16073620992E-02  0.23639226237E-01  0.00000000000E+00 0. -1.
     999901    1    3    3    0    0 -0.65730396584E-01  0.30158775144E-01 -0.10931121521E+00  0.88970724316E+00  0.88000000000E+00 0. -1.
        -11    1    4    4    0    0  0.22481732017E-01 -0.24289773086E-01  0.33759200085E-01  0.47279658020E-01  0.51100000000E-03 0.  1.
         11    1    4    4    0    0  0.29233106737E-01 -0.24837226617E-01  0.73944653029E-01  0.83303872587E-01  0.51100000000E-03 0. -1.
</event>
<event>
 8    1  0.1084146E+005  0.1043930E+01  0.7957747E-01            NaN
         13   -1    0    0    0    0  0.00000000000E+00  0.00000000000E+00  0.74505805969E-08  0.10566000000E+00  0.10566000000E+00 0. -1.
     999900   -1    0    0    0    0 -0.00000000000E+00 -0.00000000000E+00 -0.74505805969E-08  0.93827000000E+00  0.93827000000E+00 0. -1.
     999902    2    1    2    0    0 -0.59944626684E-02  0.21832333387E-01  0.10126316203E-01  0.10191282532E+01  0.10188264179E+01 0.  0.
     999903    2    3    3    0    0 -0.14157105397E-01 -0.10198900764E+00  0.73415982414E-01  0.12817150057E+00  0.20876919579E-01 0.  0.
         14    1    1    2    0    0  0.59944626684E-02 -0.21832333387E-01 -0.10126316203E-01  0.24801746786E-01  0.00000000000E+00 0. -1.
     999901    1    3    3    0    0  0.81626427282E-02  0.12382134103E+00 -0.63289666211E-01  0.89095675264E+00  0.88000000000E+00 0. -1.
        -11    1    4    4    0    0 -0.17065158204E-01 -0.76591842186E-01  0.47307450988E-01  0.91628521509E-01  0.51100000000E-03 0.  1.
         11    1    4    4    0    0  0.29080528073E-02 -0.25397165459E-01  0.26108531426E-01  0.36542979062E-01  0.51100000000E-03 0. -1.
</event>
<event>
 8    1  0.1084146E+005  0.1043930E+01  0.7957747E-01            NaN
         13   -1    0    0    0    0  0.00000000000E+00  0.00000000000E+00  0.74505805969E-08  0.10566000000E+00  0.10566000000E+00 0.  1.
     999900   -1    0    0    0    0 -0.00000000000E+00 -0.00000000000E+00 -0.74505805969E-08  0.93827000000E+00  0.93827000000E+00 0.  1.
     999902    2    1    2    0    0  0.16712735764E-01 -0.12986108951E-01 -0.17297989926E-01  0.10165954977E+01  0.10162279424E+01 0.  0.
     999903    2    3    3    0    0 -0.58164117794E-01  0.10217887579E-01  0.10741384015E+00  0.12435225212E+00  0.20935131437E-01 0.  0.
         14    1    1    2    0    0 -0.16712735764E-01  0.12986108951E-01  0.17297989926E-01  0.27334502335E-01  0.00000000000E+00 0.  1.
     999901    1    3    3    0    0  0.74876853558E-01 -0.23203996530E-01 -0.12471183007E+00  0.89224324554E+00  0.88000000000E+00 0.  1.
        -11    1    4    4    0    0 -0.49673851931E-01  0.16203035627E-01  0.89108542267E-01  0.10329870936E+00  0.51100000000E-03 0.  1.
         11    1    4    4    0    0 -0.84902658626E-02 -0.59851480478E-02  0.18305297878E-01  0.21053542765E-01  0.51100000000E-03 0. -1.
</event>
<event>
 8    1  0.1084146E+005  0.1043930E+01  0.7957747E-01            NaN
         13   -1    0    0    0    0  0.00000000000E+00  0.00000000000E+00  0.74505805969E-08  0.10566000000E+00  0.10566000000E+00 0.  1.
     999900   -1    0    0    0    0 -0.00000000000E+00 -0.00000000000E+00 -0.74505805969E-08  0.93827000000E+00  0.93827000000E+00 0. -1.
     999902    2    1    2    0    0 -0.23052662422E-01 -0.46104075196E-02  0.11692094288E-01  0.10176738356E+01  0.10173350723E+01 0.  0.
     999903    2    3    3    0    0 -0.48279240624E-01 -0.60065658900E-01  0.10374104569E+00  0.13077774548E+00  0.20046089297E-01 0.  0.
         14    1    1    2    0    0  0.23052662422E-01  0.46104075196E-02 -0.11692094288E-01  0.26256164439E-01  0.00000000000E+00 0. -1.
     999901    1    3    3    0    0  0.25226578202E-01  0.55455251381E-01 -0.92048951404E-01  0.88689609008E+00  0.88000000000E+00 0. -1.
        -11    1    4    4    0    0 -0.27499865081E-01 -0.37315246969E-01  0.45878557519E-01  0.65220958264E-01  0.51100000000E-03 0. -1.
         11    1    4    4    0    0 -0.20779375543E-01 -0.22750411932E-01  0.57862488173E-01  0.65556787212E-01  0.51100000000E-03 0.  1.
</event>
<event>
 8    1  0.1084146E+005  0.1043930E+01  0.7957747E-01            NaN
         13   -1    0    0    0    0  0.00000000000E+00  0.00000000000E+00  0.74505805969E-08  0.10566000000E+00  0.10566000000E+00 0.  1.
     999900   -1    0    0    0    0 -0.00000000000E+00 -0.00000000000E+00 -0.74505805969E-08  0.93827000000E+00  0.93827000000E+00 0.  1.
     999902    2    1    2    0    0 -0.34759728024E-02 -0.48386064820E-02 -0.22403680756E-01  0.10207476919E+01  0.10204844100E+01 0.  0.
     999903    2    3    3    0    0 -0.52908150488E-01  0.98753516388E-01 -0.67205958451E-01  0.13216336147E+00  0.19974580778E-01 0.  0.
         14    1    1    2    0    0  0.34759728024E-02  0.48386064820E-02  0.22403680756E-01  0.23182308147E-01  0.00000000000E+00 0.  1.
     999901    1    3    3    0    0  0.49432177685E-01 -0.10359212287E+00  0.44802277695E-01  0.88858433038E+00  0.88000000000E+00 0. -1.
        -11    1    4    4    0    0 -0.18442438088E-01  0.55491916055E-01 -0.33797565002E-01  0.67542673852E-01  0.51100000000E-03 0.  1.
         11    1    4    4    0    0 -0.34465712400E-01  0.43261600333E-01 -0.33408393449E-01  0.64620687620E-01  0.51100000000E-03 0. -1.
</event>
<event>
 8    1  0.1084146E+005  0.1043930E+01  0.7957747E-01            NaN
         13   -1    0    0    0    0  0.00000000000E+00  0.00000000000E+00  0.74505805969E-08  0.10566000000E+00  0.10566000000E+00 0. -1.
     999900   -1    0    0    0    0 -0.00000000000E+00 -0.00000000000E+00 -0.74505805969E-08  0.93827000000E+00  0.93827000000E+00 0. -1.
     999902    2    1    2    0    0 -0.74536801371E-02 -0.84282438224E-03 -0.22306165675E-01  0.10203963490E+01  0.10201249318E+01 0.  0.
     999903    2    3    3    0    0  0.55555055416E-02  0.12860455784E+00  0.34928534415E-02  0.13045733255E+00  0.20902623086E-01 0.  0.
         14    1    1    2    0    0  0.74536801371E-02  0.84282438224E-03  0.22306165675E-01  0.23533650963E-01  0.00000000000E+00 0. -1.
     999901    1    3    3    0    0 -0.13009185679E-01 -0.12944738222E+00 -0.25799019116E-01  0.88993901649E+00  0.88000000000E+00 0.  1.
        -11    1    4    4    0    0  0.20014088863E-02  0.10630078672E+00  0.10414753229E-01  0.10682972948E+00  0.51100000000E-03 0.  1.
         11    1    4    4    0    0  0.35540966554E-02  0.22303771123E-01 -0.69218997875E-02  0.23627603074E-01  0.51100000000E-03 0. -1.
</event>
<event>
 8    1  0.1084146E+005  0.1043930E+01  0.7957747E-01            NaN
         13   -1    0    0    0    0  0.00000000000E+00  0.00000000000E+00  0.74505805969E-08  0.10566000000E+00  0.10566000000E+00 0. -1.
     999900   -1    0    0    0    0 -0.00000000000E+00 -0.00000000000E+00 -0.74505805969E-08  0.93827000000E+00  0.93827000000E+00 0.  1.
     999902    2    1    2    0    0 -0.22432969795E-01  0.32054139137E-02  0.54766645895E-02  0.10206167706E+01  0.10203504720E+01 0.  0.
     999903    2    3    3    0    0  0.53935586217E-02  0.97765342632E-01 -0.84338018998E-01  0.13057038233E+00  0.18670045492E-01 0.  0.
         14    1    1    2    0    0  0.22432969795E-01 -0.32054139137E-02 -0.54766645895E-02  0.23313229446E-01  0.00000000000E+00 0. -1.
     999901    1    3    3    0    0 -0.27826528417E-01 -0.94559928718E-01  0.89814683587E-01  0.89004638822E+00  0.88000000000E+00 0. -1.
        -11    1    4    4    0    0 -0.38406187797E-02  0.11618698028E-01 -0.16401025407E-01  0.20469471216E-01  0.51100000000E-03 0. -1.
         11    1    4    4    0    0  0.92341774014E-02  0.86146644604E-01 -0.67936993591E-01  0.11010091111E+00  0.51100000000E-03 0.  1.
</event>
<event>
 8    1  0.1084146E+005  0.1043930E+01  0.7957747E-01            NaN
         13   -1    0    0    0    0  0.00000000000E+00  0.00000000000E+00  0.74505805969E-08  0.10566000000E+00  0.10566000000E+00 0. -1.
     999900   -1    0    0    0    0 -0.00000000000E+00 -0.00000000000E+00 -0.74505805969E-08  0.93827000000E+00  0.93827000000E+00 0. -1.
     999902    2    1    2    0    0  0.20286403946E-01 -0.18934887506E-02 -0.12881933150E-01  0.10198246544E+01  0.10195397285E+01 0.  0.
     999903    2    3    3    0    0  0.28593103669E-01  0.67073611357E-01 -0.10828775362E+00  0.13194643486E+00  0.19162180703E-01 0.  0.
         14    1    1    2    0    0 -0.20286403946E-01  0.18934887506E-02  0.12881933150E-01  0.24105345598E-01  0.00000000000E+00 0.  1.
     999901    1    3    3    0    0 -0.83066997225E-02 -0.68967100107E-01  0.95405820474E-01  0.88787821954E+00  0.88000000000E+00 0.  1.
        -11    1    4    4    0    0  0.23022889634E-01  0.30150305819E-01 -0.51066676430E-01  0.63617300718E-01  0.51100000000E-03 0.  1.
         11    1    4    4    0    0  0.55702140350E-02  0.36923305537E-01 -0.57221077194E-01  0.68329134141E-01  0.51100000000E-03 0. -1.
</event>
<event>
 8    1  0.1084146E+005  0.1043930E+01  0.7957747E-01            NaN
         13   -1    0    0    0    0  0.00000000000E+00  0.00000000000E+00  0.74505805969E-08  0.10566000000E+00  0.10566000000E+00 0. -1.
     999900   -1    0    0    0    0 -0.00000000000E+00 -0.00000000000E+00 -0.74505805969E-08  0.93827000000E+00  0.93827000000E+00 0.  1.
     999902    2    1    2    0    0 -0.39540529575E-02 -0.18153067048E-01  0.18497954999E-02  0.10252594317E+01  0.10250894166E+01 0.  0.
     999903    2    3    3    0    0 -0.53933595290E-01 -0.52053297984E-01  0.11248435190E+00  0.13627845023E+00  0.17340935459E-01 0.  0.
         14    1    1    2    0    0  0.39540529575E-02  0.18153067048E-01 -0.18497954999E-02  0.18670568321E-01  0.00000000000E+00 0. -1.
     999901    1    3    3    0    0  0.49979542332E-01  0.33900230936E-01 -0.11063455640E+00  0.88898098145E+00  0.88000000000E+00 0.  1.
        -11    1    4    4    0    0 -0.44095810787E-01 -0.48796492901E-01  0.89566272190E-01  0.11112117928E+00  0.51100000000E-03 0.  1.
         11    1    4    4    0    0 -0.98377845022E-02 -0.32568050826E-02  0.22918079710E-01  0.25157270954E-01  0.51100000000E-03 0. -1.
</event>
<event>
 8    1  0.1084146E+005  0.1043930E+01  0.7957747E-01            NaN
         13   -1    0    0    0    0  0.00000000000E+00  0.00000000000E+00  0.74505805969E-08  0.10566000000E+00  0.10566000000E+00 0.  1.
     999900   -1    0    0    0    0 -0.00000000000E+00 -0.00000000000E+00 -0.74505805969E-08  0.93827000000E+00  0.93827000000E+00 0.  1.
     999902    2    1    2    0    0 -0.20799131355E-01  0.13137345225E-01 -0.14074783951E-01  0.10155875716E+01  0.10151920125E+01 0.  0.
     999903    2    3    3    0    0  0.77927715646E-01 -0.77723530713E-01 -0.54569143756E-01  0.12449695764E+00  0.20199626728E-01 0.  0.
         14    1    1    2    0    0  0.20799131355E-01 -0.13137345225E-01  0.14074783951E-01  0.28342428406E-01  0.00000000000E+00 0. -1.
     999901    1    3    3    0    0 -0.98726847001E-01  0.90860875937E-01  0.40494359805E-01  0.89109061395E+00  0.88000000000E+00 0. -1.
        -11    1    4    4    0    0  0.37513020370E-01 -0.24825913066E-01 -0.26809918470E-01  0.52369700269E-01  0.51100000000E-03 0. -1.
         11    1    4    4    0    0  0.40414695276E-01 -0.52897617646E-01 -0.27759225286E-01  0.72127257375E-01  0.51100000000E-03 0.  1.
</event>
<event>
 8    1  0.1084146E+005  0.1043930E+01  0.7957747E-01            NaN
         13   -1    0    0    0    0  0.00000000000E+00  0.00000000000E+00  0.74505805969E-08  0.10566000000E+00  0.10566000000E+00 0.  1.
     999900   -1    0    0    0    0 -0.00000000000E+00 -0.00000000000E+00 -0.74505805969E-08  0.93827000000E+00  0.93827000000E+00 0. -1.
     999902    2    1    2    0    0  0.89047225539E-02  0.17301958067E-01 -0.12976958428E-01  0.10205408297E+01  0.10202727732E+01 0.  0.
     999903    2    3    3    0    0 -0.10830562538E+00 -0.12836721389E-01  0.65597516071E-01  0.12878943291E+00  0.19717860153E-01 0.  0.
         14    1    1    2    0    0 -0.89047225539E-02 -0.17301958067E-01  0.12976958428E-01  0.23389170288E-01  0.00000000000E+00 0.  1.
     999901    1    3    3    0    0  0.11721034793E+00  0.30138679456E-01 -0.78574474499E-01  0.89175139681E+00  0.88000000000E+00 0. -1.
        -11    1    4    4    0    0 -0.29331259600E-01  0.52696412378E-02  0.17940657909E-01  0.34788219784E-01  0.51100000000E-03 0. -1.
         11    1    4    4    0    0 -0.78974365779E-01 -0.18106362627E-01  0.47656858161E-01  0.94001213123E-01  0.51100000000E-03 0.  1.
</event>
<event>
 8    1  0.1084146E+005  0.1043930E+01  0.7957747E-01            NaN
         13   -1    0    0    0    0  0.00000000000E+00  0.00000000000E+00  0.74505805969E-08  0.10566000000E+00  0.10566000000E+00 0.  1.
     999900   -1    0    0    0    0 -0.00000000000E+00 -0.00000000000E+00 -0.74505805969E-08  0.93827000000E+00  0.93827000000E+00 0.  1.
     999902    2    1    2    0    0  0.28908445411E-02  0.10432254348E-02 -0.24273920317E-01  0.10194622966E+01  0.10191686346E+01 0.  0.
     999903    2    3    3    0    0  0.10534170389E+00 -0.66701859706E-01 -0.35047634322E-01  0.13086697361E+00  0.18756743984E-01 0.  0.
         14    1    1    2    0    0 -0.28908445411E-02 -0.10432254348E-02  0.24273920317E-01  0.24467703387E-01  0.00000000000E+00 0.  1.
     999901    1    3    3    0    0 -0.10245085935E+00  0.67745085141E-01  0.10773714005E-01  0.88859532300E+00  0.88000000000E+00 0. -1.
        -11    1    4    4    0    0  0.69548647431E-01 -0.40000066526E-01 -0.31044558712E-01  0.86029328884E-01  0.51100000000E-03 0. -1.
         11    1    4    4    0    0  0.35793056458E-01 -0.26701793179E-01 -0.40030756101E-02  0.44837644730E-01  0.51100000000E-03 0.  1.
</event>
<event>
 8    1  0.1084146E+005  0.1043930E+01  0.7957747E-01            NaN
         13   -1    0    0    0    0  0.00000000000E+00  0.00000000000E+00  0.74505805969E-08  0.10566000000E+00  0.10566000000E+00 0. -1.
     999900   -1    0    0    0    0 -0.00000000000E+00 -0.00000000000E+00 -0.74505805969E-08  0.93827000000E+00  0.93827000000E+00 0. -1.
     999902    2    1    2    0    0  0.15901497555E-01 -0.20927696999E-02 -0.16637095771E-01  0.10208209051E+01  0.10205593026E+01 0.  0.
     999903    2    3    3    0    0 -0.70786866203E-01  0.99764328069E-02  0.10461671600E+00  0.12820507236E+00  0.19533910862E-01 0.  0.
         14    1    1    2    0    0 -0.15901497555E-01  0.20927696999E-02  0.16637095771E-01  0.23109094859E-01  0.00000000000E+00 0. -1.
     999901    1    3    3    0    0  0.86688363759E-01 -0.12069202507E-01 -0.12125381177E+00  0.89261583278E+00  0.88000000000E+00 0. -1.
        -11    1    4    4    0    0 -0.16300957143E-01  0.10405935291E-01  0.22768256224E-01  0.29877404598E-01  0.51100000000E-03 0. -1.
         11    1    4    4    0    0 -0.54485909061E-01 -0.42950248447E-03  0.81848459778E-01  0.98327667762E-01  0.51100000000E-03 0.  1.
</event>
<event>
 8    1  0.1084146E+005  0.1043930E+01  0.7957747E-01            NaN
         13   -1    0    0    0    0  0.00000000000E+00  0.00000000000E+00  0.74505805969E-08  0.10566000000E+00  0.10566000000E+00 0. -1.
     999900   -1    0    0    0    0 -0.00000000000E+00 -0.00000000000E+00 -0.74505805969E-08  0.93827000000E+00  0.93827000000E+00 0. -1.
     999902    2    1    2    0    0  0.12461978358E-01  0.34686402124E-02  0.19957076019E-01  0.10201472909E+01  0.10198700299E+01 0.  0.
     999903    2    3    3    0    0  0.96043320909E-01  0.54017543094E-01 -0.66839828150E-01  0.13049863272E+00  0.20496732948E-01 0.  0.
         14    1    1    2    0    0 -0.12461978358E-01 -0.34686402124E-02 -0.19957076019E-01  0.23782709113E-01  0.00000000000E+00 0.  1.
     999901    1    3    3    0    0 -0.83581342551E-01 -0.50548902881E-01  0.86796904169E-01  0.88964865817E+00  0.88000000000E+00 0.  1.
        -11    1    4    4    0    0  0.54874890411E-01  0.41685724156E-01 -0.44820184628E-01  0.82207440461E-01  0.51100000000E-03 0. -1.
         11    1    4    4    0    0  0.41168430498E-01  0.12331818938E-01 -0.22019643523E-01  0.48291192259E-01  0.51100000000E-03 0.  1.
</event>
<event>
 8    1  0.1084146E+005  0.1043930E+01  0.7957747E-01            NaN
         13   -1    0    0    0    0  0.00000000000E+00  0.00000000000E+00  0.74505805969E-08  0.10566000000E+00  0.10566000000E+00 0.  1.
     999900   -1    0    0    0    0 -0.00000000000E+00 -0.00000000000E+00 -0.74505805969E-08  0.93827000000E+00  0.93827000000E+00 0. -1.
     999902    2    1    2    0    0 -0.14876582294E-02  0.12028536099E-01  0.20487340964E-01  0.10201260098E+01  0.10198482466E+01 0.  0.
     999903    2    3    3    0    0  0.10647708677E+00 -0.17461863101E-01  0.72573243782E-01  0.13150966345E+00  0.19637443719E-01 0.  0.
         14    1    1    2    0    0  0.14876582294E-02 -0.12028536099E-01 -0.20487340964E-01  0.23803990159E-01  0.00000000000E+00 0. -1.
     999901    1    3    3    0    0 -0.10796474500E+00  0.29490399200E-01 -0.52085902818E-01  0.88861634640E+00  0.88000000000E+00 0. -1.
        -11    1    4    4    0    0  0.34144894339E-01 -0.11152220199E-01  0.15365166322E-01  0.39071668533E-01  0.51100000000E-03 0. -1.
         11    1    4    4    0    0  0.72332192434E-01 -0.63096429017E-02  0.57208077460E-01  0.92437994913E-01  0.51100000000E-03 0.  1.
</event>
<event>
 8    1  0.1084146E+005  0.1043930E+01  0.7957747E-01            NaN
         13   -1    0    0    0    0  0.00000000000E+00  0.00000000000E+00  0.74505805969E-08  0.10566000000E+00  0.10566000000E+00 0. -1.
     999900   -1    0    0    0    0 -0.00000000000E+00 -0.00000000000E+00 -0.74505805969E-08  0.93827000000E+00  0.93827000000E+00 0.  1.
     999902    2    1    2    0    0  0.17848351064E-01  0.17223772012E-01  0.39890849443E-02  0.10188076045E+01  0.10184978155E+01 0.  0.
     999903    2    3    3    0    0  0.32177278732E-01 -0.72425793638E-01  0.99845741885E-01  0.12895881875E+00  0.19502100125E-01 0.  0.
         14    1    1    2    0    0 -0.17848351064E-01 -0.17223772012E-01 -0.39890849443E-02  0.25122395521E-01  0.00000000000E+00 0. -1.
     999901    1    3    3    0    0 -0.14328927668E-01  0.89649565650E-01 -0.95856656941E-01  0.88984878573E+00  0.88000000000E+00 0.  1.
        -11    1    4    4    0    0  0.69201579462E-02 -0.39242528473E-01  0.46321657587E-01  0.61105005601E-01  0.51100000000E-03 0.  1.
         11    1    4    4    0    0  0.25257120786E-01 -0.33183265165E-01  0.53524084298E-01  0.67853813146E-01  0.51100000000E-03 0. -1.
</event>
<event>
 8    1  0.1084146E+005  0.1043930E+01  0.7957747E-01            NaN
         13   -1    0    0    0    0  0.00000000000E+00  0.00000000000E+00  0.74505805969E-08  0.10566000000E+00  0.10566000000E+00 0. -1.
     999900   -1    0    0    0    0 -0.00000000000E+00 -0.00000000000E+00 -0.74505805969E-08  0.93827000000E+00  0.93827000000E+00 0.  1.
     999902    2    1    2    0    0 -0.36833272211E-02 -0.18563626103E-01 -0.14062451460E-01  0.10203518819E+01  0.10200794259E+01 0.  0.
     999903    2    3    3    0    0 -0.53385525079E-01  0.69790443535E-01 -0.94863287916E-01  0.13085453771E+00  0.20078504637E-01 0.  0.
         14    1    1    2    0    0  0.36833272211E-02  0.18563626103E-01  0.14062451460E-01  0.23578118131E-01  0.00000000000E+00 0.  1.
     999901    1    3    3    0    0  0.49702197857E-01 -0.88354069638E-01  0.80800836457E-01  0.88949734416E+00  0.88000000000E+00 0. -1.
        -11    1    4    4    0    0 -0.35439955361E-01  0.32920520325E-01 -0.42878712160E-01  0.64642061941E-01  0.51100000000E-03 0. -1.
         11    1    4    4    0    0 -0.17945569717E-01  0.36869923210E-01 -0.51984575756E-01  0.66212475770E-01  0.51100000000E-03 0.  1.
</event>
<event>
 8    1  0.1084146E+005  0.1043930E+01  0.7957747E-01            NaN
         13   -1    0    0    0    0  0.00000000000E+00  0.00000000000E+00  0.74505805969E-08  0.10566000000E+00  0.10566000000E+00 0.  1.
     999900   -1    0    0    0    0 -0.00000000000E+00 -0.00000000000E+00 -0.74505805969E-08  0.93827000000E+00  0.93827000000E+00 0. -1.
     999902    2    1    2    0    0 -0.65966148951E-03 -0.21224389871E-01 -0.10125928628E-01  0.10204046029E+01  0.10201333782E+01 0.  0.
     999903    2    3    3    0    0 -0.96871774485E-01 -0.69296375897E-01  0.52071016719E-01  0.13167734071E+00  0.21009589961E-01 0.  0.
         14    1    1    2    0    0  0.65966148951E-03  0.21224389871E-01  0.10125928628E-01  0.23525397111E-01  0.00000000000E+00 0. -1.
     999901    1    3    3    0    0  0.96212112995E-01  0.48071986027E-01 -0.62196945347E-01  0.88872726218E+00  0.88000000000E+00 0. -1.
        -11    1    4    4    0    0 -0.71695827724E-01 -0.39244247327E-01  0.35508169868E-01  0.89115059949E-01  0.51100000000E-03 0. -1.
         11    1    4    4    0    0 -0.25175946761E-01 -0.30052128570E-01  0.16562846851E-01  0.42562280762E-01  0.51100000000E-03 0.  1.
</event>
<event>
 8    1  0.1084146E+005  0.1043930E+01  0.7957747E-01            NaN
         13   -1    0    0    0    0  0.00000000000E+00  0.00000000000E+00  0.74505805969E-08  0.10566000000E+00  0.10566000000E+00 0.  1.
     999900   -1    0    0    0    0 -0.00000000000E+00 -0.00000000000E+00 -0.74505805969E-08  0.93827000000E+00  0.93827000000E+00 0. -1.
     999902    2    1    2    0    0  0.10815098317E-01  0.90684566784E-02  0.19360598005E-01  0.10199709513E+01  0.10196895143E+01 0.  0.
     999903    2    3    3    0    0  0.79772774685E-01  0.29419140405E-01  0.10079667544E+00  0.13329110710E+00  0.19425963230E-01 0.  0.
         14    1    1    2    0    0 -0.10815098317E-01 -0.90684566784E-02 -0.19360598005E-01  0.23959048671E-01  0.00000000000E+00 0. -1.
     999901    1    3    3    0    0 -0.68957676369E-01 -0.20350683727E-01 -0.81436077440E-01  0.88667984423E+00  0.88000000000E+00 0. -1.
        -11    1    4    4    0    0  0.83173757980E-02  0.10148944700E-01  0.13285021954E-01  0.18679741647E-01  0.51100000000E-03 0.  1.
         11    1    4    4    0    0  0.71455398887E-01  0.19270195705E-01  0.87511653490E-01  0.11461136545E+00  0.51100000000E-03 0. -1.
</event>
<event>
 8    1  0.1084146E+005  0.1043930E+01  0.7957747E-01            NaN
         13   -1    0    0    0    0  0.00000000000E+00  0.00000000000E+00  0.74505805969E-08  0.10566000000E+00  0.10566000000E+00 0. -1.
     999900   -1    0    0    0    0 -0.00000000000E+00 -0.00000000000E+00 -0.74505805969E-08  0.93827000000E+00  0.93827000000E+00 0.  1.
     999902    2    1    2    0    0  0.13637091043E-01 -0.16155822232E-01 -0.10900419069E-01  0.10201434496E+01  0.10198660980E+01 0.  0.
     999903    2    3    3    0    0 -0.22882237030E-01 -0.51175493630E-01 -0.11800197709E+00  0.13220720051E+00  0.20291607899E-01 0.  0.
         14    1    1    2    0    0 -0.13637091043E-01  0.16155822232E-01  0.10900419069E-01  0.23786550401E-01  0.00000000000E+00 0. -1.
     999901    1    3    3    0    0  0.36519328074E-01  0.35019671398E-01  0.10710155802E+00  0.88793624908E+00  0.88000000000E+00 0. -1.
        -11    1    4    4    0    0 -0.24213992602E-01 -0.45747237894E-01 -0.91586664253E-01  0.10520221197E+00  0.51100000000E-03 0.  1.
         11    1    4    4    0    0  0.13317555716E-02 -0.54282557358E-02 -0.26415312836E-01  0.27004988548E-01  0.51100000000E-03 0. -1.
</event>
<event>
 8    1  0.1084146E+005  0.1043930E+01  0.7957747E-01            NaN
         13   -1    0    0    0    0  0.00000000000E+00  0.00000000000E+00  0.74505805969E-08  0.10566000000E+00  0.10566000000E+00 0.  1.
     999900   -1    0    0    0    0 -0.00000000000E+00 -0.00000000000E+00 -0.74505805969E-08  0.93827000000E+00  0.93827000000E+00 0. -1.
     999902    2    1    2    0    0  0.19788029365E-01 -0.12903462207E-01  0.10584915898E-01  0.10180435965E+01  0.10177144287E+01 0.  0.
     999903    2    3    3    0    0 -0.27324130186E-01 -0.12485069834E+00  0.77114945763E-02  0.12969681970E+00  0.20675902056E-01 0.  0.
         14    1    1    2    0    0 -0.19788029365E-01  0.12903462207E-01 -0.10584915898E-01  0.25886403528E-01  0.00000000000E+00 0.  1.
     999901    1    3    3    0    0  0.47112159551E-01  0.11194723613E+00  0.28734213215E-02  0.88834677677E+00  0.88000000000E+00 0. -1.
        -11    1    4    4    0    0 -0.93044927099E-02 -0.49840974137E-01  0.13080714682E-01  0.52364706674E-01  0.51100000000E-03 0. -1.
         11    1    4    4    0    0 -0.18019637476E-01 -0.75009724199E-01 -0.53692201058E-02  0.77332113024E-01  0.51100000000E-03 0.  1.
</event>
<event>
 8    1  0.1084146E+005  0.1043930E+01  0.7957747E-01            NaN
         13   -1    0    0    0    0  0.00000000000E+00  0.00000000000E+00  0.74505805969E-08  0.10566000000E+00  0.10566000000E+00 0.  1.
     999900   -1    0    0    0    0 -0.00000000000E+00 -0.00000000000E+00 -0.74505805969E-08  0.93827000000E+00  0.93827000000E+00 0. -1.
     999902    2    1    2    0    0  0.20825628685E-01 -0.19567293532E-01 -0.17189089202E-01  0.10105825777E+01  0.10100322251E+01 0.  0.
     999903    2    3    3    0    0  0.15116035754E-01 -0.79031980427E-01 -0.93816914741E-01  0.12523492165E+00  0.20189691449E-01 0.  0.
         14    1    1    2    0    0 -0.20825628685E-01  0.19567293532E-01  0.17189089202E-01  0.33347422298E-01  0.00000000000E+00 0.  1.
     999901    1    3    3    0    0  0.57095929301E-02  0.59464686895E-01  0.76627825539E-01  0.88534765606E+00  0.88000000000E+00 0. -1.
        -11    1    4    4    0    0  0.17468930704E-01 -0.44535252414E-01 -0.47338736648E-01  0.67303561242E-01  0.51100000000E-03 0. -1.
         11    1    4    4    0    0 -0.23528949492E-02 -0.34496728013E-01 -0.46478178094E-01  0.57931360403E-01  0.51100000000E-03 0.  1.
</event>
<event>
 7    1  0.1084146E+005  0.1043930E+01  0.7957747E-01            NaN
         13   -1    0    0    0    0  0.00000000000E+00  0.00000000000E+00  0.74505805969E-08  0.10566000000E+00  0.10566000000E+00 0.  1.
     999900   -1    0    0    0    0 -0.00000000000E+00 -0.00000000000E+00 -0.74505805969E-08  0.93827000000E+00  0.93827000000E+00 0.  1.
     999902    2    1    2    0    0  0.19726808369E-01  0.10778495152E-01  0.84515887288E-02  0.10199143327E+01  0.10196315480E+01 0.  0.
         14    1    1    2    0    0 -0.19726808369E-01 -0.10778495152E-01 -0.84515887288E-02  0.24015667348E-01  0.00000000000E+00 0.  1.
     999901    1    3    3    0    0  0.11592224318E+00  0.99810152987E-02 -0.66690732712E-01  0.89016023331E+00  0.88000000000E+00 0.  1.
        -11    1    3    3    0    0 -0.29728910177E-01 -0.30112321442E-02  0.50659473859E-01  0.58817676187E-01  0.51100000000E-03 0. -1.
         11    1    3    3    0    0 -0.66466524633E-01  0.38087119971E-02  0.24482847581E-01  0.70936423159E-01  0.51100000000E-03 0.  1.
</event>
<event>
 8    1  0.1084146E+005  0.1043930E+01  0.7957747E-01            NaN
         13   -1    0    0    0    0  0.00000000000E+00  0.00000000000E+00  0.74505805969E-08  0.10566000000E+00  0.10566000000E+00 0.  1.
     999900   -1    0    0    0    0 -0.00000000000E+00 -0.00000000000E+00 -0.74505805969E-08  0.93827000000E+00  0.93827000000E+00 0. -1.
     999902    2    1    2    0    0 -0.43284031023E-02 -0.18894070927E-01  0.12580525097E-01  0.10208217633E+01  0.10205601804E+01 0.  0.
     999903    2    3    3    0    0 -0.22405511441E-02  0.12405127386E+00  0.29674797910E-01  0.12912117184E+00  0.19948553130E-01 0.  0.
         14    1    1    2    0    0  0.43284031023E-02  0.18894070927E-01 -0.12580525097E-01  0.23108236656E-01  0.00000000000E+00 0. -1.
     999901    1    3    3    0    0 -0.20878519582E-02 -0.14294534478E+00 -0.17094272813E-01  0.89170059150E+00  0.88000000000E+00 0. -1.
        -11    1    4    4    0    0  0.66378800097E-02  0.31254285181E-01  0.26722013944E-02  0.32067016925E-01  0.51100000000E-03 0. -1.
         11    1    4    4    0    0 -0.88784311538E-02  0.92796988676E-01  0.27002596516E-01  0.97054154917E-01  0.51100000000E-03 0.  1.
</event>
<event>
 8    1  0.1084146E+005  0.1043930E+01  0.7957747E-01            NaN
         13   -1    0    0    0    0  0.00000000000E+00  0.00000000000E+00  0.74505805969E-08  0.10566000000E+00  0.10566000000E+00 0.  1.
     999900   -1    0    0    0    0 -0.00000000000E+00 -0.00000000000E+00 -0.74505805969E-08  0.93827000000E+00  0.93827000000E+00 0. -1.
     999902    2    1    2    0    0  0.99661259672E-03 -0.23526327020E-01  0.49076268967E-02  0.10198765990E+01  0.10195929144E+01 0.  0.
     999903    2    3    3    0    0  0.55270439564E-01 -0.11437387101E-01 -0.11556297469E+00  0.12992999573E+00  0.18476129397E-01 0.  0.
         14    1    1    2    0    0 -0.99661259672E-03  0.23526327020E-01 -0.49076268967E-02  0.24053401037E-01  0.00000000000E+00 0.  1.
     999901    1    3    3    0    0 -0.54273826967E-01 -0.12088939918E-01  0.12047060159E+00  0.88994660323E+00  0.88000000000E+00 0.  1.
        -11    1    4    4    0    0  0.37539417300E-01 -0.94436117392E-02 -0.58573508648E-01  0.70210445735E-01  0.51100000000E-03 0.  1.
         11    1    4    4    0    0  0.17731022264E-01 -0.19937753622E-02 -0.56989466041E-01  0.59719549993E-01  0.51100000000E-03 0. -1.
</event>
<event>
 8    1  0.1084146E+005  0.1043930E+01  0.7957747E-01            NaN
         13   -1    0    0    0    0  0.00000000000E+00  0.00000000000E+00  0.74505805969E-08  0.10566000000E+00  0.10566000000E+00 0.  1.
     999900   -1    0    0    0    0 -0.00000000000E+00 -0.00000000000E+00 -0.74505805969E-08  0.93827000000E+00  0.93827000000E+00 0. -1.
     999902    2    1    2    0    0  0.83812504744E-02  0.15598843672E-01 -0.16368878091E-01  0.10198154929E+01  0.10195303478E+01 0.  0.
     999903    2    3    3    0    0  0.29611777880E-01 -0.86768371130E-01  0.86528121185E-01  0.12767336608E+00  0.20193192739E-01 0.  0.
         14    1    1    2    0    0 -0.83812504744E-02 -0.15598843672E-01  0.16368878091E-01  0.24114507114E-01  0.00000000000E+00 0.  1.
     999901    1    3    3    0    0 -0.21230527406E-01  0.10236721480E+00 -0.10289699928E+00  0.89214212680E+00  0.88000000000E+00 0. -1.
        -11    1    4    4    0    0  0.17418250373E-01 -0.65216049821E-01  0.73095592869E-01  0.99497514633E-01  0.51100000000E-03 0. -1.
         11    1    4    4    0    0  0.12193527507E-01 -0.21552321309E-01  0.13432528316E-01  0.28175851448E-01  0.51100000000E-03 0.  1.
</event>
<event>
 8    1  0.1084146E+005  0.1043930E+01  0.7957747E-01            NaN
         13   -1    0    0    0    0  0.00000000000E+00  0.00000000000E+00  0.74505805969E-08  0.10566000000E+00  0.10566000000E+00 0.  1.
     999900   -1    0    0    0    0 -0.00000000000E+00 -0.00000000000E+00 -0.74505805969E-08  0.93827000000E+00  0.93827000000E+00 0. -1.
     999902    2    1    2    0    0 -0.22932434160E-01 -0.17889250191E-02 -0.50540216638E-02  0.10203792054E+01  0.10201073880E+01 0.  0.
     999903    2    3    3    0    0 -0.10392369544E+00  0.41848013539E-01  0.68048472597E-01  0.13256856039E+00  0.19810044637E-01 0.  0.
         14    1    1    2    0    0  0.22932434160E-01  0.17889250191E-02  0.50540216638E-02  0.23550794556E-01  0.00000000000E+00 0.  1.
     999901    1    3    3    0    0  0.80991261283E-01 -0.43636938558E-01 -0.73102494260E-01  0.88781064506E+00  0.88000000000E+00 0. -1.
        -11    1    4    4    0    0 -0.56362634611E-01  0.28399846866E-01  0.28434865437E-01  0.69224999644E-01  0.51100000000E-03 0.  1.
         11    1    4    4    0    0 -0.47561060832E-01  0.13448166673E-01  0.39613607159E-01  0.63343560742E-01  0.51100000000E-03 0. -1.
</event>
<event>
 8    1  0.1084146E+005  0.1043930E+01  0.7957747E-01            NaN
         13   -1    0    0    0    0  0.00000000000E+00  0.00000000000E+00  0.74505805969E-08  0.10566000000E+00  0.10566000000E+00 0.  1.
     999900   -1    0    0    0    0 -0.00000000000E+00 -0.00000000000E+00 -0.74505805969E-08  0.93827000000E+00  0.93827000000E+00 0.  1.
     999902    2    1    2    0    0  0.15208248505E-02 -0.14506319308E-01 -0.17995985562E-01  0.10207653350E+01  0.10205024583E+01 0.  0.
     999903    2    3    3    0    0 -0.13428355805E-01 -0.12775481888E+00 -0.29252509495E-01  0.13331087984E+00  0.20358459818E-01 0.  0.
         14    1    1    2    0    0 -0.15208248505E-02  0.14506319308E-01  0.17995985562E-01  0.23164664997E-01  0.00000000000E+00 0.  1.
     999901    1    3    3    0    0  0.14949180656E-01  0.11324849957E+00  0.11256523933E-01  0.88745445516E+00  0.88000000000E+00 0.  1.
        -11    1    4    4    0    0  0.80424900064E-03 -0.83655272228E-01 -0.20743346486E-01  0.86193961114E-01  0.51100000000E-03 0.  1.
         11    1    4    4    0    0 -0.14232604806E-01 -0.44099546648E-01 -0.85091630083E-02  0.47116918726E-01  0.51100000000E-03 0. -1.
</event>
<event>
 8    1  0.1084146E+005  0.1043930E+01  0.7957747E-01            NaN
         13   -1    0    0    0    0  0.00000000000E+00  0.00000000000E+00  0.74505805969E-08  0.10566000000E+00  0.10566000000E+00 0.  1.
     999900   -1    0    0    0    0 -0.00000000000E+00 -0.00000000000E+00 -0.74505805969E-08  0.93827000000E+00  0.93827000000E+00 0.  1.
     999902    2    1    2    0    0 -0.54381353707E-02 -0.44655191882E-02 -0.23063135352E-01  0.10198172982E+01  0.10195321963E+01 0.  0.
     999903    2    3    3    0    0  0.28213135475E-01 -0.99750714312E-01  0.73323035425E-01  0.12880553036E+00  0.21642807295E-01 0.  0.
         14    1    1    2    0    0  0.54381353707E-02  0.44655191882E-02  0.23063135352E-01  0.24112701843E-01  0.00000000000E+00 0.  1.
     999901    1    3    3    0    0 -0.33651270846E-01  0.95285195124E-01 -0.96386170777E-01  0.89101176780E+00  0.88000000000E+00 0.  1.
        -11    1    4    4    0    0  0.69159171132E-03 -0.16461775403E-01  0.39028110806E-02  0.16939935178E-01  0.51100000000E-03 0.  1.
         11    1    4    4    0    0  0.27521543764E-01 -0.83288938909E-01  0.69420224345E-01  0.11186559518E+00  0.51100000000E-03 0. -1.
</event>
<event>
 8    1  0.1084146E+005  0.1043930E+01  0.7957747E-01            NaN
         13   -1    0    0    0    0  0.00000000000E+00  0.00000000000E+00  0.74505805969E-08  0.10566000000E+00  0.10566000000E+00 0.  1.
     999900   -1    0    0    0    0 -0.00000000000E+00 -0.00000000000E+00 -0.74505805969E-08  0.93827000000E+00  0.93827000000E+00 0. -1.
     999902    2    1    2    0    0 -0.14584172356E-01 -0.19828954371E-01  0.74451166752E-02  0.10182139490E+01  0.10178891544E+01 0.  0.
     999903    2    3    3    0    0 -0.77447013523E-01  0.98337072327E-01  0.18086040268E-01  0.12802959964E+00  0.19906125515E-01 0.  0.
         14    1    1    2    0    0  0.14584172356E-01  0.19828954371E-01 -0.74451166752E-02  0.25716050962E-01  0.00000000000E+00 0.  1.
     999901    1    3    3    0    0  0.62862841167E-01 -0.11816602670E+00 -0.10640923593E-01  0.89018434940E+00  0.88000000000E+00 0.  1.
        -11    1    4    4    0    0 -0.55485566333E-01  0.75503333159E-01  0.21578936273E-01  0.96152550674E-01  0.51100000000E-03 0.  1.
         11    1    4    4    0    0 -0.21961447190E-01  0.22833739168E-01 -0.34928960047E-02  0.31877048963E-01  0.51100000000E-03 0. -1.
</event>
<event>
 8    1  0.1084146E+005  0.1043930E+01  0.7957747E-01            NaN
         13   -1    0    0    0    0  0.00000000000E+00  0.00000000000E+00  0.74505805969E-08  0.10566000000E+00  0.10566000000E+00 0. -1.
     999900   -1    0    0    0    0 -0.00000000000E+00 -0.00000000000E+00 -0.74505805969E-08  0.93827000000E+00  0.93827000000E+00 0.  1.
     999902    2    1    2    0    0  0.21272563169E-01 -0.11215205702E-01  0.46807661891E-02  0.10194307683E+01  0.10191363397E+01 0.  0.
     999903    2    3    3    0    0  0.40569968044E-01  0.12067105305E+00  0.10510085985E-01  0.12937439026E+00  0.20490134148E-01 0.  0.
         14    1    1    2    0    0 -0.21272563169E-01  0.11215205702E-01 -0.46807661891E-02  0.24499231719E-01  0.00000000000E+00 0.  1.
     999901    1    3    3    0    0 -0.19297404875E-01 -0.13188625875E+00 -0.58293197959E-02  0.89005637802E+00  0.88000000000E+00 0.  1.
        -11    1    4    4    0    0  0.26735995786E-02  0.31848253333E-01 -0.18399179210E-02  0.32017273370E-01  0.51100000000E-03 0. -1.
         11    1    4    4    0    0  0.37896368465E-01  0.88822799715E-01  0.12350003906E-01  0.97357116892E-01  0.51100000000E-03 0.  1.
</event>
<event>
 8    1  0.1084146E+005  0.1043930E+01  0.7957747E-01            NaN
         13   -1    0    0    0    0  0.00000000000E+00  0.00000000000E+00  0.74505805969E-08  0.10566000000E+00  0.10566000000E+00 0. -1.
     999900   -1    0    0    0    0 -0.00000000000E+00 -0.00000000000E+00 -0.74505805969E-08  0.93827000000E+00  0.93827000000E+00 0.  1.
     999902    2    1    2    0    0  0.27267201029E-02 -0.15360562578E-01 -0.17514133026E-01  0.10204752192E+01  0.10202056392E+01 0.  0.
     999903    2    3    3    0    0  0.31452471638E-01 -0.11813979864E+00  0.45488867993E-01  0.13179185700E+00  0.18803894944E-01 0.  0.
         14    1    1    2    0    0 -0.27267201029E-02  0.15360562578E-01  0.17514133026E-01  0.23454780768E-01  0.00000000000E+00 0. -1.
     999901    1    3    3    0    0 -0.28725751535E-01  0.10277923607E+00 -0.63003001019E-01  0.88868336223E+00  0.88000000000E+00 0.  1.
        -11    1    4    4    0    0  0.78430837666E-02 -0.49769539483E-01  0.26857038039E-01  0.57097133348E-01  0.51100000000E-03 0. -1.
         11    1    4    4    0    0  0.23609387872E-01 -0.68370259160E-01  0.18631829954E-01  0.74694723653E-01  0.51100000000E-03 0.  1.
</event>
<event>
 8    1  0.1084146E+005  0.1043930E+01  0.7957747E-01            NaN
         13   -1    0    0    0    0  0.00000000000E+00  0.00000000000E+00  0.74505805969E-08  0.10566000000E+00  0.10566000000E+00 0.  1.
     999900   -1    0    0    0    0 -0.00000000000E+00 -0.00000000000E+00 -0.74505805969E-08  0.93827000000E+00  0.93827000000E+00 0.  1.
     999902    2    1    2    0    0  0.31979658490E-02 -0.14495493674E-01  0.17002718091E-01  0.10213592502E+01  0.10211098272E+01 0.  0.
     999903    2    3    3    0    0  0.41106806764E-01 -0.10760585525E+00 -0.61316777159E-01  0.13217953669E+00  0.21045025832E-01 0.  0.
         14    1    1    2    0    0 -0.31979658490E-02  0.14495493674E-01 -0.17002718091E-01  0.22570749764E-01  0.00000000000E+00 0. -1.
     999901    1    3    3    0    0 -0.37908840915E-01  0.93110361572E-01  0.78319495250E-01  0.88917971355E+00  0.88000000000E+00 0. -1.
        -11    1    4    4    0    0  0.23552495295E-01 -0.33600070325E-01 -0.21456212730E-01  0.46306748387E-01  0.51100000000E-03 0.  1.
         11    1    4    4    0    0  0.17554311468E-01 -0.74005784920E-01 -0.39860564429E-01  0.85872788300E-01  0.51100000000E-03 0. -1.
</event>
<event>
 8    1  0.1084146E+005  0.1043930E+01  0.7957747E-01            NaN
         13   -1    0    0    0    0  0.00000000000E+00  0.00000000000E+00  0.74505805969E-08  0.10566000000E+00  0.10566000000E+00 0.  1.
     999900   -1    0    0    0    0 -0.00000000000E+00 -0.00000000000E+00 -0.74505805969E-08  0.93827000000E+00  0.93827000000E+00 0. -1.
     999902    2    1    2    0    0  0.29443645550E-02  0.64444984266E-02 -0.22070879073E-01  0.10207497380E+01  0.10204865032E+01 0.  0.
     999903    2    3    3    0    0  0.14415871997E-01 -0.11158889377E+00  0.60635430355E-01  0.12895166066E+00  0.17087328458E-01 0.  0.
         14    1    1    2    0    0 -0.29443645550E-02 -0.64444984266E-02  0.22070879073E-01  0.23180261984E-01  0.00000000000E+00 0.  1.
     999901    1    3    3    0    0 -0.11471507442E-01  0.11803339220E+00 -0.82706309427E-01  0.89179807736E+00  0.88000000000E+00 0. -1.
        -11    1    4    4    0    0  0.58041266858E-02 -0.34298366919E-01  0.10182819243E-01  0.36249369493E-01  0.51100000000E-03 0. -1.
         11    1    4    4    0    0  0.86117453113E-02 -0.77290526854E-01  0.50452611112E-01  0.92702291167E-01  0.51100000000E-03 0.  1.
</event>
<event>
 8    1  0.1084146E+005  0.1043930E+01  0.7957747E-01            NaN
         13   -1    0    0    0    0  0.00000000000E+00  0.00000000000E+00  0.74505805969E-08  0.10566000000E+00  0.10566000000E+00 0. -1.
     999900   -1    0    0    0    0 -0.00000000000E+00 -0.00000000000E+00 -0.74505805969E-08  0.93827000000E+00  0.93827000000E+00 0. -1.
     999902    2    1    2    0    0 -0.13056223491E-01 -0.11081495800E-01  0.16896752959E-01  0.10198724693E+01  0.10195886862E+01 0.  0.
     999903    2    3    3    0    0 -0.76213760647E-01  0.60938040249E-01 -0.82114652921E-01  0.12915424983E+00  0.20396616461E-01 0.  0.
         14    1    1    2    0    0  0.13056223491E-01  0.11081495800E-01 -0.16896752959E-01  0.24057530662E-01  0.00000000000E+00 0. -1.
     999901    1    3    3    0    0  0.63157537157E-01 -0.72019536048E-01  0.99011405880E-01  0.89071821951E+00  0.88000000000E+00 0.  1.
        -11    1    4    4    0    0 -0.56817227938E-01  0.36499561319E-01 -0.47584463763E-01  0.82613302074E-01  0.51100000000E-03 0.  1.
         11    1    4    4    0    0 -0.19396532709E-01  0.24438478930E-01 -0.34530189158E-01  0.46540947754E-01  0.51100000000E-03 0. -1.
</event>
<event>
 8    1  0.1084146E+005  0.1043930E+01  0.7957747E-01            NaN
         13   -1    0    0    0    0  0.00000000000E+00  0.00000000000E+00  0.74505805969E-08  0.10566000000E+00  0.10566000000E+00 0. -1.
     999900   -1    0    0    0    0 -0.00000000000E+00 -0.00000000000E+00 -0.74505805969E-08  0.93827000000E+00  0.93827000000E+00 0.  1.
     999902    2    1    2    0    0 -0.20767303902E-01  0.35147095119E-02 -0.11534957279E-01  0.10199156432E+01  0.10196328897E+01 0.  0.
     999903    2    3    3    0    0  0.48350746908E-02 -0.30497788595E-01 -0.12603925567E+00  0.13147680669E+00  0.21136784807E-01 0.  0.
         14    1    1    2    0    0  0.20767303902E-01 -0.35147095119E-02  0.11534957279E-01  0.24014356825E-01  0.00000000000E+00 0. -1.
     999901    1    3    3    0    0 -0.25602378593E-01  0.34012498107E-01  0.11450429839E+00  0.88843883648E+00  0.88000000000E+00 0. -1.
        -11    1    4    4    0    0  0.19102471978E-02 -0.19080646593E-01 -0.10946403280E+00  0.11113215428E+00  0.51100000000E-03 0. -1.
         11    1    4    4    0    0  0.29248274930E-02 -0.11417142002E-01 -0.16575222875E-01  0.20344652411E-01  0.51100000000E-03 0.  1.
</event>
<event>
 8    1  0.1084146E+005  0.1043930E+01  0.7957747E-01            NaN
         13   -1    0    0    0    0  0.00000000000E+00  0.00000000000E+00  0.74505805969E-08  0.10566000000E+00  0.10566000000E+00 0.  1.
     999900   -1    0    0    0    0 -0.00000000000E+00 -0.00000000000E+00 -0.74505805969E-08  0.93827000000E+00  0.93827000000E+00 0.  1.
     999902    2    1    2    0    0  0.47035927728E-03  0.14592035124E-01  0.18941851625E-01  0.10200146813E+01  0.10197342828E+01 0.  0.
     999903    2    3    3    0    0 -0.78064611909E-01 -0.16144230896E-01 -0.98641653359E-01  0.12819724458E+00  0.18698607332E-01 0.  0.
         14    1    1    2    0    0 -0.47035927728E-03 -0.14592035124E-01 -0.18941851625E-01  0.23915318728E-01  0.00000000000E+00 0. -1.
     999901    1    3    3    0    0  0.78534971186E-01  0.30736266020E-01  0.11758350498E+00  0.89181743669E+00  0.88000000000E+00 0. -1.
        -11    1    4    4    0    0 -0.40590154145E-02 -0.42785800827E-02 -0.13642256942E-01  0.14871252440E-01  0.51100000000E-03 0.  1.
         11    1    4    4    0    0 -0.74005596494E-01 -0.11865650813E-01 -0.84999396417E-01  0.11332599214E+00  0.51100000000E-03 0. -1.
</event>
<event>
 8    1  0.1084146E+005  0.1043930E+01  0.7957747E-01            NaN
         13   -1    0    0    0    0  0.00000000000E+00  0.00000000000E+00  0.74505805969E-08  0.10566000000E+00  0.10566000000E+00 0. -1.
     999900   -1    0    0    0    0 -0.00000000000E+00 -0.00000000000E+00 -0.74505805969E-08  0.93827000000E+00  0.93827000000E+00 0.  1.
     999902    2    1    2    0    0 -0.73940457379E-02  0.67216138241E-02 -0.20213327101E-01  0.10213815944E+01  0.10211326705E+01 0.  0.
     999903    2    3    3    0    0 -0.10962539163E+00  0.48088234886E-01 -0.56325220595E-01  0.13376314351E+00  0.19744448901E-01 0.  0.
         14    1    1    2    0    0  0.73940457379E-02 -0.67216138241E-02  0.20213327101E-01  0.22548405648E-01  0.00000000000E+00 0. -1.
     999901    1    3    3    0    0  0.10223134589E+00 -0.41366621062E-01  0.36111893494E-01  0.88761845084E+00  0.88000000000E+00 0. -1.
        -11    1    4    4    0    0 -0.74425352874E-01  0.24105109791E-01 -0.42175884792E-01  0.88877757890E-01  0.51100000000E-03 0.  1.
         11    1    4    4    0    0 -0.35200038756E-01  0.23983125095E-01 -0.14149335803E-01  0.44885385622E-01  0.51100000000E-03 0. -1.
</event>
<event>
 8    1  0.1084146E+005  0.1043930E+01  0.7957747E-01            NaN
         13   -1    0    0    0    0  0.00000000000E+00  0.00000000000E+00  0.74505805969E-08  0.10566000000E+00  0.10566000000E+00 0. -1.
     999900   -1    0    0    0    0 -0.00000000000E+00 -0.00000000000E+00 -0.74505805969E-08  0.93827000000E+00  0.93827000000E+00 0. -1.
     999902    2    1    2    0    0  0.21820287308E-01  0.46961049452E-02 -0.79845369932E-02  0.10202249126E+01  0.10199494796E+01 0.  0.
     999903    2    3    3    0    0  0.21410871857E-01  0.12064923048E+00 -0.44667252156E-01  0.13186073243E+00  0.19427482900E-01 0.  0.
         14    1    1    2    0    0 -0.21820287308E-01 -0.46961049452E-02  0.79845369932E-02  0.23705087447E-01  0.00000000000E+00 0.  1.
     999901    1    3    3    0    0  0.40941545190E-03 -0.11595312553E+00  0.36682715163E-01  0.88836418013E+00  0.88000000000E+00 0. -1.
        -11    1    4    4    0    0  0.23024151451E-01  0.77065678441E-01 -0.29949700923E-01  0.85828177483E-01  0.51100000000E-03 0. -1.
         11    1    4    4    0    0 -0.16132795943E-02  0.43583552038E-01 -0.14717551233E-01  0.46032554943E-01  0.51100000000E-03 0.  1.
</event>
<event>
 8    1  0.1084146E+005  0.1043930E+01  0.7957747E-01            NaN
         13   -1    0    0    0    0  0.00000000000E+00  0.00000000000E+00  0.74505805969E-08  0.10566000000E+00  0.10566000000E+00 0.  1.
     999900   -1    0    0    0    0 -0.00000000000E+00 -0.00000000000E+00 -0.74505805969E-08  0.93827000000E+00  0.93827000000E+00 0. -1.
     999902    2    1    2    0    0 -0.13949074488E-01  0.57916818630E-02  0.20529948930E-01  0.10184427667E+01  0.10181237990E+01 0.  0.
     999903    2    3    3    0    0  0.90984824574E-02  0.25174398186E-01 -0.12222035499E+00  0.12643125958E+00  0.18180085737E-01 0.  0.
         14    1    1    2    0    0  0.13949074488E-01 -0.57916818630E-02 -0.20529948930E-01  0.25487233293E-01  0.00000000000E+00 0. -1.
     999901    1    3    3    0    0 -0.23047556945E-01 -0.19382716323E-01  0.14275030392E+00  0.89201150713E+00  0.88000000000E+00 0.  1.
        -11    1    4    4    0    0  0.62411059513E-02  0.19924310203E-01 -0.11570444826E+00  0.11757427444E+00  0.51100000000E-03 0.  1.
         11    1    4    4    0    0  0.28573765062E-02  0.52500879830E-02 -0.65159067328E-02  0.88569851461E-02  0.51100000000E-03 0. -1.
</event>
<event>
 8    1  0.1084146E+005  0.1043930E+01  0.7957747E-01            NaN
         13   -1    0    0    0    0  0.00000000000E+00  0.00000000000E+00  0.74505805969E-08  0.10566000000E+00  0.10566000000E+00 0. -1.
     999900   -1    0    0    0    0 -0.00000000000E+00 -0.00000000000E+00 -0.74505805969E-08  0.93827000000E+00  0.93827000000E+00 0.  1.
     999902    2    1    2    0    0  0.15271524928E-01 -0.11282871138E-01 -0.12509165165E-01  0.10211923249E+01  0.10209391572E+01 0.  0.
     999903    2    3    3    0    0  0.34356164149E-01 -0.27442990952E-01 -0.12458942854E+00  0.13373113796E+00  0.20688832451E-01 0.  0.
         14    1    1    2    0    0 -0.15271524928E-01  0.11282871138E-01  0.12509165165E-01  0.22737675076E-01  0.00000000000E+00 0. -1.
     999901    1    3    3    0    0 -0.19084639222E-01  0.16160119814E-01  0.11208026338E+00  0.88746118696E+00  0.88000000000E+00 0. -1.
        -11    1    4    4    0    0  0.30589982463E-01 -0.12294036541E-01 -0.85411226726E-01  0.91554514544E-01  0.51100000000E-03 0.  1.
         11    1    4    4    0    0  0.37661816866E-02 -0.15148954411E-01 -0.39178201817E-01  0.42176623417E-01  0.51100000000E-03 0. -1.
</event>
<event>
 8    1  0.1084146E+005  0.1043930E+01  0.7957747E-01            NaN
         13   -1    0    0    0    0  0.00000000000E+00  0.00000000000E+00  0.74505805969E-08  0.10566000000E+00  0.10566000000E+00 0.  1.
     999900   -1    0    0    0    0 -0.00000000000E+00 -0.00000000000E+00 -0.74505805969E-08  0.93827000000E+00  0.93827000000E+00 0.  1.
     999902    2    1    2    0    0 -0.22941344064E-01  0.74092143594E-04  0.51191399659E-02  0.10204243336E+01  0.10201535690E+01 0.  0.
     999903    2    3    3    0    0 -0.10304793074E+00 -0.55090417332E-01  0.61027251897E-01  0.13330207300E+00  0.19780977751E-01 0.  0.
         14    1    1    2    0    0  0.22941344064E-01 -0.74092143594E-04 -0.51191399659E-02  0.23505666362E-01  0.00000000000E+00 0. -1.
     999901    1    3    3    0    0  0.80106586678E-01  0.55164509475E-01 -0.55908111931E-01  0.88712226064E+00  0.88000000000E+00 0.  1.
        -11    1    4    4    0    0 -0.53221917733E-01 -0.36379644534E-01  0.41165279134E-01  0.76491126222E-01  0.51100000000E-03 0.  1.
         11    1    4    4    0    0 -0.49826013009E-01 -0.18710772798E-01  0.19861972763E-01  0.56810946781E-01  0.51100000000E-03 0. -1.
</event>
<event>
 8    1  0.1084146E+005  0.1043930E+01  0.7957747E-01            NaN
         13   -1    0    0    0    0  0.00000000000E+00  0.00000000000E+00  0.74505805969E-08  0.10566000000E+00  0.10566000000E+00 0. -1.
     999900   -1    0    0    0    0 -0.00000000000E+00 -0.00000000000E+00 -0.74505805969E-08  0.93827000000E+00  0.93827000000E+00 0. -1.
     999902    2    1    2    0    0  0.80276148569E-02 -0.31233198975E-01 -0.11590133224E-01  0.10096621359E+01  0.10090804439E+01 0.  0.
     999903    2    3    3    0    0 -0.33566628246E-01  0.93970680654E-01  0.57958831945E-01  0.11711345319E+00  0.19978172187E-01 0.  0.
         14    1    1    2    0    0 -0.80276148569E-02  0.31233198975E-01  0.11590133224E-01  0.34267864051E-01  0.00000000000E+00 0.  1.
     999901    1    3    3    0    0  0.41594243103E-01 -0.12520387963E+00 -0.69548965168E-01  0.89254868276E+00  0.88000000000E+00 0.  1.
        -11    1    4    4    0    0 -0.28511557110E-02  0.34205502299E-01  0.15836668231E-01  0.37804849663E-01  0.51100000000E-03 0.  1.
         11    1    4    4    0    0 -0.30715472535E-01  0.59765178356E-01  0.42122163713E-01  0.79308603530E-01  0.51100000000E-03 0. -1.
</event>
<event>
 8    1  0.1084146E+005  0.1043930E+01  0.7957747E-01            NaN
         13   -1    0    0    0    0  0.00000000000E+00  0.00000000000E+00  0.74505805969E-08  0.10566000000E+00  0.10566000000E+00 0. -1.
     999900   -1    0    0    0    0 -0.00000000000E+00 -0.00000000000E+00 -0.74505805969E-08  0.93827000000E+00  0.93827000000E+00 0. -1.
     999902    2    1    2    0    0 -0.63369861946E-02  0.20198461210E-01 -0.12171061309E-01  0.10195113603E+01  0.10192188891E+01 0.  0.
     999903    2    3    3    0    0 -0.67647256121E-01  0.87315433079E-01  0.68658367631E-01  0.13114373729E+00  0.16869269971E-01 0.  0.
         14    1    1    2    0    0  0.63369861946E-02 -0.20198461210E-01  0.12171061309E-01  0.24418639657E-01  0.00000000000E+00 0. -1.
     999901    1    3    3    0    0  0.61310269927E-01 -0.67116971869E-01 -0.80829428940E-01  0.88836762306E+00  0.88000000000E+00 0. -1.
        -11    1    4    4    0    0 -0.29239819264E-01  0.41595535569E-01  0.22181138806E-01  0.55474495488E-01  0.51100000000E-03 0. -1.
         11    1    4    4    0    0 -0.38407436858E-01  0.45719897510E-01  0.46477228824E-01  0.75669241800E-01  0.51100000000E-03 0.  1.
</event>
<event>
 8    1  0.1449916E+005  0.1043930E+01  0.7957747E-01            NaN
         13   -1    0    0    0    0  0.00000000000E+00  0.00000000000E+00  0.74505805969E-08  0.10566000000E+00  0.10566000000E+00 0.  1.
     999900   -1    0    0    0    0 -0.00000000000E+00 -0.00000000000E+00 -0.74505805969E-08  0.93827000000E+00  0.93827000000E+00 0.  1.
     999902    2    1    2    0    0  0.19421572714E-02  0.13607132028E-01 -0.19293717975E-01  0.10202408976E+01  0.10199658404E+01 0.  0.
     999903    2    3    3    0    0  0.46228208668E-01  0.12194570445E+00  0.59320972597E-02  0.13213344786E+00  0.20402356570E-01 0.  0.
         14    1    1    2    0    0 -0.19421572714E-02 -0.13607132028E-01  0.19293717975E-01  0.23689102351E-01  0.00000000000E+00 0.  1.
     999901    1    3    3    0    0 -0.44286051396E-01 -0.10833857242E+00 -0.25225815235E-01  0.88810744979E+00  0.88000000000E+00 0. -1.
        -11    1    4    4    0    0  0.54052921941E-02  0.40162870457E-01 -0.92816647910E-04  0.40528299779E-01  0.51100000000E-03 0. -1.
         11    1    4    4    0    0  0.40822916474E-01  0.81782833995E-01  0.60249139076E-02  0.91605148077E-01  0.51100000000E-03 0.  1.
</event>
<event>
 8    1  0.1084146E+005  0.1043930E+01  0.7957747E-01            NaN
         13   -1    0    0    0    0  0.00000000000E+00  0.00000000000E+00  0.74505805969E-08  0.10566000000E+00  0.10566000000E+00 0.  1.
     999900   -1    0    0    0    0 -0.00000000000E+00 -0.00000000000E+00 -0.74505805969E-08  0.93827000000E+00  0.93827000000E+00 0.  1.
     999902    2    1    2    0    0  0.17584472063E-01 -0.13435047180E-01  0.79059955733E-02  0.10204306614E+01  0.10201600442E+01 0.  0.
     999903    2    3    3    0    0 -0.46384241344E-01  0.66282388733E-01  0.99418222673E-01  0.12980091023E+00  0.20480244069E-01 0.  0.
         14    1    1    2    0    0 -0.17584472063E-01  0.13435047180E-01 -0.79059955733E-02  0.23499338639E-01  0.00000000000E+00 0.  1.
     999901    1    3    3    0    0  0.63968713407E-01 -0.79717435912E-01 -0.91512227099E-01  0.89062975113E+00  0.88000000000E+00 0.  1.
        -11    1    4    4    0    0 -0.32588171119E-01  0.31638640203E-01  0.45948863668E-01  0.64610770342E-01  0.51100000000E-03 0. -1.
         11    1    4    4    0    0 -0.13796070224E-01  0.34643748529E-01  0.53469359004E-01  0.65190139892E-01  0.51100000000E-03 0.  1.
</event>
<event>
 8    1  0.1364340E+005  0.1043930E+01  0.7957747E-01            NaN
         13   -1    0    0    0    0  0.00000000000E+00  0.00000000000E+00  0.74505805969E-08  0.10566000000E+00  0.10566000000E+00 0.  1.
     999900   -1    0    0    0    0 -0.00000000000E+00 -0.00000000000E+00 -0.74505805969E-08  0.93827000000E+00  0.93827000000E+00 0. -1.
     999902    2    1    2    0    0 -0.16011019398E-01 -0.10990424853E-01 -0.23522052480E-01  0.10134270635E+01  0.10129679087E+01 0.  0.
     999903    2    3    3    0    0  0.43871696042E-01 -0.89143529967E-01  0.69519133466E-01  0.12306168362E+00  0.20975543141E-01 0.  0.
         14    1    1    2    0    0  0.16011019398E-01  0.10990424853E-01  0.23522052480E-01  0.30502936473E-01  0.00000000000E+00 0.  1.
     999901    1    3    3    0    0 -0.59882715440E-01  0.78153105114E-01 -0.93041185946E-01  0.89036537990E+00  0.88000000000E+00 0. -1.
        -11    1    4    4    0    0  0.28521445002E-01 -0.59607686005E-01  0.57724534074E-01  0.87743558231E-01  0.51100000000E-03 0. -1.
         11    1    4    4    0    0  0.15350251040E-01 -0.29535843961E-01  0.11794599392E-01  0.35318125394E-01  0.51100000000E-03 0.  1.
</event>
<event>
 8    1  0.1084146E+005  0.1043930E+01  0.7957747E-01            NaN
         13   -1    0    0    0    0  0.00000000000E+00  0.00000000000E+00  0.74505805969E-08  0.10566000000E+00  0.10566000000E+00 0.  1.
     999900   -1    0    0    0    0 -0.00000000000E+00 -0.00000000000E+00 -0.74505805969E-08  0.93827000000E+00  0.93827000000E+00 0.  1.
     999902    2    1    2    0    0  0.38971434251E-02  0.19041319884E-01  0.12504020189E-01  0.10208191776E+01  0.10205575355E+01 0.  0.
     999903    2    3    3    0    0  0.28948799507E-02  0.61708582318E-01  0.11682384823E+00  0.13363028774E+00  0.19822028759E-01 0.  0.
         14    1    1    2    0    0 -0.38971434251E-02 -0.19041319884E-01 -0.12504020189E-01  0.23110822372E-01  0.00000000000E+00 0. -1.
     999901    1    3    3    0    0  0.10022634744E-02 -0.42667262434E-01 -0.10431982804E+00  0.88718888989E+00  0.88000000000E+00 0.  1.
        -11    1    4    4    0    0 -0.59311864624E-02  0.46066372141E-01  0.91019986098E-01  0.10218702758E+00  0.51100000000E-03 0. -1.
         11    1    4    4    0    0  0.88260664131E-02  0.15642210178E-01  0.25803862136E-01  0.31443260163E-01  0.51100000000E-03 0.  1.
</event>
<event>
 8    1  0.1084146E+005  0.1043930E+01  0.7957747E-01            NaN
         13   -1    0    0    0    0  0.00000000000E+00  0.00000000000E+00  0.74505805969E-08  0.10566000000E+00  0.10566000000E+00 0.  1.
     999900   -1    0    0    0    0 -0.00000000000E+00 -0.00000000000E+00 -0.74505805969E-08  0.93827000000E+00  0.93827000000E+00 0.  1.
     999902    2    1    2    0    0  0.11327515542E-02  0.11136623290E-01 -0.20547820054E-01  0.10205308459E+01  0.10202625579E+01 0.  0.
     999903    2    3    3    0    0  0.10705701996E+00 -0.64809064228E-01 -0.31171923835E-01  0.13086766823E+00  0.22208949181E-01 0.  0.
         14    1    1    2    0    0 -0.11327515542E-02 -0.11136623290E-01  0.20547820054E-01  0.23399154117E-01  0.00000000000E+00 0.  1.
     999901    1    3    3    0    0 -0.10592426841E+00  0.75945687518E-01  0.10624103781E-01  0.88966317765E+00  0.88000000000E+00 0. -1.
        -11    1    4    4    0    0  0.71714194487E-02 -0.12177843863E-01 -0.22728367641E-02  0.14323269390E-01  0.51100000000E-03 0. -1.
         11    1    4    4    0    0  0.99885600511E-01 -0.52631220365E-01 -0.28899087071E-01  0.11654439884E+00  0.51100000000E-03 0.  1.
</event>
<event>
 8    1  0.1084146E+005  0.1043930E+01  0.7957747E-01            NaN
         13   -1    0    0    0    0  0.00000000000E+00  0.00000000000E+00  0.74505805969E-08  0.10566000000E+00  0.10566000000E+00 0.  1.
     999900   -1    0    0    0    0 -0.00000000000E+00 -0.00000000000E+00 -0.74505805969E-08  0.93827000000E+00  0.93827000000E+00 0.  1.
     999902    2    1    2    0    0  0.25870148038E-01  0.98182891810E-02  0.61547935839E-02  0.10155831334E+01  0.10151874487E+01 0.  0.
     999903    2    3    3    0    0 -0.55404789822E-01  0.11116962462E+00  0.27946223793E-02  0.12603886836E+00  0.21204014935E-01 0.  0.
         14    1    1    2    0    0 -0.25870148038E-01 -0.98182891810E-02 -0.61547935839E-02  0.28346866599E-01  0.00000000000E+00 0. -1.
     999901    1    3    3    0    0  0.81274937859E-01 -0.10135133544E+00  0.33601712047E-02  0.88954426504E+00  0.88000000000E+00 0.  1.
        -11    1    4    4    0    0 -0.18886071908E-01  0.25528012793E-01 -0.66806976785E-02  0.32453905647E-01  0.51100000000E-03 0.  1.
         11    1    4    4    0    0 -0.36518717913E-01  0.85641611828E-01  0.94753200578E-02  0.93584962711E-01  0.51100000000E-03 0. -1.
</event>
<event>
 8    1  0.1084146E+005  0.1043930E+01  0.7957747E-01            NaN
         13   -1    0    0    0    0  0.00000000000E+00  0.00000000000E+00  0.74505805969E-08  0.10566000000E+00  0.10566000000E+00 0. -1.
     999900   -1    0    0    0    0 -0.00000000000E+00 -0.00000000000E+00 -0.74505805969E-08  0.93827000000E+00  0.93827000000E+00 0.  1.
     999902    2    1    2    0    0  0.24907763387E-01  0.44168599641E-02 -0.29594764291E-02  0.10184611204E+01  0.10181426176E+01 0.  0.
     999903    2    3    3    0    0 -0.47267719062E-01  0.63000412534E-01 -0.99186962916E-01  0.12834817133E+00  0.20782449943E-01 0.  0.
         14    1    1    2    0    0 -0.24907763387E-01 -0.44168599641E-02  0.29594764291E-02  0.25468879630E-01  0.00000000000E+00 0. -1.
     999901    1    3    3    0    0  0.72175482449E-01 -0.58583552570E-01  0.96227486487E-01  0.89011294904E+00  0.88000000000E+00 0.  1.
        -11    1    4    4    0    0 -0.31339887786E-01  0.27332683788E-01 -0.60099556114E-01  0.73085442707E-01  0.51100000000E-03 0. -1.
         11    1    4    4    0    0 -0.15927831275E-01  0.35667728746E-01 -0.39087406802E-01  0.55262728620E-01  0.51100000000E-03 0.  1.
</event>
<event>
 8    1  0.1084146E+005  0.1043930E+01  0.7957747E-01            NaN
         13   -1    0    0    0    0  0.00000000000E+00  0.00000000000E+00  0.74505805969E-08  0.10566000000E+00  0.10566000000E+00 0. -1.
     999900   -1    0    0    0    0 -0.00000000000E+00 -0.00000000000E+00 -0.74505805969E-08  0.93827000000E+00  0.93827000000E+00 0. -1.
     999902    2    1    2    0    0 -0.89721224325E-02 -0.23261305935E-01  0.36551947591E-02  0.10187318298E+01  0.10184201457E+01 0.  0.
     999903    2    3    3    0    0 -0.91111997142E-01 -0.42545952990E-01 -0.80944672216E-01  0.13065751186E+00  0.20193843247E-01 0.  0.
         14    1    1    2    0    0  0.89721224325E-02  0.23261305935E-01 -0.36551947591E-02  0.25198170240E-01  0.00000000000E+00 0.  1.
     999901    1    3    3    0    0  0.82139874709E-01  0.19284647055E-01  0.84599866975E-01  0.88807431790E+00  0.88000000000E+00 0.  1.
        -11    1    4    4    0    0 -0.77669407349E-01 -0.31565627406E-01 -0.74428090676E-01  0.11211033616E+00  0.51100000000E-03 0. -1.
         11    1    4    4    0    0 -0.13442589793E-01 -0.10980325584E-01 -0.65165815398E-02  0.18547175694E-01  0.51100000000E-03 0.  1.
</event>
<event>
 8    1  0.1084146E+005  0.1043930E+01  0.7957747E-01            NaN
         13   -1    0    0    0    0  0.00000000000E+00  0.00000000000E+00  0.74505805969E-08  0.10566000000E+00  0.10566000000E+00 0.  1.
     999900   -1    0    0    0    0 -0.00000000000E+00 -0.00000000000E+00 -0.74505805969E-08  0.93827000000E+00  0.93827000000E+00 0. -1.
     999902    2    1    2    0    0 -0.11116635464E-02  0.57777451660E-02  0.21468743586E-01  0.10216696072E+01  0.10214270709E+01 0.  0.
     999903    2    3    3    0    0  0.50506538434E-01  0.12107995254E+00  0.40790983560E-02  0.13247815565E+00  0.17959881675E-01 0.  0.
         14    1    1    2    0    0  0.11116635464E-02 -0.57777451660E-02 -0.21468743586E-01  0.22260392768E-01  0.00000000000E+00 0. -1.
     999901    1    3    3    0    0 -0.51618201980E-01 -0.11530220737E+00  0.17389645230E-01  0.88919145158E+00  0.88000000000E+00 0. -1.
        -11    1    4    4    0    0  0.39103716584E-01  0.71443598254E-01  0.40307640456E-02  0.81546284783E-01  0.51100000000E-03 0.  1.
         11    1    4    4    0    0  0.11402821850E-01  0.49636354287E-01  0.48334310407E-04  0.50931870869E-01  0.51100000000E-03 0. -1.
</event>
<event>
 8    1  0.1084146E+005  0.1043930E+01  0.7957747E-01            NaN
         13   -1    0    0    0    0  0.00000000000E+00  0.00000000000E+00  0.74505805969E-08  0.10566000000E+00  0.10566000000E+00 0.  1.
     999900   -1    0    0    0    0 -0.00000000000E+00 -0.00000000000E+00 -0.74505805969E-08  0.93827000000E+00  0.93827000000E+00 0. -1.
     999902    2    1    2    0    0  0.14746701349E-01  0.77365815595E-02  0.17751604705E-01  0.10195899227E+01  0.10192993530E+01 0.  0.
     999903    2    3    3    0    0  0.31516599540E-01 -0.65122565810E-01 -0.10378307590E+00  0.12809658931E+00  0.20088920430E-01 0.  0.
         14    1    1    2    0    0 -0.14746701349E-01 -0.77365815595E-02 -0.17751604705E-01  0.24340077332E-01  0.00000000000E+00 0. -1.
     999901    1    3    3    0    0 -0.16769898190E-01  0.72859147369E-01  0.12153468061E+00  0.89149333336E+00  0.88000000000E+00 0.  1.
        -11    1    4    4    0    0  0.28543837132E-01 -0.38512013794E-01 -0.60391305901E-01  0.77105750720E-01  0.51100000000E-03 0. -1.
         11    1    4    4    0    0  0.29727624079E-02 -0.26610552016E-01 -0.43391770000E-01  0.50990838586E-01  0.51100000000E-03 0.  1.
</event>
<event>
 8    1  0.1084146E+005  0.1043930E+01  0.7957747E-01            NaN
         13   -1    0    0    0    0  0.00000000000E+00  0.00000000000E+00  0.74505805969E-08  0.10566000000E+00  0.10566000000E+00 0.  1.
     999900   -1    0    0    0    0 -0.00000000000E+00 -0.00000000000E+00 -0.74505805969E-08  0.93827000000E+00  0.93827000000E+00 0. -1.
     999902    2    1    2    0    0  0.14204561080E-01  0.24596629914E-01  0.68637779341E-02  0.10147088569E+01  0.10142880207E+01 0.  0.
     999903    2    3    3    0    0  0.90624355754E-02 -0.12648970942E-01 -0.12191916721E+00  0.12454105066E+00  0.20101387111E-01 0.  0.
         14    1    1    2    0    0 -0.14204561080E-01 -0.24596629914E-01 -0.68637779341E-02  0.29221143136E-01  0.00000000000E+00 0. -1.
     999901    1    3    3    0    0  0.51421255047E-02  0.37245600857E-01  0.12878294514E+00  0.89016780620E+00  0.88000000000E+00 0.  1.
        -11    1    4    4    0    0  0.58681968061E-02 -0.12159609983E-01 -0.34363637435E-01  0.36924416684E-01  0.51100000000E-03 0.  1.
         11    1    4    4    0    0  0.31942387693E-02 -0.48936095933E-03 -0.87555529770E-01  0.87616633979E-01  0.51100000000E-03 0. -1.
</event>
<event>
 8    1  0.1084146E+005  0.1043930E+01  0.7957747E-01            NaN
         13   -1    0    0    0    0  0.00000000000E+00  0.00000000000E+00  0.74505805969E-08  0.10566000000E+00  0.10566000000E+00 0. -1.
     999900   -1    0    0    0    0 -0.00000000000E+00 -0.00000000000E+00 -0.74505805969E-08  0.93827000000E+00  0.93827000000E+00 0.  1.
     999902    2    1    2    0    0 -0.58526175647E-02 -0.20709430995E-01 -0.10039866897E-01  0.10201827351E+01  0.10199063096E+01 0.  0.
     999903    2    3    3    0    0  0.89009554853E-01 -0.55553517924E-01 -0.77450105318E-01  0.13183759809E+00  0.19332336821E-01 0.  0.
         14    1    1    2    0    0  0.58526175647E-02  0.20709430995E-01  0.10039866897E-01  0.23747264933E-01  0.00000000000E+00 0. -1.
     999901    1    3    3    0    0 -0.94862172418E-01  0.34844086929E-01  0.67410238420E-01  0.88834513698E+00  0.88000000000E+00 0. -1.
        -11    1    4    4    0    0  0.50946100323E-01 -0.41446352787E-01 -0.53438217602E-01  0.84671184703E-01  0.51100000000E-03 0. -1.
         11    1    4    4    0    0  0.38063454530E-01 -0.14107165137E-01 -0.24011887716E-01  0.47166413385E-01  0.51100000000E-03 0.  1.
</event>
<event>
 8    1  0.1084146E+005  0.1043930E+01  0.7957747E-01            NaN
         13   -1    0    0    0    0  0.00000000000E+00  0.00000000000E+00  0.74505805969E-08  0.10566000000E+00  0.10566000000E+00 0.  1.
     999900   -1    0    0    0    0 -0.00000000000E+00 -0.00000000000E+00 -0.74505805969E-08  0.93827000000E+00  0.93827000000E+00 0. -1.
     999902    2    1    2    0    0 -0.19401108080E-01  0.24247681121E-04  0.13383211117E-01  0.10203606571E+01  0.10200884063E+01 0.  0.
     999903    2    3    3    0    0 -0.11713992653E+00 -0.47378317925E-01  0.37675320760E-01  0.13334882721E+00  0.19900063486E-01 0.  0.
         14    1    1    2    0    0  0.19401108080E-01 -0.24247681121E-04 -0.13383211117E-01  0.23569342853E-01  0.00000000000E+00 0.  1.
     999901    1    3    3    0    0  0.97738818451E-01  0.47402565607E-01 -0.24292109642E-01  0.88701182994E+00  0.88000000000E+00 0. -1.
        -11    1    4    4    0    0 -0.53784693289E-01 -0.11342898643E-01  0.18179628972E-01  0.57898312690E-01  0.51100000000E-03 0.  1.
         11    1    4    4    0    0 -0.63355233242E-01 -0.36035419282E-01  0.19495691788E-01  0.75450514520E-01  0.51100000000E-03 0. -1.
</event>
<event>
 8    1  0.1084146E+005  0.1043930E+01  0.7957747E-01            NaN
         13   -1    0    0    0    0  0.00000000000E+00  0.00000000000E+00  0.74505805969E-08  0.10566000000E+00  0.10566000000E+00 0. -1.
     999900   -1    0    0    0    0 -0.00000000000E+00 -0.00000000000E+00 -0.74505805969E-08  0.93827000000E+00  0.93827000000E+00 0. -1.
     999902    2    1    2    0    0  0.14829091547E-01  0.14967283951E-01  0.16927858802E-01  0.10169027184E+01  0.10165434889E+01 0.  0.
     999903    2    3    3    0    0  0.27925982500E-01  0.11545554336E+00 -0.44864585536E-01  0.12893440537E+00  0.22392116052E-01 0.  0.
         14    1    1    2    0    0 -0.14829091547E-01 -0.14967283951E-01 -0.16927858802E-01  0.27027281561E-01  0.00000000000E+00 0.  1.
     999901    1    3    3    0    0 -0.13096890953E-01 -0.10048825941E+00  0.61792444338E-01  0.88796831307E+00  0.88000000000E+00 0.  1.
        -11    1    4    4    0    0  0.12965534128E-01  0.63703781469E-01 -0.36071156918E-01  0.74348277257E-01  0.51100000000E-03 0.  1.
         11    1    4    4    0    0  0.14960448373E-01  0.51751761895E-01 -0.87934286178E-02  0.54586128115E-01  0.51100000000E-03 0. -1.
</event>
<event>
 8    1  0.1084146E+005  0.1043930E+01  0.7957747E-01            NaN
         13   -1    0    0    0    0  0.00000000000E+00  0.00000000000E+00  0.74505805969E-08  0.10566000000E+00  0.10566000000E+00 0. -1.
     999900   -1    0    0    0    0 -0.00000000000E+00 -0.00000000000E+00 -0.74505805969E-08  0.93827000000E+00  0.93827000000E+00 0.  1.
     999902    2    1    2    0    0  0.16337084270E-01 -0.13195582770E-01  0.10904805227E-01  0.10202669802E+01  0.10199925355E+01 0.  0.
     999903    2    3    3    0    0  0.96598907191E-01  0.34153091426E-01  0.81714510436E-01  0.13251821425E+00  0.19647731872E-01 0.  0.
         14    1    1    2    0    0 -0.16337084270E-01  0.13195582770E-01 -0.10904805227E-01  0.23663019759E-01  0.00000000000E+00 0.  1.
     999901    1    3    3    0    0 -0.80261822921E-01 -0.47348674196E-01 -0.70809705209E-01  0.88774876599E+00  0.88000000000E+00 0.  1.
        -11    1    4    4    0    0  0.56200324777E-01  0.12592824225E-01  0.54230571952E-01  0.79109239550E-01  0.51100000000E-03 0. -1.
         11    1    4    4    0    0  0.40398582414E-01  0.21560267201E-01  0.27483938484E-01  0.53408974699E-01  0.51100000000E-03 0.  1.
</event>
<event>
 8    1  0.1084146E+005  0.1043930E+01  0.7957747E-01            NaN
         13   -1    0    0    0    0  0.00000000000E+00  0.00000000000E+00  0.74505805969E-08  0.10566000000E+00  0.10566000000E+00 0.  1.
     999900   -1    0    0    0    0 -0.00000000000E+00 -0.00000000000E+00 -0.74505805969E-08  0.93827000000E+00  0.93827000000E+00 0. -1.
     999902    2    1    2    0    0 -0.19801717351E-01 -0.12944300177E-01  0.37855762042E-02  0.10199718385E+01  0.10196904225E+01 0.  0.
     999903    2    3    3    0    0 -0.41580935432E-01 -0.12165651047E+00  0.25884010807E-01  0.13273961417E+00  0.20507131016E-01 0.  0.
         14    1    1    2    0    0  0.19801717351E-01  0.12944300177E-01 -0.37855762042E-02  0.23958161538E-01  0.00000000000E+00 0. -1.
     999901    1    3    3    0    0  0.21779218081E-01  0.10871221030E+00 -0.22098434603E-01  0.88723222429E+00  0.88000000000E+00 0. -1.
        -11    1    4    4    0    0 -0.21594379163E-01 -0.73967397460E-01  0.58313502546E-02  0.77277156167E-01  0.51100000000E-03 0.  1.
         11    1    4    4    0    0 -0.19986556269E-01 -0.47689113014E-01  0.20052660553E-01  0.55462458004E-01  0.51100000000E-03 0. -1.
</event>
<event>
 8    1  0.1084146E+005  0.1043930E+01  0.7957747E-01            NaN
         13   -1    0    0    0    0  0.00000000000E+00  0.00000000000E+00  0.74505805969E-08  0.10566000000E+00  0.10566000000E+00 0.  1.
     999900   -1    0    0    0    0 -0.00000000000E+00 -0.00000000000E+00 -0.74505805969E-08  0.93827000000E+00  0.93827000000E+00 0. -1.
     999902    2    1    2    0    0  0.13509575663E-01  0.90306419685E-02 -0.15031611137E-01  0.10217938201E+01  0.10215540124E+01 0.  0.
     999903    2    3    3    0    0 -0.72247766147E-01 -0.78210831223E-02  0.10511228997E+00  0.12934053877E+00  0.19986805949E-01 0.  0.
         14    1    1    2    0    0 -0.13509575663E-01 -0.90306419685E-02  0.15031611137E-01  0.22136179940E-01  0.00000000000E+00 0.  1.
     999901    1    3    3    0    0  0.85757341810E-01  0.16851725091E-01 -0.12014390111E+00  0.89245328129E+00  0.88000000000E+00 0. -1.
        -11    1    4    4    0    0 -0.41273498603E-01 -0.53780653812E-02  0.42766177495E-01  0.59679412972E-01  0.51100000000E-03 0.  1.
         11    1    4    4    0    0 -0.30974267543E-01 -0.24430177411E-02  0.62346112476E-01  0.69661125798E-01  0.51100000000E-03 0. -1.
</event>
<event>
 8    1  0.1084146E+005  0.1043930E+01  0.7957747E-01            NaN
         13   -1    0    0    0    0  0.00000000000E+00  0.00000000000E+00  0.74505805969E-08  0.10566000000E+00  0.10566000000E+00 0. -1.
     999900   -1    0    0    0    0 -0.00000000000E+00 -0.00000000000E+00 -0.74505805969E-08  0.93827000000E+00  0.93827000000E+00 0.  1.
     999902    2    1    2    0    0 -0.14201484463E-01 -0.96579708757E-02  0.17081831569E-01  0.10197071279E+01  0.10194193834E+01 0.  0.
     999903    2    3    3    0    0  0.90066068252E-01  0.75698739821E-01  0.48778344957E-01  0.12888606868E+00  0.19750845613E-01 0.  0.
         14    1    1    2    0    0  0.14201484463E-01  0.96579708757E-02 -0.17081831569E-01  0.24222872087E-01  0.00000000000E+00 0.  1.
     999901    1    3    3    0    0 -0.10426755271E+00 -0.85356710697E-01 -0.31696513388E-01  0.89082105923E+00  0.88000000000E+00 0. -1.
        -11    1    4    4    0    0  0.15348940088E-01  0.23575221117E-01  0.97878165752E-02  0.29789989708E-01  0.51100000000E-03 0.  1.
         11    1    4    4    0    0  0.74717128165E-01  0.52123518704E-01  0.38990528382E-01  0.99096078973E-01  0.51100000000E-03 0. -1.
</event>
<event>
 8    1  0.1084146E+005  0.1043930E+01  0.7957747E-01            NaN
         13   -1    0    0    0    0  0.00000000000E+00  0.00000000000E+00  0.74505805969E-08  0.10566000000E+00  0.10566000000E+00 0. -1.
     999900   -1    0    0    0    0 -0.00000000000E+00 -0.00000000000E+00 -0.74505805969E-08  0.93827000000E+00  0.93827000000E+00 0. -1.
     999902    2    1    2    0    0 -0.16056855181E-01  0.15759904995E-01  0.88252365239E-02  0.10197622114E+01  0.10194757898E+01 0.  0.
     999903    2    3    3    0    0 -0.14151833366E-01  0.84966230374E-01  0.98618504552E-01  0.13248774683E+00  0.20195517532E-01 0.  0.
         14    1    1    2    0    0  0.16056855181E-01 -0.15759904995E-01 -0.88252365239E-02  0.24167788552E-01  0.00000000000E+00 0. -1.
     999901    1    3    3    0    0 -0.19050218150E-02 -0.69206325379E-01 -0.89793268028E-01  0.88727446462E+00  0.88000000000E+00 0. -1.
        -11    1    4    4    0    0 -0.12783916385E-02  0.59455939914E-01  0.60391931970E-01  0.84759009222E-01  0.51100000000E-03 0. -1.
         11    1    4    4    0    0 -0.12873441728E-01  0.25510290460E-01  0.38226572582E-01  0.47728737608E-01  0.51100000000E-03 0.  1.
</event>
<event>
 8    1  0.1084146E+005  0.1043930E+01  0.7957747E-01            NaN
         13   -1    0    0    0    0  0.00000000000E+00  0.00000000000E+00  0.74505805969E-08  0.10566000000E+00  0.10566000000E+00 0. -1.
     999900   -1    0    0    0    0 -0.00000000000E+00 -0.00000000000E+00 -0.74505805969E-08  0.93827000000E+00  0.93827000000E+00 0. -1.
     999902    2    1    2    0    0  0.84662598993E-02 -0.65429883995E-02  0.16127142597E-01  0.10245761120E+01  0.10243933015E+01 0.  0.
     999903    2    3    3    0    0  0.13171105358E+00 -0.96432219094E-02 -0.20976340124E-01  0.13520804471E+00  0.20010375925E-01 0.  0.
         14    1    1    2    0    0 -0.84662598993E-02  0.65429883995E-02 -0.16127142597E-01  0.19353888039E-01  0.00000000000E+00 0.  1.
     999901    1    3    3    0    0 -0.12324479368E+00  0.31002335100E-02  0.37103482721E-01  0.88936806725E+00  0.88000000000E+00 0. -1.
        -11    1    4    4    0    0  0.59706768276E-01  0.54938457869E-02 -0.10841204208E-01  0.60933351698E-01  0.51100000000E-03 0.  1.
         11    1    4    4    0    0  0.72004285306E-01 -0.15137067696E-01 -0.10135135916E-01  0.74274693011E-01  0.51100000000E-03 0. -1.
</event>
<event>
 8    1  0.1084146E+005  0.1043930E+01  0.7957747E-01            NaN
         13   -1    0    0    0    0  0.00000000000E+00  0.00000000000E+00  0.74505805969E-08  0.10566000000E+00  0.10566000000E+00 0.  1.
     999900   -1    0    0    0    0 -0.00000000000E+00 -0.00000000000E+00 -0.74505805969E-08  0.93827000000E+00  0.93827000000E+00 0.  1.
     999902    2    1    2    0    0 -0.22722405258E-01 -0.20225539301E-02 -0.81581632627E-03  0.10211031741E+01  0.10208479946E+01 0.  0.
     999903    2    3    3    0    0  0.24250570211E-01  0.96338117608E-01 -0.82483603245E-01  0.13062526333E+00  0.19755798003E-01 0.  0.
         14    1    1    2    0    0  0.22722405258E-01  0.20225539301E-02  0.81581632627E-03  0.22826825916E-01  0.00000000000E+00 0.  1.
     999901    1    3    3    0    0 -0.46972975468E-01 -0.98360671538E-01  0.81667786919E-01  0.89047791076E+00  0.88000000000E+00 0. -1.
        -11    1    4    4    0    0  0.15723481509E-01  0.38325605155E-01 -0.24351775675E-01  0.48055696653E-01  0.51100000000E-03 0.  1.
         11    1    4    4    0    0  0.85270887012E-02  0.58012512453E-01 -0.58131827570E-01  0.82569566672E-01  0.51100000000E-03 0. -1.
</event>
<event>
 8    1  0.1084146E+005  0.1043930E+01  0.7957747E-01            NaN
         13   -1    0    0    0    0  0.00000000000E+00  0.00000000000E+00  0.74505805969E-08  0.10566000000E+00  0.10566000000E+00 0. -1.
     999900   -1    0    0    0    0 -0.00000000000E+00 -0.00000000000E+00 -0.74505805969E-08  0.93827000000E+00  0.93827000000E+00 0. -1.
     999902    2    1    2    0    0 -0.34179737214E-02 -0.22394942309E-01 -0.19242899100E-02  0.10211941500E+01  0.10209410233E+01 0.  0.
     999903    2    3    3    0    0  0.37463919160E-01 -0.84253808953E-01 -0.94276288390E-01  0.13326017709E+00  0.19183500315E-01 0.  0.
         14    1    1    2    0    0  0.34179737214E-02  0.22394942309E-01  0.19242899100E-02  0.22735850040E-01  0.00000000000E+00 0.  1.
     999901    1    3    3    0    0 -0.40881892881E-01  0.61858866644E-01  0.92351998480E-01  0.88793397287E+00  0.88000000000E+00 0. -1.
        -11    1    4    4    0    0 -0.35362807327E-03 -0.54062621010E-02 -0.12062556316E-01  0.13233257671E-01  0.51100000000E-03 0. -1.
         11    1    4    4    0    0  0.37817547233E-01 -0.78847546852E-01 -0.82213732074E-01  0.12002691942E+00  0.51100000000E-03 0.  1.
</event>
<event>
 8    1  0.1084146E+005  0.1043930E+01  0.7957747E-01            NaN
         13   -1    0    0    0    0  0.00000000000E+00  0.00000000000E+00  0.74505805969E-08  0.10566000000E+00  0.10566000000E+00 0.  1.
     999900   -1    0    0    0    0 -0.00000000000E+00 -0.00000000000E+00 -0.74505805969E-08  0.93827000000E+00  0.93827000000E+00 0. -1.
     999902    2    1    2    0    0  0.18224179686E-01 -0.13386326815E-01  0.13208450316E-01  0.10177426437E+01  0.10174056768E+01 0.  0.
     999903    2    3    3    0    0 -0.11429450992E+00  0.29854770173E-01 -0.33364064970E-01  0.12555432571E+00  0.26385328721E-01 0.  0.
         14    1    1    2    0    0 -0.18224179686E-01  0.13386326815E-01 -0.13208450316E-01  0.26187356312E-01  0.00000000000E+00 0. -1.
     999901    1    3    3    0    0  0.13251868961E+00 -0.43241096989E-01  0.46572515285E-01  0.89218831798E+00  0.88000000000E+00 0.  1.
        -11    1    4    4    0    0 -0.46270215093E-02 -0.21060784937E-02 -0.63903726235E-02  0.81818627425E-02  0.51100000000E-03 0. -1.
         11    1    4    4    0    0 -0.10966748841E+00  0.31960848667E-01 -0.26973692346E-01  0.11737246296E+00  0.51100000000E-03 0.  1.
</event>
<event>
 8    1  0.1084146E+005  0.1043930E+01  0.7957747E-01            NaN
         13   -1    0    0    0    0  0.00000000000E+00  0.00000000000E+00  0.74505805969E-08  0.10566000000E+00  0.10566000000E+00 0. -1.
     999900   -1    0    0    0    0 -0.00000000000E+00 -0.00000000000E+00 -0.74505805969E-08  0.93827000000E+00  0.93827000000E+00 0.  1.
     999902    2    1    2    0    0  0.27252010652E-01  0.33106536296E-02 -0.74885837398E-02  0.10154745717E+01  0.10150758072E+01 0.  0.
     999903    2    3    3    0    0 -0.42415598174E-01  0.29004101939E-01 -0.11329851646E+00  0.12603122284E+00  0.20174102228E-01 0.  0.
         14    1    1    2    0    0 -0.27252010652E-01 -0.33106536296E-02  0.74885837398E-02  0.28455428278E-01  0.00000000000E+00 0. -1.
     999901    1    3    3    0    0  0.69667608827E-01 -0.25693448309E-01  0.10580993272E+00  0.88944334888E+00  0.88000000000E+00 0. -1.
        -11    1    4    4    0    0 -0.17508242336E-01  0.14146637230E-01 -0.27963371548E-01  0.35900935419E-01  0.51100000000E-03 0. -1.
         11    1    4    4    0    0 -0.24907355839E-01  0.14857464708E-01 -0.85335144914E-01  0.90130287422E-01  0.51100000000E-03 0.  1.
</event>
<event>
 8    1  0.1084146E+005  0.1043930E+01  0.7957747E-01            NaN
         13   -1    0    0    0    0  0.00000000000E+00  0.00000000000E+00  0.74505805969E-08  0.10566000000E+00  0.10566000000E+00 0. -1.
     999900   -1    0    0    0    0 -0.00000000000E+00 -0.00000000000E+00 -0.74505805969E-08  0.93827000000E+00  0.93827000000E+00 0.  1.
     999902    2    1    2    0    0  0.18464196754E-01  0.64800424799E-02  0.11957737371E-01  0.10209973814E+01  0.10207398042E+01 0.  0.
     999903    2    3    3    0    0  0.81152433567E-01 -0.82429213857E-01 -0.59365967864E-01  0.13143471255E+00  0.19247668757E-01 0.  0.
         14    1    1    2    0    0 -0.18464196754E-01 -0.64800424799E-02 -0.11957737371E-01  0.22932618589E-01  0.00000000000E+00 0.  1.
     999901    1    3    3    0    0 -0.62688236812E-01  0.88909256337E-01  0.71323705235E-01  0.88956266886E+00  0.88000000000E+00 0. -1.
        -11    1    4    4    0    0  0.26089072961E-01 -0.30347716571E-01 -0.10941246197E-01  0.41492115135E-01  0.51100000000E-03 0.  1.
         11    1    4    4    0    0  0.55063360605E-01 -0.52081497287E-01 -0.48424721667E-01  0.89942597418E-01  0.51100000000E-03 0. -1.
</event>
<event>
 8    1  0.1084146E+005  0.1043930E+01  0.7957747E-01            NaN
         13   -1    0    0    0    0  0.00000000000E+00  0.00000000000E+00  0.74505805969E-08  0.10566000000E+00  0.10566000000E+00 0. -1.
     999900   -1    0    0    0    0 -0.00000000000E+00 -0.00000000000E+00 -0.74505805969E-08  0.93827000000E+00  0.93827000000E+00 0. -1.
     999902    2    1    2    0    0  0.87874550348E-02 -0.22364075053E-01  0.47329148156E-02  0.10194397631E+01  0.10191455534E+01 0.  0.
     999903    2    3    3    0    0 -0.96356165655E-01  0.75603796549E-01  0.28372419457E-01  0.12746907359E+00  0.21045802969E-01 0.  0.
         14    1    1    2    0    0 -0.87874550348E-02  0.22364075053E-01 -0.47329148156E-02  0.24490236863E-01  0.00000000000E+00 0.  1.
     999901    1    3    3    0    0  0.10514362069E+00 -0.97967871602E-01 -0.23639504641E-01  0.89197068955E+00  0.88000000000E+00 0. -1.
        -11    1    4    4    0    0 -0.61056628618E-02  0.12613647631E-01  0.54668055494E-02  0.15050923874E-01  0.51100000000E-03 0.  1.
         11    1    4    4    0    0 -0.90250502793E-01  0.62990148918E-01  0.22905613908E-01  0.11241814971E+00  0.51100000000E-03 0. -1.
</event>
<event>
 8    1  0.1142476E+005  0.1043930E+01  0.7957747E-01            NaN
         13   -1    0    0    0    0  0.00000000000E+00  0.00000000000E+00  0.74505805969E-08  0.10566000000E+00  0.10566000000E+00 0.  1.
     999900   -1    0    0    0    0 -0.00000000000E+00 -0.00000000000E+00 -0.74505805969E-08  0.93827000000E+00  0.93827000000E+00 0. -1.
     999902    2    1    2    0    0  0.59227852902E-02  0.23120955495E-01  0.13768907324E-02  0.10200228087E+01  0.10197426030E+01 0.  0.
     999903    2    3    3    0    0 -0.17298733437E-01 -0.58780527933E-03 -0.12725688933E+00  0.13005202622E+00  0.20484675953E-01 0.  0.
         14    1    1    2    0    0 -0.59227852902E-02 -0.23120955495E-01 -0.13768907324E-02  0.23907191318E-01  0.00000000000E+00 0. -1.
     999901    1    3    3    0    0  0.23221518727E-01  0.23708760775E-01  0.12863378006E+00  0.88997078246E+00  0.88000000000E+00 0.  1.
        -11    1    4    4    0    0 -0.84849151601E-02  0.87941967234E-02 -0.39373780628E-01  0.41229690797E-01  0.51100000000E-03 0. -1.
         11    1    4    4    0    0 -0.88138182767E-02 -0.93820020027E-02 -0.87883108698E-01  0.88822335420E-01  0.51100000000E-03 0.  1.
</event>
<event>
 8    1  0.1084146E+005  0.1043930E+01  0.7957747E-01            NaN
         13   -1    0    0    0    0  0.00000000000E+00  0.00000000000E+00  0.74505805969E-08  0.10566000000E+00  0.10566000000E+00 0.  1.
     999900   -1    0    0    0    0 -0.00000000000E+00 -0.00000000000E+00 -0.74505805969E-08  0.93827000000E+00  0.93827000000E+00 0.  1.
     999902    2    1    2    0    0  0.13135775308E-01  0.16502623346E-01  0.11581684941E-01  0.10198671532E+01  0.10195832431E+01 0.  0.
     999903    2    3    3    0    0  0.49941382495E-01  0.18424634065E-01 -0.11671821686E+00  0.12980018288E+00  0.19782226930E-01 0.  0.
         14    1    1    2    0    0 -0.13135775308E-01 -0.16502623346E-01 -0.11581684941E-01  0.24062846804E-01  0.00000000000E+00 0. -1.
     999901    1    3    3    0    0 -0.36805607187E-01 -0.19220107193E-02  0.12829990180E+00  0.89006697032E+00  0.88000000000E+00 0. -1.
        -11    1    4    4    0    0  0.99613422290E-02  0.36354899912E-02 -0.46144602872E-01  0.47350085763E-01  0.51100000000E-03 0. -1.
         11    1    4    4    0    0  0.39980040266E-01  0.14789144074E-01 -0.70573613989E-01  0.82450097117E-01  0.51100000000E-03 0.  1.
</event>
<event>
 8    1  0.1084146E+005  0.1043930E+01  0.7957747E-01            NaN
         13   -1    0    0    0    0  0.00000000000E+00  0.00000000000E+00  0.74505805969E-08  0.10566000000E+00  0.10566000000E+00 0. -1.
     999900   -1    0    0    0    0 -0.00000000000E+00 -0.00000000000E+00 -0.74505805969E-08  0.93827000000E+00  0.93827000000E+00 0. -1.
     999902    2    1    2    0    0 -0.51546937542E-03  0.79560473836E-02  0.21041260198E-01  0.10214289105E+01  0.10211810418E+01 0.  0.
     999903    2    3    3    0    0 -0.50089150261E-01 -0.43494998317E-01 -0.10885037239E+00  0.12902956257E+00  0.19987160732E-01 0.  0.
         14    1    1    2    0    0  0.51546937542E-03 -0.79560473836E-02 -0.21041260198E-01  0.22501089515E-01  0.00000000000E+00 0. -1.
     999901    1    3    3    0    0  0.49573680886E-01  0.51451045701E-01  0.12989163259E+00  0.89239934791E+00  0.88000000000E+00 0.  1.
        -11    1    4    4    0    0 -0.19611694443E-01 -0.70698434158E-02 -0.24033769670E-01  0.31819560814E-01  0.51100000000E-03 0.  1.
         11    1    4    4    0    0 -0.30477455819E-01 -0.36425154901E-01 -0.84816602724E-01  0.97210001756E-01  0.51100000000E-03 0. -1.
</event>
<event>
 8    1  0.1084146E+005  0.1043930E+01  0.7957747E-01            NaN
         13   -1    0    0    0    0  0.00000000000E+00  0.00000000000E+00  0.74505805969E-08  0.10566000000E+00  0.10566000000E+00 0. -1.
     999900   -1    0    0    0    0 -0.00000000000E+00 -0.00000000000E+00 -0.74505805969E-08  0.93827000000E+00  0.93827000000E+00 0. -1.
     999902    2    1    2    0    0 -0.19728441054E-01 -0.12524159818E-01 -0.61563692994E-02  0.10197645940E+01  0.10194782294E+01 0.  0.
     999903    2    3    3    0    0  0.90601859340E-01  0.87304194366E-01 -0.95170133056E-03  0.12725937603E+00  0.19061054070E-01 0.  0.
         14    1    1    2    0    0  0.19728441054E-01  0.12524159818E-01  0.61563692994E-02  0.24165406029E-01  0.00000000000E+00 0.  1.
     999901    1    3    3    0    0 -0.11033030039E+00 -0.99828354185E-01 -0.52046679688E-02  0.89250521794E+00  0.88000000000E+00 0. -1.
        -11    1    4    4    0    0  0.62074622820E-01  0.69860518811E-01  0.35073176129E-02  0.93521726271E-01  0.51100000000E-03 0. -1.
         11    1    4    4    0    0  0.28527236520E-01  0.17443675556E-01 -0.44590189435E-02  0.33737649759E-01  0.51100000000E-03 0.  1.
</event>
<event>
 8    1  0.1156085E+005  0.1043930E+01  0.7957747E-01            NaN
         13   -1    0    0    0    0  0.00000000000E+00  0.00000000000E+00  0.74505805969E-08  0.10566000000E+00  0.10566000000E+00 0.  1.
     999900   -1    0    0    0    0 -0.00000000000E+00 -0.00000000000E+00 -0.74505805969E-08  0.93827000000E+00  0.93827000000E+00 0. -1.
     999902    2    1    2    0    0 -0.21184905030E-01  0.45884854656E-02 -0.10450793571E-01  0.10198660542E+01  0.10195821179E+01 0.  0.
     999903    2    3    3    0    0  0.10787208019E+00  0.46377164415E-01 -0.48462216981E-01  0.12866076506E+00  0.20439641091E-01 0.  0.
         14    1    1    2    0    0  0.21184905030E-01 -0.45884854656E-02  0.10450793571E-01  0.24063945775E-01  0.00000000000E+00 0.  1.
     999901    1    3    3    0    0 -0.12905698522E+00 -0.41788678949E-01  0.38011423411E-01  0.89120528916E+00  0.88000000000E+00 0.  1.
        -11    1    4    4    0    0  0.46578069727E-01  0.18708926519E-01 -0.99880225859E-02  0.51181659090E-01  0.51100000000E-03 0.  1.
         11    1    4    4    0    0  0.61294010463E-01  0.27668237896E-01 -0.38474194395E-01  0.77479105972E-01  0.51100000000E-03 0. -1.
</event>
<event>
 8    1  0.1084146E+005  0.1043930E+01  0.7957747E-01            NaN
         13   -1    0    0    0    0  0.00000000000E+00  0.00000000000E+00  0.74505805969E-08  0.10566000000E+00  0.10566000000E+00 0.  1.
     999900   -1    0    0    0    0 -0.00000000000E+00 -0.00000000000E+00 -0.74505805969E-08  0.93827000000E+00  0.93827000000E+00 0. -1.
     999902    2    1    2    0    0  0.15417446780E-01 -0.38974763027E-03 -0.17733531405E-01  0.10204283468E+01  0.10201576756E+01 0.  0.
     999903    2    3    3    0    0  0.50650103957E-01  0.60262419166E-01  0.10090668026E+00  0.12970082093E+00  0.21051190774E-01 0.  0.
         14    1    1    2    0    0 -0.15417446780E-01  0.38974763027E-03  0.17733531405E-01  0.23501653230E-01  0.00000000000E+00 0.  1.
     999901    1    3    3    0    0 -0.35232657177E-01 -0.60652166796E-01 -0.11864021167E+00  0.89072752584E+00  0.88000000000E+00 0. -1.
        -11    1    4    4    0    0  0.19745114751E-01  0.27759054257E-01  0.59985375310E-01  0.68985078255E-01  0.51100000000E-03 0.  1.
         11    1    4    4    0    0  0.30904989206E-01  0.32503364908E-01  0.40921304953E-01  0.60715742673E-01  0.51100000000E-03 0. -1.
</event>
<event>
 8    1  0.1084146E+005  0.1043930E+01  0.7957747E-01            NaN
         13   -1    0    0    0    0  0.00000000000E+00  0.00000000000E+00  0.74505805969E-08  0.10566000000E+00  0.10566000000E+00 0.  1.
     999900   -1    0    0    0    0 -0.00000000000E+00 -0.00000000000E+00 -0.74505805969E-08  0.93827000000E+00  0.93827000000E+00 0.  1.
     999902    2    1    2    0    0  0.16254335082E-02 -0.77353410716E-02 -0.21586677506E-01  0.10209416947E+01  0.10206828507E+01 0.  0.
     999903    2    3    3    0    0 -0.12373448855E+00 -0.27579319335E-01  0.24647737073E-01  0.13063471694E+00  0.19674242424E-01 0.  0.
         14    1    1    2    0    0 -0.16254335082E-02  0.77353410716E-02  0.21586677506E-01  0.22988305316E-01  0.00000000000E+00 0. -1.
     999901    1    3    3    0    0  0.12535992206E+00  0.19843978263E-01 -0.46234414579E-01  0.89030697775E+00  0.88000000000E+00 0.  1.
        -11    1    4    4    0    0 -0.90543318881E-01 -0.20446963960E-01  0.90320063893E-02  0.93263118056E-01  0.51100000000E-03 0.  1.
         11    1    4    4    0    0 -0.33191169669E-01 -0.71323553744E-02  0.15615730684E-01  0.37371598882E-01  0.51100000000E-03 0. -1.
</event>
<event>
 8    1  0.1084146E+005  0.1043930E+01  0.7957747E-01            NaN
         13   -1    0    0    0    0  0.00000000000E+00  0.00000000000E+00  0.74505805969E-08  0.10566000000E+00  0.10566000000E+00 0. -1.
     999900   -1    0    0    0    0 -0.00000000000E+00 -0.00000000000E+00 -0.74505805969E-08  0.93827000000E+00  0.93827000000E+00 0. -1.
     999902    2    1    2    0    0 -0.10054267036E-01 -0.16031572617E-01  0.15791107204E-01  0.10192833233E+01  0.10189852965E+01 0.  0.
     999903    2    3    3    0    0  0.11315618103E+00 -0.42930359239E-01  0.42721411759E-01  0.12988487460E+00  0.19940526004E-01 0.  0.
         14    1    1    2    0    0  0.10054267036E-01  0.16031572617E-01 -0.15791107204E-01  0.24646676712E-01  0.00000000000E+00 0.  1.
     999901    1    3    3    0    0 -0.12321044806E+00  0.26898786622E-01 -0.26930304555E-01  0.88939844869E+00  0.88000000000E+00 0. -1.
        -11    1    4    4    0    0  0.41577195520E-01 -0.23754395627E-01  0.23420571641E-01  0.53307774254E-01  0.51100000000E-03 0.  1.
         11    1    4    4    0    0  0.71578985506E-01 -0.19175963612E-01  0.19300840117E-01  0.76577100342E-01  0.51100000000E-03 0. -1.
</event>
<event>
 8    1  0.1084146E+005  0.1043930E+01  0.7957747E-01            NaN
         13   -1    0    0    0    0  0.00000000000E+00  0.00000000000E+00  0.74505805969E-08  0.10566000000E+00  0.10566000000E+00 0. -1.
     999900   -1    0    0    0    0 -0.00000000000E+00 -0.00000000000E+00 -0.74505805969E-08  0.93827000000E+00  0.93827000000E+00 0. -1.
     999902    2    1    2    0    0 -0.23946496050E-01  0.30811362176E-02  0.25610629528E-03  0.10197847383E+01  0.10194988567E+01 0.  0.
     999903    2    3    3    0    0  0.20382871293E-02 -0.82845230624E-01 -0.97958159634E-01  0.12978215878E+00  0.19496688091E-01 0.  0.
         14    1    1    2    0    0  0.23946496050E-01 -0.30811362176E-02 -0.25610629528E-03  0.24145261727E-01  0.00000000000E+00 0.  1.
     999901    1    3    3    0    0 -0.25984783179E-01  0.85926366842E-01  0.98214265929E-01  0.89000257949E+00  0.88000000000E+00 0.  1.
        -11    1    4    4    0    0 -0.13891559040E-02 -0.45251548340E-01 -0.38918417010E-01  0.59703740962E-01  0.51100000000E-03 0. -1.
         11    1    4    4    0    0  0.34274430333E-02 -0.37593682284E-01 -0.59039742625E-01  0.70078417816E-01  0.51100000000E-03 0.  1.
</event>
<event>
 8    1  0.1084146E+005  0.1043930E+01  0.7957747E-01            NaN
         13   -1    0    0    0    0  0.00000000000E+00  0.00000000000E+00  0.74505805969E-08  0.10566000000E+00  0.10566000000E+00 0. -1.
     999900   -1    0    0    0    0 -0.00000000000E+00 -0.00000000000E+00 -0.74505805969E-08  0.93827000000E+00  0.93827000000E+00 0. -1.
     999902    2    1    2    0    0 -0.12820269042E-01 -0.10575940900E-02  0.20063664474E-01  0.10200966529E+01  0.10198181959E+01 0.  0.
     999903    2    3    3    0    0 -0.64001195589E-01  0.43601328158E-01 -0.10143695098E+00  0.12915540557E+00  0.19860385449E-01 0.  0.
         14    1    1    2    0    0  0.12820269042E-01  0.10575940900E-02 -0.20063664474E-01  0.23833347136E-01  0.00000000000E+00 0.  1.
     999901    1    3    3    0    0  0.51180926547E-01 -0.44658922248E-01  0.12150061545E+00  0.89094124730E+00  0.88000000000E+00 0.  1.
        -11    1    4    4    0    0 -0.10483343325E-01  0.17481739267E-01 -0.25341985947E-01  0.32526743886E-01  0.51100000000E-03 0. -1.
         11    1    4    4    0    0 -0.53517852263E-01  0.26119588891E-01 -0.76094965029E-01  0.96628661682E-01  0.51100000000E-03 0.  1.
</event>
<event>
 8    1  0.1084146E+005  0.1043930E+01  0.7957747E-01            NaN
         13   -1    0    0    0    0  0.00000000000E+00  0.00000000000E+00  0.74505805969E-08  0.10566000000E+00  0.10566000000E+00 0. -1.
     999900   -1    0    0    0    0 -0.00000000000E+00 -0.00000000000E+00 -0.74505805969E-08  0.93827000000E+00  0.93827000000E+00 0.  1.
     999902    2    1    2    0    0 -0.18555045061E-01 -0.43534264291E-02 -0.92318043486E-02  0.10227529315E+01  0.10225336624E+01 0.  0.
     999903    2    3    3    0    0  0.22895196771E-01 -0.12839642832E+00  0.11582103120E-01  0.13284394311E+00  0.22439591552E-01 0.  0.
         14    1    1    2    0    0  0.18555045061E-01  0.43534264291E-02  0.92318043486E-02  0.21177068504E-01  0.00000000000E+00 0. -1.
     999901    1    3    3    0    0 -0.41450241831E-01  0.12404300189E+00 -0.20813907469E-01  0.88990898839E+00  0.88000000000E+00 0. -1.
        -11    1    4    4    0    0  0.64610388135E-02 -0.36778247972E-01  0.13588876000E-01  0.39740448140E-01  0.51100000000E-03 0. -1.
         11    1    4    4    0    0  0.16434157957E-01 -0.91618180344E-01 -0.20067728802E-02  0.93103494971E-01  0.51100000000E-03 0.  1.
</event>
<event>
 8    1  0.1084146E+005  0.1043930E+01  0.7957747E-01            NaN
         13   -1    0    0    0    0  0.00000000000E+00  0.00000000000E+00  0.74505805969E-08  0.10566000000E+00  0.10566000000E+00 0.  1.
     999900   -1    0    0    0    0 -0.00000000000E+00 -0.00000000000E+00 -0.74505805969E-08  0.93827000000E+00  0.93827000000E+00 0. -1.
     999902    2    1    2    0    0  0.41553813553E-02 -0.99778158531E-02 -0.21748864679E-01  0.10196434375E+01  0.10193541595E+01 0.  0.
     999903    2    3    3    0    0  0.10684277767E+00  0.28386592330E-01 -0.68649649392E-01  0.13160277808E+00  0.19630055319E-01 0.  0.
         14    1    1    2    0    0 -0.41553813553E-02  0.99778158531E-02  0.21748864679E-01  0.24286562503E-01  0.00000000000E+00 0.  1.
     999901    1    3    3    0    0 -0.10268739631E+00 -0.38364408183E-01  0.46900784714E-01  0.88804065942E+00  0.88000000000E+00 0.  1.
        -11    1    4    4    0    0  0.12060149128E-01 -0.23050968130E-02 -0.43992599208E-02  0.13052788099E-01  0.51100000000E-03 0. -1.
         11    1    4    4    0    0  0.94782628541E-01  0.30691689143E-01 -0.64250389471E-01  0.11854998998E+00  0.51100000000E-03 0.  1.
</event>
<event>
 8    1  0.1084146E+005  0.1043930E+01  0.7957747E-01            NaN
         13   -1    0    0    0    0  0.00000000000E+00  0.00000000000E+00  0.74505805969E-08  0.10566000000E+00  0.10566000000E+00 0.  1.
     999900   -1    0    0    0    0 -0.00000000000E+00 -0.00000000000E+00 -0.74505805969E-08  0.93827000000E+00  0.93827000000E+00 0. -1.
     999902    2    1    2    0    0  0.61337214080E-02  0.25107829997E-01 -0.10754941547E-01  0.10159354571E+01  0.10155496829E+01 0.  0.
     999903    2    3    3    0    0 -0.84976224161E-02  0.12292649633E+00  0.33701655934E-01  0.12927940383E+00  0.19855214814E-01 0.  0.
         14    1    1    2    0    0 -0.61337214080E-02 -0.25107829997E-01  0.10754941547E-01  0.27994542917E-01  0.00000000000E+00 0.  1.
     999901    1    3    3    0    0  0.14631343824E-01 -0.97818666335E-01 -0.44456597481E-01  0.88665605325E+00  0.88000000000E+00 0. -1.
        -11    1    4    4    0    0 -0.67847181632E-02  0.78539790322E-01  0.11668696953E-01  0.79692852088E-01  0.51100000000E-03 0. -1.
         11    1    4    4    0    0 -0.17129042529E-02  0.44386706011E-01  0.22032958981E-01  0.49586551744E-01  0.51100000000E-03 0.  1.
</event>
<event>
 8    1  0.1084146E+005  0.1043930E+01  0.7957747E-01            NaN
         13   -1    0    0    0    0  0.00000000000E+00  0.00000000000E+00  0.74505805969E-08  0.10566000000E+00  0.10566000000E+00 0.  1.
     999900   -1    0    0    0    0 -0.00000000000E+00 -0.00000000000E+00 -0.74505805969E-08  0.93827000000E+00  0.93827000000E+00 0. -1.
     999902    2    1    2    0    0  0.34815943411E-02 -0.49856501431E-02  0.23577283761E-01  0.10195811496E+01  0.10192903679E+01 0.  0.
     999903    2    3    3    0    0 -0.10275392761E+00  0.29911083024E-01 -0.67366825846E-01  0.12785551960E+00  0.18860067387E-01 0.  0.
         14    1    1    2    0    0 -0.34815943411E-02  0.49856501431E-02 -0.23577283761E-01  0.24348850405E-01  0.00000000000E+00 0. -1.
     999901    1    3    3    0    0  0.10623552195E+00 -0.34896733167E-01  0.90944109606E-01  0.89172562999E+00  0.88000000000E+00 0.  1.
        -11    1    4    4    0    0 -0.62947197475E-01  0.95437866199E-02 -0.35011825299E-01  0.72660323181E-01  0.51100000000E-03 0. -1.
         11    1    4    4    0    0 -0.39806730135E-01  0.20367296404E-01 -0.32355000546E-01  0.55195196424E-01  0.51100000000E-03 0.  1.
</event>
<event>
 8    1  0.1084146E+005  0.1043930E+01  0.7957747E-01            NaN
         13   -1    0    0    0    0  0.00000000000E+00  0.00000000000E+00  0.74505805969E-08  0.10566000000E+00  0.10566000000E+00 0.  1.
     999900   -1    0    0    0    0 -0.00000000000E+00 -0.00000000000E+00 -0.74505805969E-08  0.93827000000E+00  0.93827000000E+00 0. -1.
     999902    2    1    2    0    0  0.16144480939E-01  0.99371819830E-02  0.14839685785E-01  0.10198549481E+01  0.10195707464E+01 0.  0.
     999903    2    3    3    0    0 -0.99607530577E-01  0.71561033700E-01 -0.34105618962E-01  0.12879284580E+00  0.19538735700E-01 0.  0.
         14    1    1    2    0    0 -0.16144480939E-01 -0.99371819830E-02 -0.14839685785E-01  0.24075051916E-01  0.00000000000E+00 0. -1.
     999901    1    3    3    0    0  0.11575201152E+00 -0.61623851717E-01  0.48945304746E-01  0.89106210228E+00  0.88000000000E+00 0.  1.
        -11    1    4    4    0    0 -0.74627006403E-01  0.61839328298E-01 -0.22051742218E-01  0.99397349385E-01  0.51100000000E-03 0. -1.
         11    1    4    4    0    0 -0.24980524173E-01  0.97217054019E-02 -0.12053876744E-01  0.29395496415E-01  0.51100000000E-03 0.  1.
</event>
<event>
 8    1  0.1084146E+005  0.1043930E+01  0.7957747E-01            NaN
         13   -1    0    0    0    0  0.00000000000E+00  0.00000000000E+00  0.74505805969E-08  0.10566000000E+00  0.10566000000E+00 0. -1.
     999900   -1    0    0    0    0 -0.00000000000E+00 -0.00000000000E+00 -0.74505805969E-08  0.93827000000E+00  0.93827000000E+00 0.  1.
     999902    2    1    2    0    0  0.11485258520E-01  0.87681414431E-02  0.19294636235E-01  0.10198245140E+01  0.10195395848E+01 0.  0.
     999903    2    3    3    0    0  0.12603413315E+00 -0.21606763568E-01 -0.18968758479E-01  0.13105673392E+00  0.21554553042E-01 0.  0.
         14    1    1    2    0    0 -0.11485258520E-01 -0.87681414431E-02 -0.19294636235E-01  0.24105485996E-01  0.00000000000E+00 0.  1.
     999901    1    3    3    0    0 -0.11454887463E+00  0.30374905011E-01  0.38263394714E-01  0.88876778008E+00  0.88000000000E+00 0. -1.
        -11    1    4    4    0    0  0.19396987382E-01  0.42525226570E-02 -0.46113490909E-02  0.20392467479E-01  0.51100000000E-03 0. -1.
         11    1    4    4    0    0  0.10663714577E+00 -0.25859286225E-01 -0.14357409388E-01  0.11066426645E+00  0.51100000000E-03 0.  1.
</event>
<event>
 8    1  0.1084146E+005  0.1043930E+01  0.7957747E-01            NaN
         13   -1    0    0    0    0  0.00000000000E+00  0.00000000000E+00  0.74505805969E-08  0.10566000000E+00  0.10566000000E+00 0. -1.
     999900   -1    0    0    0    0 -0.00000000000E+00 -0.00000000000E+00 -0.74505805969E-08  0.93827000000E+00  0.93827000000E+00 0.  1.
     999902    2    1    2    0    0  0.22539533320E-01  0.54425153433E-02  0.92870436666E-02  0.10189519954E+01  0.10186458011E+01 0.  0.
     999903    2    3    3    0    0  0.49684780948E-01 -0.85404678210E-01  0.83279915142E-01  0.13077125808E+00  0.20075884962E-01 0.  0.
         14    1    1    2    0    0 -0.22539533320E-01 -0.54425153433E-02 -0.92870436666E-02  0.24978004636E-01  0.00000000000E+00 0.  1.
     999901    1    3    3    0    0 -0.27145247628E-01  0.90847193553E-01 -0.73992871475E-01  0.88818073728E+00  0.88000000000E+00 0.  1.
        -11    1    4    4    0    0  0.17909593404E-01 -0.44642460490E-01  0.30839231594E-01  0.57140372250E-01  0.51100000000E-03 0. -1.
         11    1    4    4    0    0  0.31775187543E-01 -0.40762217720E-01  0.52440683548E-01  0.73630885835E-01  0.51100000000E-03 0.  1.
</event>
<event>
 8    1  0.1084146E+005  0.1043930E+01  0.7957747E-01            NaN
         13   -1    0    0    0    0  0.00000000000E+00  0.00000000000E+00  0.74505805969E-08  0.10566000000E+00  0.10566000000E+00 0.  1.
     999900   -1    0    0    0    0 -0.00000000000E+00 -0.00000000000E+00 -0.74505805969E-08  0.93827000000E+00  0.93827000000E+00 0. -1.
     999902    2    1    2    0    0  0.68785311273E-02  0.22628343241E-01  0.18731852547E-02  0.10202052254E+01  0.10199293294E+01 0.  0.
     999903    2    3    3    0    0  0.12823726576E+00 -0.17747562271E-01 -0.10416049499E-02  0.13095461265E+00  0.19704145213E-01 0.  0.
         14    1    1    2    0    0 -0.68785311273E-02 -0.22628343241E-01 -0.18731852547E-02  0.23724774631E-01  0.00000000000E+00 0.  1.
     999901    1    3    3    0    0 -0.12135873463E+00  0.40375905512E-01  0.29147902047E-02  0.88925061272E+00  0.88000000000E+00 0. -1.
        -11    1    4    4    0    0  0.88426282901E-01 -0.21218822653E-01 -0.23433822104E-02  0.90968118061E-01  0.51100000000E-03 0.  1.
         11    1    4    4    0    0  0.39810982855E-01  0.34712603820E-02  0.13017772604E-02  0.39986494590E-01  0.51100000000E-03 0. -1.
</event>
<event>
 8    1  0.1084146E+005  0.1043930E+01  0.7957747E-01            NaN
         13   -1    0    0    0    0  0.00000000000E+00  0.00000000000E+00  0.74505805969E-08  0.10566000000E+00  0.10566000000E+00 0. -1.
     999900   -1    0    0    0    0 -0.00000000000E+00 -0.00000000000E+00 -0.74505805969E-08  0.93827000000E+00  0.93827000000E+00 0.  1.
     999902    2    1    2    0    0  0.11319430455E-01  0.18822258774E-01 -0.56937865131E-02  0.10212402196E+01  0.10209881292E+01 0.  0.
     999903    2    3    3    0    0 -0.10488207859E+00 -0.34000821238E-01 -0.65880776460E-01  0.12999640206E+00  0.20061943744E-01 0.  0.
         14    1    1    2    0    0 -0.11319430455E-01 -0.18822258774E-01  0.56937865131E-02  0.22689780432E-01  0.00000000000E+00 0. -1.
     999901    1    3    3    0    0  0.11620150905E+00  0.52823080013E-01  0.60186989947E-01  0.89124381751E+00  0.88000000000E+00 0. -1.
        -11    1    4    4    0    0 -0.33501727403E-01 -0.20415432755E-01 -0.19742272063E-01  0.43922364016E-01  0.51100000000E-03 0.  1.
         11    1    4    4    0    0 -0.71380351190E-01 -0.13585388484E-01 -0.46138504397E-01  0.86074038044E-01  0.51100000000E-03 0. -1.
</event>
<event>
 8    1  0.1084146E+005  0.1043930E+01  0.7957747E-01            NaN
         13   -1    0    0    0    0  0.00000000000E+00  0.00000000000E+00  0.74505805969E-08  0.10566000000E+00  0.10566000000E+00 0. -1.
     999900   -1    0    0    0    0 -0.00000000000E+00 -0.00000000000E+00 -0.74505805969E-08  0.93827000000E+00  0.93827000000E+00 0.  1.
     999902    2    1    2    0    0  0.73990254591E-02  0.22050351862E-01 -0.60819612822E-03  0.10206634253E+01  0.10203982038E+01 0.  0.
     999903    2    3    3    0    0 -0.12006578339E+00 -0.41684604943E-01  0.71690757163E-03  0.12919767829E+00  0.23197575089E-01 0.  0.
         14    1    1    2    0    0 -0.73990254591E-02 -0.22050351862E-01  0.60819612822E-03  0.23266574683E-01  0.00000000000E+00 0. -1.
     999901    1    3    3    0    0  0.12746480885E+00  0.63734956805E-01 -0.13251036999E-02  0.89146574702E+00  0.88000000000E+00 0.  1.
        -11    1    4    4    0    0 -0.69051688293E-01 -0.13412704949E-01 -0.54002579395E-02  0.70551117759E-01  0.51100000000E-03 0.  1.
         11    1    4    4    0    0 -0.51014095096E-01 -0.28271899995E-01  0.61171655112E-02  0.58646560536E-01  0.51100000000E-03 0. -1.
</event>
<event>
 8    1  0.1200054E+005  0.1043930E+01  0.7957747E-01            NaN
         13   -1    0    0    0    0  0.00000000000E+00  0.00000000000E+00  0.74505805969E-08  0.10566000000E+00  0.10566000000E+00 0.  1.
     999900   -1    0    0    0    0 -0.00000000000E+00 -0.00000000000E+00 -0.74505805969E-08  0.93827000000E+00  0.93827000000E+00 0.  1.
     999902    2    1    2    0    0 -0.23665581445E-01  0.13855886826E-02 -0.34278261687E-02  0.10199773468E+01  0.10196960618E+01 0.  0.
     999903    2    3    3    0    0 -0.29997580154E-01  0.84684102026E-01  0.92925551677E-01  0.13078517978E+00  0.19958786176E-01 0.  0.
         14    1    1    2    0    0  0.23665581445E-01 -0.13855886826E-02  0.34278261687E-02  0.23952653159E-01  0.00000000000E+00 0. -1.
     999901    1    3    3    0    0  0.63319987087E-02 -0.83298513344E-01 -0.96353377846E-01  0.88919216706E+00  0.88000000000E+00 0.  1.
        -11    1    4    4    0    0 -0.54494864475E-02  0.43921151490E-01  0.40668645772E-01  0.60107938916E-01  0.51100000000E-03 0.  1.
         11    1    4    4    0    0 -0.24548093706E-01  0.40762950536E-01  0.52256905905E-01  0.70677240868E-01  0.51100000000E-03 0. -1.
</event>
<event>
 8    1  0.1084146E+005  0.1043930E+01  0.7957747E-01            NaN
         13   -1    0    0    0    0  0.00000000000E+00  0.00000000000E+00  0.74505805969E-08  0.10566000000E+00  0.10566000000E+00 0. -1.
     999900   -1    0    0    0    0 -0.00000000000E+00 -0.00000000000E+00 -0.74505805969E-08  0.93827000000E+00  0.93827000000E+00 0. -1.
     999902    2    1    2    0    0  0.21352756484E-01 -0.26852667012E-02  0.10451222666E-01  0.10200055581E+01  0.10197249431E+01 0.  0.
     999903    2    3    3    0    0  0.11150934942E+00  0.46037598896E-01  0.52225671108E-01  0.13307420028E+00  0.20674296523E-01 0.  0.
         14    1    1    2    0    0 -0.21352756484E-01  0.26852667012E-02 -0.10451222666E-01  0.23924441936E-01  0.00000000000E+00 0. -1.
     999901    1    3    3    0    0 -0.90156592936E-01 -0.48722865597E-01 -0.41774448442E-01  0.88693135779E+00  0.88000000000E+00 0. -1.
        -11    1    4    4    0    0  0.72531483445E-01  0.36726235917E-01  0.26768390118E-01  0.85594627903E-01  0.51100000000E-03 0.  1.
         11    1    4    4    0    0  0.38977865975E-01  0.93113629792E-02  0.25457280990E-01  0.47479572375E-01  0.51100000000E-03 0. -1.
</event>
<event>
 8    1  0.1084146E+005  0.1043930E+01  0.7957747E-01            NaN
         13   -1    0    0    0    0  0.00000000000E+00  0.00000000000E+00  0.74505805969E-08  0.10566000000E+00  0.10566000000E+00 0.  1.
     999900   -1    0    0    0    0 -0.00000000000E+00 -0.00000000000E+00 -0.74505805969E-08  0.93827000000E+00  0.93827000000E+00 0.  1.
     999902    2    1    2    0    0  0.19128044778E-01  0.65588051603E-02 -0.85570860411E-02  0.10219726836E+01  0.10217367774E+01 0.  0.
     999903    2    3    3    0    0 -0.45754621559E-01  0.11413372909E+00  0.44732870290E-01  0.13145488810E+00  0.12623961753E-01 0.  0.
         14    1    1    2    0    0 -0.19128044778E-01 -0.65588051603E-02  0.85570860411E-02  0.21957316404E-01  0.00000000000E+00 0.  1.
     999901    1    3    3    0    0  0.64882666337E-01 -0.10757492393E+00 -0.53289956331E-01  0.89051779550E+00  0.88000000000E+00 0.  1.
        -11    1    4    4    0    0 -0.11640920004E-01  0.37690393147E-01  0.91670759705E-02  0.40501520428E-01  0.51100000000E-03 0.  1.
         11    1    4    4    0    0 -0.34113701555E-01  0.76443335945E-01  0.35565794320E-01  0.90953367672E-01  0.51100000000E-03 0. -1.
</event>
<event>
 8    1  0.1084146E+005  0.1043930E+01  0.7957747E-01            NaN
         13   -1    0    0    0    0  0.00000000000E+00  0.00000000000E+00  0.74505805969E-08  0.10566000000E+00  0.10566000000E+00 0. -1.
     999900   -1    0    0    0    0 -0.00000000000E+00 -0.00000000000E+00 -0.74505805969E-08  0.93827000000E+00  0.93827000000E+00 0.  1.
     999902    2    1    2    0    0 -0.15796267309E-01 -0.12531178060E-01 -0.12730047764E-01  0.10200845266E+01  0.10198057829E+01 0.  0.
     999903    2    3    3    0    0 -0.72577241006E-01  0.51135583646E-01  0.92246650905E-01  0.12974883556E+00  0.21047847843E-01 0.  0.
         14    1    1    2    0    0  0.15796267309E-01  0.12531178060E-01  0.12730047764E-01  0.23845473376E-01  0.00000000000E+00 0. -1.
     999901    1    3    3    0    0  0.56780973697E-01 -0.63666761706E-01 -0.10497669867E+00  0.89033569106E+00  0.88000000000E+00 0.  1.
        -11    1    4    4    0    0 -0.11209233547E-01  0.17931650546E-01  0.17082879341E-01  0.27189646846E-01  0.51100000000E-03 0.  1.
         11    1    4    4    0    0 -0.61368007459E-01  0.33203933100E-01  0.75163771564E-01  0.10255918871E+00  0.51100000000E-03 0. -1.
</event>
<event>
 8    1  0.1084146E+005  0.1043930E+01  0.7957747E-01            NaN
         13   -1    0    0    0    0  0.00000000000E+00  0.00000000000E+00  0.74505805969E-08  0.10566000000E+00  0.10566000000E+00 0. -1.
     999900   -1    0    0    0    0 -0.00000000000E+00 -0.00000000000E+00 -0.74505805969E-08  0.93827000000E+00  0.93827000000E+00 0.  1.
     999902    2    1    2    0    0  0.18246556961E-01 -0.10162455162E-01 -0.13205385399E-01  0.10192197888E+01  0.10189202046E+01 0.  0.
     999903    2    3    3    0    0 -0.19114024226E-01  0.61792732835E-01  0.10767323322E+00  0.12726407095E+00  0.20467800279E-01 0.  0.
         14    1    1    2    0    0 -0.18246556961E-01  0.10162455162E-01  0.13205385399E-01  0.24710211238E-01  0.00000000000E+00 0.  1.
     999901    1    3    3    0    0  0.37360581187E-01 -0.71955187997E-01 -0.12087861862E+00  0.89195571782E+00  0.88000000000E+00 0.  1.
        -11    1    4    4    0    0 -0.77784031982E-02  0.37846146096E-01  0.45592251978E-01  0.59764110401E-01  0.51100000000E-03 0. -1.
         11    1    4    4    0    0 -0.11335621027E-01  0.23946586739E-01  0.62080981242E-01  0.67499960545E-01  0.51100000000E-03 0.  1.
</event>
<event>
 8    1  0.1084146E+005  0.1043930E+01  0.7957747E-01            NaN
         13   -1    0    0    0    0  0.00000000000E+00  0.00000000000E+00  0.74505805969E-08  0.10566000000E+00  0.10566000000E+00 0. -1.
     999900   -1    0    0    0    0 -0.00000000000E+00 -0.00000000000E+00 -0.74505805969E-08  0.93827000000E+00  0.93827000000E+00 0. -1.
     999902    2    1    2    0    0  0.82603058546E-02  0.77120722443E-02  0.20064374389E-01  0.10209020207E+01  0.10206422723E+01 0.  0.
     999903    2    3    3    0    0  0.10544972341E+00 -0.74094480270E-01  0.18853825935E-01  0.13177910437E+00  0.20015729328E-01 0.  0.
         14    1    1    2    0    0 -0.82603058546E-02 -0.77120722443E-02 -0.20064374389E-01  0.23027979302E-01  0.00000000000E+00 0.  1.
     999901    1    3    3    0    0 -0.97189417559E-01  0.81806552514E-01  0.12105484532E-02  0.88912291633E+00  0.88000000000E+00 0.  1.
        -11    1    4    4    0    0  0.57820109121E-01 -0.33990409539E-01  0.13015923234E-02  0.67085529162E-01  0.51100000000E-03 0. -1.
         11    1    4    4    0    0  0.47629614293E-01 -0.40104070731E-01  0.17552233612E-01  0.64693575204E-01  0.51100000000E-03 0.  1.
</event>
<event>
 8    1  0.1084146E+005  0.1043930E+01  0.7957747E-01            NaN
         13   -1    0    0    0    0  0.00000000000E+00  0.00000000000E+00  0.74505805969E-08  0.10566000000E+00  0.10566000000E+00 0. -1.
     999900   -1    0    0    0    0 -0.00000000000E+00 -0.00000000000E+00 -0.74505805969E-08  0.93827000000E+00  0.93827000000E+00 0. -1.
     999902    2    1    2    0    0 -0.11152117337E-01 -0.18234506774E-01 -0.95424182028E-02  0.10205222085E+01  0.10202537201E+01 0.  0.
     999903    2    3    3    0    0 -0.49384761167E-02 -0.53871184628E-01  0.11705393768E+00  0.13072716497E+00  0.21481951807E-01 0.  0.
         14    1    1    2    0    0  0.11152117337E-01  0.18234506774E-01  0.95424182028E-02  0.23407791514E-01  0.00000000000E+00 0.  1.
     999901    1    3    3    0    0 -0.62136412199E-02  0.35636677854E-01 -0.12659635589E+00  0.88979504352E+00  0.88000000000E+00 0. -1.
        -11    1    4    4    0    0  0.18937690309E-02 -0.45704445150E-01  0.79847434241E-01  0.92023673821E-01  0.51100000000E-03 0.  1.
         11    1    4    4    0    0 -0.68322451476E-02 -0.81667394783E-02  0.37206503444E-01  0.38703491147E-01  0.51100000000E-03 0. -1.
</event>
<event>
 8    1  0.1084146E+005  0.1043930E+01  0.7957747E-01            NaN
         13   -1    0    0    0    0  0.00000000000E+00  0.00000000000E+00  0.74505805969E-08  0.10566000000E+00  0.10566000000E+00 0. -1.
     999900   -1    0    0    0    0 -0.00000000000E+00 -0.00000000000E+00 -0.74505805969E-08  0.93827000000E+00  0.93827000000E+00 0.  1.
     999902    2    1    2    0    0 -0.79236932015E-02  0.18614188177E-01  0.28079517145E-02  0.10235055659E+01  0.10233017570E+01 0.  0.
     999903    2    3    3    0    0 -0.13005713037E+00 -0.12810300325E-01 -0.22635345133E-01  0.13415106048E+00  0.20129262927E-01 0.  0.
         14    1    1    2    0    0  0.79236932015E-02 -0.18614188177E-01 -0.28079517145E-02  0.20424434099E-01  0.00000000000E+00 0.  1.
     999901    1    3    3    0    0  0.12213343717E+00  0.31424488502E-01  0.25443296847E-01  0.88935450542E+00  0.88000000000E+00 0.  1.
        -11    1    4    4    0    0 -0.81367000129E-01  0.18026306139E-02 -0.13702987108E-01  0.82534060628E-01  0.51100000000E-03 0. -1.
         11    1    4    4    0    0 -0.48690130238E-01 -0.14612930939E-01 -0.89323580243E-02  0.51616999855E-01  0.51100000000E-03 0.  1.
</event>
<event>
 8    1  0.1084146E+005  0.1043930E+01  0.7957747E-01            NaN
         13   -1    0    0    0    0  0.00000000000E+00  0.00000000000E+00  0.74505805969E-08  0.10566000000E+00  0.10566000000E+00 0. -1.
     999900   -1    0    0    0    0 -0.00000000000E+00 -0.00000000000E+00 -0.74505805969E-08  0.93827000000E+00  0.93827000000E+00 0.  1.
     999902    2    1    2    0    0 -0.12448943425E-01 -0.20666078405E-01  0.55171995585E-02  0.10191812126E+01  0.10188806807E+01 0.  0.
     999903    2    3    3    0    0 -0.94741261563E-01  0.79150167065E-01 -0.31388486007E-01  0.12895801688E+00  0.20106652527E-01 0.  0.
         14    1    1    2    0    0  0.12448943425E-01  0.20666078405E-01 -0.55171995585E-02  0.24748787445E-01  0.00000000000E+00 0. -1.
     999901    1    3    3    0    0  0.82292318138E-01 -0.99816245470E-01  0.36905685565E-01  0.89022319567E+00  0.88000000000E+00 0. -1.
        -11    1    4    4    0    0 -0.59394315751E-01  0.42980475087E-01 -0.27237231800E-01  0.78212108394E-01  0.51100000000E-03 0. -1.
         11    1    4    4    0    0 -0.35346945811E-01  0.36169691978E-01 -0.41512542071E-02  0.50745908490E-01  0.51100000000E-03 0.  1.
</event>
<event>
 8    1  0.1084146E+005  0.1043930E+01  0.7957747E-01            NaN
         13   -1    0    0    0    0  0.00000000000E+00  0.00000000000E+00  0.74505805969E-08  0.10566000000E+00  0.10566000000E+00 0. -1.
     999900   -1    0    0    0    0 -0.00000000000E+00 -0.00000000000E+00 -0.74505805969E-08  0.93827000000E+00  0.93827000000E+00 0.  1.
     999902    2    1    2    0    0  0.16843658832E-01 -0.16268074916E-01 -0.30959643263E-02  0.10203091596E+01  0.10200357039E+01 0.  0.
     999903    2    3    3    0    0 -0.46824362742E-01  0.38853040012E-01 -0.11260060719E+00  0.12953240809E+00  0.19941623397E-01 0.  0.
         14    1    1    2    0    0 -0.16843658832E-01  0.16268074916E-01  0.30959643263E-02  0.23620840363E-01  0.00000000000E+00 0. -1.
     999901    1    3    3    0    0  0.63668021574E-01 -0.55121114928E-01  0.10950464286E+00  0.89077675154E+00  0.88000000000E+00 0. -1.
        -11    1    4    4    0    0 -0.29868166650E-01  0.35712036654E-01 -0.77230623241E-01  0.90179195097E-01  0.51100000000E-03 0.  1.
         11    1    4    4    0    0 -0.16956196092E-01  0.31410033574E-02 -0.35369983944E-01  0.39353212997E-01  0.51100000000E-03 0. -1.
</event>
<event>
 8    1  0.1421070E+005  0.1043930E+01  0.7957747E-01            NaN
         13   -1    0    0    0    0  0.00000000000E+00  0.00000000000E+00  0.74505805969E-08  0.10566000000E+00  0.10566000000E+00 0. -1.
     999900   -1    0    0    0    0 -0.00000000000E+00 -0.00000000000E+00 -0.74505805969E-08  0.93827000000E+00  0.93827000000E+00 0.  1.
     999902    2    1    2    0    0 -0.23602968508E-01  0.33298023780E-02 -0.70167898207E-02  0.10190820012E+01  0.10187790251E+01 0.  0.
     999903    2    3    3    0    0 -0.62531367298E-01 -0.21344233088E-01  0.11023510891E+00  0.13010942791E+00  0.20271551831E-01 0.  0.
         14    1    1    2    0    0  0.23602968508E-01 -0.33298023780E-02  0.70167898207E-02  0.24847998826E-01  0.00000000000E+00 0. -1.
     999901    1    3    3    0    0  0.38928398791E-01  0.24674035466E-01 -0.11725189873E+00  0.88897257326E+00  0.88000000000E+00 0.  1.
        -11    1    4    4    0    0 -0.30094336319E-01 -0.18283982813E-01  0.69780815688E-01  0.78163907688E-01  0.51100000000E-03 0.  1.
         11    1    4    4    0    0 -0.32437030980E-01 -0.30602502749E-02  0.40454293217E-01  0.51945520223E-01  0.51100000000E-03 0. -1.
</event>
<event>
 8    1  0.1084146E+005  0.1043930E+01  0.7957747E-01            NaN
         13   -1    0    0    0    0  0.00000000000E+00  0.00000000000E+00  0.74505805969E-08  0.10566000000E+00  0.10566000000E+00 0. -1.
     999900   -1    0    0    0    0 -0.00000000000E+00 -0.00000000000E+00 -0.74505805969E-08  0.93827000000E+00  0.93827000000E+00 0.  1.
     999902    2    1    2    0    0 -0.11459299039E-01 -0.48161529860E-02  0.20778854784E-01  0.10197169525E+01  0.10194294441E+01 0.  0.
     999903    2    3    3    0    0 -0.88493765132E-01  0.34252039725E-01 -0.85024386625E-01  0.12918062052E+00  0.21310506911E-01 0.  0.
         14    1    1    2    0    0  0.11459299039E-01  0.48161529860E-02 -0.20778854784E-01  0.24213047519E-01  0.00000000000E+00 0.  1.
     999901    1    3    3    0    0  0.77034466093E-01 -0.39068192711E-01  0.10580324141E+00  0.89053633196E+00  0.88000000000E+00 0. -1.
        -11    1    4    4    0    0 -0.37845076170E-01  0.17442035115E-01 -0.23916703331E-01  0.48049393321E-01  0.51100000000E-03 0.  1.
         11    1    4    4    0    0 -0.50648688962E-01  0.16810004610E-01 -0.61107683294E-01  0.81131227201E-01  0.51100000000E-03 0. -1.
</event>
<event>
 8    1  0.1084146E+005  0.1043930E+01  0.7957747E-01            NaN
         13   -1    0    0    0    0  0.00000000000E+00  0.00000000000E+00  0.74505805969E-08  0.10566000000E+00  0.10566000000E+00 0. -1.
     999900   -1    0    0    0    0 -0.00000000000E+00 -0.00000000000E+00 -0.74505805969E-08  0.93827000000E+00  0.93827000000E+00 0. -1.
     999902    2    1    2    0    0  0.19490480849E-01  0.21342630699E-02 -0.13371240523E-01  0.10201976593E+01  0.10199215852E+01 0.  0.
     999903    2    3    3    0    0  0.93612987656E-01  0.32644020730E-01  0.83932608395E-01  0.13121339039E+00  0.18526940360E-01 0.  0.
         14    1    1    2    0    0 -0.19490480849E-01 -0.21342630699E-02  0.13371240523E-01  0.23732340713E-01  0.00000000000E+00 0.  1.
     999901    1    3    3    0    0 -0.74122506807E-01 -0.30509757660E-01 -0.97303848918E-01  0.88898426889E+00  0.88000000000E+00 0. -1.
        -11    1    4    4    0    0  0.63822343772E-01  0.16028217832E-01  0.63498568972E-01  0.91446840918E-01  0.51100000000E-03 0.  1.
         11    1    4    4    0    0  0.29790643884E-01  0.16615802899E-01  0.20434039423E-01  0.39766549474E-01  0.51100000000E-03 0. -1.
</event>
<event>
 8    1  0.1084146E+005  0.1043930E+01  0.7957747E-01            NaN
         13   -1    0    0    0    0  0.00000000000E+00  0.00000000000E+00  0.74505805969E-08  0.10566000000E+00  0.10566000000E+00 0.  1.
     999900   -1    0    0    0    0 -0.00000000000E+00 -0.00000000000E+00 -0.74505805969E-08  0.93827000000E+00  0.93827000000E+00 0.  1.
     999902    2    1    2    0    0 -0.22166583341E-01  0.90729895197E-02 -0.44547647900E-02  0.10195677036E+01  0.10192765968E+01 0.  0.
     999903    2    3    3    0    0 -0.40205011854E-01  0.92239757325E-01 -0.82860754067E-01  0.13199258267E+00  0.20773095700E-01 0.  0.
         14    1    1    2    0    0  0.22166583341E-01 -0.90729895197E-02  0.44547647900E-02  0.24362296385E-01  0.00000000000E+00 0.  1.
     999901    1    3    3    0    0  0.18038428513E-01 -0.83166767806E-01  0.78405989277E-01  0.88757512095E+00  0.88000000000E+00 0. -1.
        -11    1    4    4    0    0 -0.30117986404E-01  0.43245469920E-01 -0.41333122272E-01  0.66977249058E-01  0.51100000000E-03 0. -1.
         11    1    4    4    0    0 -0.10087025449E-01  0.48994287405E-01 -0.41527631795E-01  0.65015333609E-01  0.51100000000E-03 0.  1.
</event>
<event>
 8    1  0.1084146E+005  0.1043930E+01  0.7957747E-01            NaN
         13   -1    0    0    0    0  0.00000000000E+00  0.00000000000E+00  0.74505805969E-08  0.10566000000E+00  0.10566000000E+00 0. -1.
     999900   -1    0    0    0    0 -0.00000000000E+00 -0.00000000000E+00 -0.74505805969E-08  0.93827000000E+00  0.93827000000E+00 0.  1.
     999902    2    1    2    0    0  0.14364655191E-01  0.18221371307E-01  0.36386560152E-02  0.10204438017E+01  0.10201734906E+01 0.  0.
     999903    2    3    3    0    0  0.11127804081E+00 -0.59023952379E-01 -0.30160202798E-01  0.13111742341E+00  0.20384100808E-01 0.  0.
         14    1    1    2    0    0 -0.14364655191E-01 -0.18221371307E-01 -0.36386560152E-02  0.23486198259E-01  0.00000000000E+00 0. -1.
     999901    1    3    3    0    0 -0.96913385624E-01  0.77245323687E-01  0.33798858813E-01  0.88932637833E+00  0.88000000000E+00 0. -1.
        -11    1    4    4    0    0  0.66962677494E-01 -0.37377971056E-01 -0.81991882428E-02  0.77127172296E-01  0.51100000000E-03 0. -1.
         11    1    4    4    0    0  0.44315363321E-01 -0.21645981323E-01 -0.21961014555E-01  0.53990251111E-01  0.51100000000E-03 0.  1.
</event>
<event>
 8    1  0.1084146E+005  0.1043930E+01  0.7957747E-01            NaN
         13   -1    0    0    0    0  0.00000000000E+00  0.00000000000E+00  0.74505805969E-08  0.10566000000E+00  0.10566000000E+00 0. -1.
     999900   -1    0    0    0    0 -0.00000000000E+00 -0.00000000000E+00 -0.74505805969E-08  0.93827000000E+00  0.93827000000E+00 0. -1.
     999902    2    1    2    0    0 -0.11052643603E-01  0.14809306207E-01  0.14956900319E-01  0.10201563728E+01  0.10198793261E+01 0.  0.
     999903    2    3    3    0    0 -0.86484073584E-01 -0.52930804580E-01 -0.78664157439E-01  0.12940190292E+00  0.16602341887E-01 0.  0.
         14    1    1    2    0    0  0.11052643603E-01 -0.14809306207E-01 -0.14956900319E-01  0.23773627155E-01  0.00000000000E+00 0.  1.
     999901    1    3    3    0    0  0.75431429982E-01  0.67740110787E-01  0.93621057758E-01  0.89075446993E+00  0.88000000000E+00 0. -1.
        -11    1    4    4    0    0 -0.64276265688E-01 -0.47344584272E-01 -0.61819301867E-01  0.10096947655E+00  0.51100000000E-03 0. -1.
         11    1    4    4    0    0 -0.22207807897E-01 -0.55862203073E-02 -0.16844855573E-01  0.28432426368E-01  0.51100000000E-03 0.  1.
</event>
<event>
 7    1  0.1084146E+005  0.1043930E+01  0.7957747E-01            NaN
         13   -1    0    0    0    0  0.00000000000E+00  0.00000000000E+00  0.74505805969E-08  0.10566000000E+00  0.10566000000E+00 0.  1.
     999900   -1    0    0    0    0 -0.00000000000E+00 -0.00000000000E+00 -0.74505805969E-08  0.93827000000E+00  0.93827000000E+00 0.  1.
     999903    2    1    2    0    0 -0.44290119894E-01 -0.22019130143E-01  0.67778193069E-01  0.86149344700E-01  0.19528679525E-01 0.  0.
         14    1    1    2    0    0  0.50587715703E-02 -0.24766720406E-01  0.61266096212E-01  0.66276060192E-01  0.00000000000E+00 0.  1.
     999901    1    1    2    0    0  0.39231348324E-01  0.46785850549E-01 -0.12904428928E+00  0.89150459511E+00  0.88000000000E+00 0.  1.
        -11    1    3    3    0    0 -0.26967600457E-01 -0.18639939550E-01  0.29964508806E-01  0.44416570442E-01  0.51100000000E-03 0. -1.
         11    1    3    3    0    0 -0.17322519438E-01 -0.33791905932E-02  0.37813684263E-01  0.41732774258E-01  0.51100000000E-03 0.  1.
</event>
<event>
 8    1  0.1084146E+005  0.1043930E+01  0.7957747E-01            NaN
         13   -1    0    0    0    0  0.00000000000E+00  0.00000000000E+00  0.74505805969E-08  0.10566000000E+00  0.10566000000E+00 0. -1.
     999900   -1    0    0    0    0 -0.00000000000E+00 -0.00000000000E+00 -0.74505805969E-08  0.93827000000E+00  0.93827000000E+00 0.  1.
     999902    2    1    2    0    0  0.10964254176E-01  0.21364681067E-01 -0.11256458323E-02  0.10198897932E+01  0.10196064234E+01 0.  0.
     999903    2    3    3    0    0 -0.12435286295E+00  0.19462504357E-01 -0.21625601999E-01  0.12930875323E+00  0.20264831658E-01 0.  0.
         14    1    1    2    0    0 -0.10964254176E-01 -0.21364681067E-01  0.11256458323E-02  0.24040206848E-01  0.00000000000E+00 0.  1.
     999901    1    3    3    0    0  0.13531711712E+00  0.19021767106E-02  0.20499956167E-01  0.89058103992E+00  0.88000000000E+00 0. -1.
        -11    1    4    4    0    0 -0.90451000357E-01  0.97226212620E-02 -0.23573398474E-01  0.93978077584E-01  0.51100000000E-03 0.  1.
         11    1    4    4    0    0 -0.33901862588E-01  0.97398830947E-02  0.19477964747E-02  0.35330675648E-01  0.51100000000E-03 0. -1.
</event>
<event>
 7    1  0.1084146E+005  0.1043930E+01  0.7957747E-01            NaN
         13   -1    0    0    0    0  0.00000000000E+00  0.00000000000E+00  0.74505805969E-08  0.10566000000E+00  0.10566000000E+00 0. -1.
     999900   -1    0    0    0    0 -0.00000000000E+00 -0.00000000000E+00 -0.74505805969E-08  0.93827000000E+00  0.93827000000E+00 0. -1.
     999903    2    1    2    0    0 -0.55316412901E-01 -0.51105695698E-01  0.88537052485E-01  0.11799198350E+00  0.20287948088E-01 0.  0.
         14    1    1    2    0    0 -0.31091989363E-03  0.22403950753E-01 -0.35680871533E-01  0.42132627190E-01  0.00000000000E+00 0.  1.
     999901    1    1    2    0    0  0.55627332794E-01  0.28701744945E-01 -0.52856180951E-01  0.88380538931E+00  0.88000000000E+00 0. -1.
        -11    1    3    3    0    0 -0.49805415921E-01 -0.38321800123E-01  0.63498175999E-01  0.89338789425E-01  0.51100000000E-03 0. -1.
         11    1    3    3    0    0 -0.55109969792E-02 -0.12783895575E-01  0.25038876486E-01  0.28653194071E-01  0.51100000000E-03 0.  1.
</event>
<event>
 8    1  0.1084146E+005  0.1043930E+01  0.7957747E-01            NaN
         13   -1    0    0    0    0  0.00000000000E+00  0.00000000000E+00  0.74505805969E-08  0.10566000000E+00  0.10566000000E+00 0. -1.
     999900   -1    0    0    0    0 -0.00000000000E+00 -0.00000000000E+00 -0.74505805969E-08  0.93827000000E+00  0.93827000000E+00 0. -1.
     999902    2    1    2    0    0 -0.64980134938E-02  0.10850682584E-01  0.14996724428E-01  0.10243120685E+01  0.10241241870E+01 0.  0.
     999903    2    3    3    0    0  0.28035566259E-01  0.12981076133E+00  0.19225448731E-01  0.13562655014E+00  0.19700672359E-01 0.  0.
         14    1    1    2    0    0  0.64980134938E-02 -0.10850682584E-01 -0.14996724428E-01  0.19617931478E-01  0.00000000000E+00 0. -1.
     999901    1    3    3    0    0 -0.34533579753E-01 -0.11896007875E+00 -0.42287243030E-02  0.88868551838E+00  0.88000000000E+00 0. -1.
        -11    1    4    4    0    0 -0.19445807234E-02  0.81688756445E-02 -0.17691034690E-02  0.85966721218E-02  0.51100000000E-03 0.  1.
         11    1    4    4    0    0  0.29980146982E-01  0.12164188569E+00  0.20994552200E-01  0.12702987802E+00  0.51100000000E-03 0. -1.
</event>
<event>
 8    1  0.1084146E+005  0.1043930E+01  0.7957747E-01            NaN
         13   -1    0    0    0    0  0.00000000000E+00  0.00000000000E+00  0.74505805969E-08  0.10566000000E+00  0.10566000000E+00 0. -1.
     999900   -1    0    0    0    0 -0.00000000000E+00 -0.00000000000E+00 -0.74505805969E-08  0.93827000000E+00  0.93827000000E+00 0.  1.
     999902    2    1    2    0    0  0.24793276462E-02 -0.21232207486E-01  0.78887873978E-02  0.10211443320E+01  0.10208900823E+01 0.  0.
     999903    2    3    3    0    0 -0.35442267311E-02 -0.71039146432E-01  0.11147050462E+00  0.13365000157E+00  0.19430070766E-01 0.  0.
         14    1    1    2    0    0 -0.24793276462E-02  0.21232207486E-01 -0.78887873978E-02  0.22785668016E-01  0.00000000000E+00 0. -1.
     999901    1    3    3    0    0  0.60235543773E-02  0.49806938946E-01 -0.10358171722E+00  0.88749433041E+00  0.88000000000E+00 0.  1.
        -11    1    4    4    0    0 -0.21236930958E-02 -0.21352518146E-01  0.19001165121E-01  0.28666103686E-01  0.51100000000E-03 0. -1.
         11    1    4    4    0    0 -0.14205336353E-02 -0.49686628286E-01  0.92469339501E-01  0.10498389788E+00  0.51100000000E-03 0.  1.
</event>
<event>
 8    1  0.1084146E+005  0.1043930E+01  0.7957747E-01            NaN
         13   -1    0    0    0    0  0.00000000000E+00  0.00000000000E+00  0.74505805969E-08  0.10566000000E+00  0.10566000000E+00 0.  1.
     999900   -1    0    0    0    0 -0.00000000000E+00 -0.00000000000E+00 -0.74505805969E-08  0.93827000000E+00  0.93827000000E+00 0.  1.
     999902    2    1    2    0    0  0.14282181859E-01  0.10774503447E-01 -0.90904772484E-03  0.10260164015E+01  0.10258600095E+01 0.  0.
     999903    2    3    3    0    0  0.13544050553E+00  0.14067627491E-01  0.30771045977E-02  0.13769997507E+00  0.20243168727E-01 0.  0.
         14    1    1    2    0    0 -0.14282181859E-01 -0.10774503447E-01  0.90904772484E-03  0.17913598492E-01  0.00000000000E+00 0. -1.
     999901    1    3    3    0    0 -0.12115832368E+00 -0.32931240442E-02 -0.39861523226E-02  0.88831642643E+00  0.88000000000E+00 0.  1.
        -11    1    4    4    0    0  0.70930442635E-01  0.16231172394E-01  0.65388731676E-02  0.73058857321E-01  0.51100000000E-03 0. -1.
         11    1    4    4    0    0  0.64510062899E-01 -0.21635449024E-02 -0.34617685698E-02  0.64641117753E-01  0.51100000000E-03 0.  1.
</event>
<event>
 8    1  0.1084146E+005  0.1043930E+01  0.7957747E-01            NaN
         13   -1    0    0    0    0  0.00000000000E+00  0.00000000000E+00  0.74505805969E-08  0.10566000000E+00  0.10566000000E+00 0. -1.
     999900   -1    0    0    0    0 -0.00000000000E+00 -0.00000000000E+00 -0.74505805969E-08  0.93827000000E+00  0.93827000000E+00 0.  1.
     999902    2    1    2    0    0  0.20260068826E-01 -0.58996445034E-02 -0.10516284495E-01  0.10203531377E+01  0.10200807112E+01 0.  0.
     999903    2    3    3    0    0  0.27273755478E-01  0.59665482135E-01  0.10987028452E+00  0.12971241129E+00  0.21213267665E-01 0.  0.
         14    1    1    2    0    0 -0.20260068826E-01  0.58996445034E-02  0.10516284495E-01  0.23576862252E-01  0.00000000000E+00 0. -1.
     999901    1    3    3    0    0 -0.70136866523E-02 -0.65565126638E-01 -0.12038656901E+00  0.89064072646E+00  0.88000000000E+00 0.  1.
        -11    1    4    4    0    0  0.26942542419E-01  0.60418081190E-01  0.10067059030E+00  0.12046191929E+00  0.51100000000E-03 0. -1.
         11    1    4    4    0    0  0.33121305954E-03 -0.75259905534E-03  0.91996942232E-02  0.92504919993E-02  0.51100000000E-03 0.  1.
</event>
<event>
 8    1  0.1084146E+005  0.1043930E+01  0.7957747E-01            NaN
         13   -1    0    0    0    0  0.00000000000E+00  0.00000000000E+00  0.74505805969E-08  0.10566000000E+00  0.10566000000E+00 0.  1.
     999900   -1    0    0    0    0 -0.00000000000E+00 -0.00000000000E+00 -0.74505805969E-08  0.93827000000E+00  0.93827000000E+00 0. -1.
     999902    2    1    2    0    0  0.20093805306E-01  0.13345572217E-02  0.10928484913E-01  0.10210176925E+01  0.10207605765E+01 0.  0.
     999903    2    3    3    0    0 -0.72876601667E-02 -0.12842933641E-01  0.12997022041E+00  0.13246736710E+00  0.20911580933E-01 0.  0.
         14    1    1    2    0    0 -0.20093805306E-01 -0.13345572217E-02 -0.10928484913E-01  0.22912307548E-01  0.00000000000E+00 0. -1.
     999901    1    3    3    0    0  0.27381465473E-01  0.14177490862E-01 -0.11904173550E+00  0.88855032536E+00  0.88000000000E+00 0. -1.
        -11    1    4    4    0    0  0.46327062190E-02 -0.24081663479E-02  0.86535124379E-02  0.10119566719E-01  0.51100000000E-03 0.  1.
         11    1    4    4    0    0 -0.11920366386E-01 -0.10434767293E-01  0.12131670797E+00  0.12234780038E+00  0.51100000000E-03 0. -1.
</event>
<event>
 8    1  0.1084146E+005  0.1043930E+01  0.7957747E-01            NaN
         13   -1    0    0    0    0  0.00000000000E+00  0.00000000000E+00  0.74505805969E-08  0.10566000000E+00  0.10566000000E+00 0.  1.
     999900   -1    0    0    0    0 -0.00000000000E+00 -0.00000000000E+00 -0.74505805969E-08  0.93827000000E+00  0.93827000000E+00 0. -1.
     999902    2    1    2    0    0 -0.21794657590E-01  0.10585268781E-01  0.59391322526E-02  0.10189834911E+01  0.10186780781E+01 0.  0.
     999903    2    3    3    0    0 -0.13061635386E+00 -0.26759386499E-02 -0.42894593469E-02  0.13212237159E+00  0.19238738820E-01 0.  0.
         14    1    1    2    0    0  0.21794657590E-01 -0.10585268781E-01 -0.59391322526E-02  0.24946508905E-01  0.00000000000E+00 0. -1.
     999901    1    3    3    0    0  0.10882169627E+00  0.13261207431E-01  0.10228591599E-01  0.88686111950E+00  0.88000000000E+00 0.  1.
        -11    1    4    4    0    0 -0.12055760904E+00  0.12472458142E-02 -0.19862894804E-03  0.12056530717E+00  0.51100000000E-03 0.  1.
         11    1    4    4    0    0 -0.10058744817E-01 -0.39231844641E-02 -0.40908303988E-02  0.11557064419E-01  0.51100000000E-03 0. -1.
</event>
<event>
 8    1  0.1084146E+005  0.1043930E+01  0.7957747E-01            NaN
         13   -1    0    0    0    0  0.00000000000E+00  0.00000000000E+00  0.74505805969E-08  0.10566000000E+00  0.10566000000E+00 0. -1.
     999900   -1    0    0    0    0 -0.00000000000E+00 -0.00000000000E+00 -0.74505805969E-08  0.93827000000E+00  0.93827000000E+00 0. -1.
     999902    2    1    2    0    0  0.19808018301E-01  0.35117671317E-02 -0.12226554292E-01  0.10203889990E+01  0.10201174102E+01 0.  0.
     999903    2    3    3    0    0 -0.82838571782E-01 -0.55860619528E-01 -0.80519144121E-01  0.12981318496E+00  0.19633966265E-01 0.  0.
         14    1    1    2    0    0 -0.19808018301E-01 -0.35117671317E-02  0.12226554292E-01  0.23541000983E-01  0.00000000000E+00 0. -1.
     999901    1    3    3    0    0  0.10264659008E+00  0.59372386659E-01  0.68292589829E-01  0.89057581405E+00  0.88000000000E+00 0.  1.
        -11    1    4    4    0    0 -0.69254070701E-01 -0.37883342400E-01 -0.58036387262E-01  0.97978351219E-01  0.51100000000E-03 0.  1.
         11    1    4    4    0    0 -0.13584501081E-01 -0.17977277128E-01 -0.22482756859E-01  0.31834833744E-01  0.51100000000E-03 0. -1.
</event>
<event>
 8    1  0.1084146E+005  0.1043930E+01  0.7957747E-01            NaN
         13   -1    0    0    0    0  0.00000000000E+00  0.00000000000E+00  0.74505805969E-08  0.10566000000E+00  0.10566000000E+00 0.  1.
     999900   -1    0    0    0    0 -0.00000000000E+00 -0.00000000000E+00 -0.74505805969E-08  0.93827000000E+00  0.93827000000E+00 0. -1.
     999902    2    1    2    0    0  0.12722453938E-02  0.23676555984E-01 -0.15247117371E-03  0.10202187968E+01  0.10199432200E+01 0.  0.
     999903    2    3    3    0    0  0.74983972279E-01 -0.99157447723E-01  0.24643092456E-01  0.12829030685E+00  0.19907920210E-01 0.  0.
         14    1    1    2    0    0 -0.12722453938E-02 -0.23676555984E-01  0.15247117371E-03  0.23711203239E-01  0.00000000000E+00 0. -1.
     999901    1    3    3    0    0 -0.73711726885E-01  0.12283400371E+00 -0.24795563630E-01  0.89192848992E+00  0.88000000000E+00 0. -1.
        -11    1    4    4    0    0  0.19774540527E-01 -0.39091694825E-01  0.31704231252E-02  0.43926139839E-01  0.51100000000E-03 0.  1.
         11    1    4    4    0    0  0.55209431752E-01 -0.60065752898E-01  0.21472669331E-01  0.84364167007E-01  0.51100000000E-03 0. -1.
</event>
<event>
 8    1  0.1084146E+005  0.1043930E+01  0.7957747E-01            NaN
         13   -1    0    0    0    0  0.00000000000E+00  0.00000000000E+00  0.74505805969E-08  0.10566000000E+00  0.10566000000E+00 0.  1.
     999900   -1    0    0    0    0 -0.00000000000E+00 -0.00000000000E+00 -0.74505805969E-08  0.93827000000E+00  0.93827000000E+00 0.  1.
     999902    2    1    2    0    0  0.16485719285E-02  0.41375852080E-02  0.23132421843E-01  0.10203727009E+01  0.10201007315E+01 0.  0.
     999903    2    3    3    0    0 -0.96068076630E-01  0.37656613748E-01  0.80625829871E-01  0.13246642169E+00  0.19993312068E-01 0.  0.
         14    1    1    2    0    0 -0.16485719285E-02 -0.41375852080E-02 -0.23132421843E-01  0.23557299104E-01  0.00000000000E+00 0. -1.
     999901    1    3    3    0    0  0.97716648559E-01 -0.33519028539E-01 -0.57493408028E-01  0.88790627920E+00  0.88000000000E+00 0. -1.
        -11    1    4    4    0    0 -0.53504161141E-01  0.31473451464E-01  0.46586114366E-01  0.77613146948E-01  0.51100000000E-03 0. -1.
         11    1    4    4    0    0 -0.42563915490E-01  0.61831622837E-02  0.34039715506E-01  0.54853274746E-01  0.51100000000E-03 0.  1.
</event>
<event>
 8    1  0.1084146E+005  0.1043930E+01  0.7957747E-01            NaN
         13   -1    0    0    0    0  0.00000000000E+00  0.00000000000E+00  0.74505805969E-08  0.10566000000E+00  0.10566000000E+00 0. -1.
     999900   -1    0    0    0    0 -0.00000000000E+00 -0.00000000000E+00 -0.74505805969E-08  0.93827000000E+00  0.93827000000E+00 0. -1.
     999902    2    1    2    0    0 -0.20918890040E-01 -0.17236666626E-02  0.12144940127E-01  0.10196798339E+01  0.10193914327E+01 0.  0.
     999903    2    3    3    0    0  0.29598768158E-01 -0.96138350188E-01  0.81267187876E-01  0.13049815873E+00  0.17514112946E-01 0.  0.
         14    1    1    2    0    0  0.20918890040E-01  0.17236666626E-02 -0.12144940127E-01  0.24250166143E-01  0.00000000000E+00 0.  1.
     999901    1    3    3    0    0 -0.50517658198E-01  0.94414683525E-01 -0.69122247749E-01  0.88918167513E+00  0.88000000000E+00 0. -1.
        -11    1    4    4    0    0 -0.19508867323E-02 -0.90065052084E-02  0.98831090241E-02  0.13522575941E-01  0.51100000000E-03 0. -1.
         11    1    4    4    0    0  0.31549654890E-01 -0.87131844980E-01  0.71384078852E-01  0.11697558278E+00  0.51100000000E-03 0.  1.
</event>
<event>
 8    1  0.1084146E+005  0.1043930E+01  0.7957747E-01            NaN
         13   -1    0    0    0    0  0.00000000000E+00  0.00000000000E+00  0.74505805969E-08  0.10566000000E+00  0.10566000000E+00 0. -1.
     999900   -1    0    0    0    0 -0.00000000000E+00 -0.00000000000E+00 -0.74505805969E-08  0.93827000000E+00  0.93827000000E+00 0.  1.
     999902    2    1    2    0    0  0.21936851000E-02  0.25388104680E-01 -0.14700783730E-02  0.10184049291E+01  0.10180850016E+01 0.  0.
     999903    2    3    3    0    0 -0.44428410626E-03  0.12332206005E+00 -0.42235388048E-01  0.13203038696E+00  0.20968242519E-01 0.  0.
         14    1    1    2    0    0 -0.21936851000E-02 -0.25388104680E-01  0.14700783730E-02  0.25525070891E-01  0.00000000000E+00 0.  1.
     999901    1    3    3    0    0  0.26379692062E-02 -0.97933955369E-01  0.40765309675E-01  0.88637454215E+00  0.88000000000E+00 0. -1.
        -11    1    4    4    0    0 -0.61040930039E-02  0.45543422717E-01 -0.24405230489E-01  0.52032102594E-01  0.51100000000E-03 0.  1.
         11    1    4    4    0    0  0.56598088976E-02  0.77778637332E-01 -0.17830157559E-01  0.79998284367E-01  0.51100000000E-03 0. -1.
</event>
<event>
 8    1  0.1084146E+005  0.1043930E+01  0.7957747E-01            NaN
         13   -1    0    0    0    0  0.00000000000E+00  0.00000000000E+00  0.74505805969E-08  0.10566000000E+00  0.10566000000E+00 0. -1.
     999900   -1    0    0    0    0 -0.00000000000E+00 -0.00000000000E+00 -0.74505805969E-08  0.93827000000E+00  0.93827000000E+00 0.  1.
     999902    2    1    2    0    0  0.21873971366E-01  0.13772565986E-01 -0.17210736048E-02  0.10180240877E+01  0.10176944172E+01 0.  0.
     999903    2    3    3    0    0 -0.40114117347E-02 -0.11660155397E+00 -0.45956957340E-01  0.12694368863E+00  0.19764724749E-01 0.  0.
         14    1    1    2    0    0 -0.21873971366E-01 -0.13772565986E-01  0.17210736048E-02  0.25905912289E-01  0.00000000000E+00 0. -1.
     999901    1    3    3    0    0  0.25885383101E-01  0.13037411995E+00  0.44235883736E-01  0.89108039908E+00  0.88000000000E+00 0.  1.
        -11    1    4    4    0    0  0.80086982680E-02 -0.41846321569E-01 -0.17203130380E-01  0.45950654975E-01  0.51100000000E-03 0.  1.
         11    1    4    4    0    0 -0.12020110003E-01 -0.74755232397E-01 -0.28753826961E-01  0.80993033658E-01  0.51100000000E-03 0. -1.
</event>
<event>
 8    1  0.1084146E+005  0.1043930E+01  0.7957747E-01            NaN
         13   -1    0    0    0    0  0.00000000000E+00  0.00000000000E+00  0.74505805969E-08  0.10566000000E+00  0.10566000000E+00 0. -1.
     999900   -1    0    0    0    0 -0.00000000000E+00 -0.00000000000E+00 -0.74505805969E-08  0.93827000000E+00  0.93827000000E+00 0.  1.
     999902    2    1    2    0    0 -0.14855984318E-01 -0.43808338256E-02  0.18208238689E-01  0.10200253575E+01  0.10197452123E+01 0.  0.
     999903    2    3    3    0    0 -0.13718848117E-01 -0.95375790125E-01  0.88522962460E-01  0.13254266163E+00  0.21130407822E-01 0.  0.
         14    1    1    2    0    0  0.14855984318E-01  0.43808338256E-02 -0.18208238689E-01  0.23904642462E-01  0.00000000000E+00 0.  1.
     999901    1    3    3    0    0 -0.11371362015E-02  0.90994956300E-01 -0.70314723771E-01  0.88748269590E+00  0.88000000000E+00 0.  1.
        -11    1    4    4    0    0 -0.18582936354E-01 -0.79569966213E-01  0.77800491022E-01  0.11282678127E+00  0.51100000000E-03 0. -1.
         11    1    4    4    0    0  0.48640882379E-02 -0.15805823913E-01  0.10722471437E-01  0.19715880368E-01  0.51100000000E-03 0.  1.
</event>
<event>
 8    1  0.1084146E+005  0.1043930E+01  0.7957747E-01            NaN
         13   -1    0    0    0    0  0.00000000000E+00  0.00000000000E+00  0.74505805969E-08  0.10566000000E+00  0.10566000000E+00 0.  1.
     999900   -1    0    0    0    0 -0.00000000000E+00 -0.00000000000E+00 -0.74505805969E-08  0.93827000000E+00  0.93827000000E+00 0.  1.
     999902    2    1    2    0    0  0.40492761603E-02 -0.23376260374E-01 -0.12826154774E-02  0.10201709746E+01  0.10198942720E+01 0.  0.
     999903    2    3    3    0    0  0.11166263751E+00  0.62361866869E-01 -0.66488148653E-02  0.12946313353E+00  0.18945953394E-01 0.  0.
         14    1    1    2    0    0 -0.40492761603E-02  0.23376260374E-01  0.12826154774E-02  0.23759025421E-01  0.00000000000E+00 0.  1.
     999901    1    3    3    0    0 -0.10761336135E+00 -0.85738127243E-01  0.53661993879E-02  0.89070784105E+00  0.88000000000E+00 0. -1.
        -11    1    4    4    0    0  0.11081942883E-01  0.93386789359E-02  0.45815782436E-02  0.15207641583E-01  0.51100000000E-03 0.  1.
         11    1    4    4    0    0  0.10058069463E+00  0.53023187933E-01 -0.11230393109E-01  0.11425549195E+00  0.51100000000E-03 0. -1.
</event>
<event>
 8    1  0.1084146E+005  0.1043930E+01  0.7957747E-01            NaN
         13   -1    0    0    0    0  0.00000000000E+00  0.00000000000E+00  0.74505805969E-08  0.10566000000E+00  0.10566000000E+00 0. -1.
     999900   -1    0    0    0    0 -0.00000000000E+00 -0.00000000000E+00 -0.74505805969E-08  0.93827000000E+00  0.93827000000E+00 0. -1.
     999902    2    1    2    0    0  0.19478840342E-01  0.90366279197E-02 -0.34413998482E-02  0.10221830669E+01  0.10219517079E+01 0.  0.
     999903    2    3    3    0    0  0.86014632645E-01 -0.87350570994E-01  0.46634415772E-01  0.13301205352E+00  0.22108784795E-01 0.  0.
         14    1    1    2    0    0 -0.19478840342E-01 -0.90366279197E-02  0.34413998482E-02  0.21746933075E-01  0.00000000000E+00 0. -1.
     999901    1    3    3    0    0 -0.66535792303E-01  0.96387198913E-01 -0.50075815620E-01  0.88917101341E+00  0.88000000000E+00 0. -1.
        -11    1    4    4    0    0  0.43879541824E-01 -0.54468492476E-01  0.17350644627E-01  0.72066197716E-01  0.51100000000E-03 0. -1.
         11    1    4    4    0    0  0.42135090821E-01 -0.32882078518E-01  0.29283771145E-01  0.60945855803E-01  0.51100000000E-03 0.  1.
</event>
<event>
 8    1  0.1084146E+005  0.1043930E+01  0.7957747E-01            NaN
         13   -1    0    0    0    0  0.00000000000E+00  0.00000000000E+00  0.74505805969E-08  0.10566000000E+00  0.10566000000E+00 0. -1.
     999900   -1    0    0    0    0 -0.00000000000E+00 -0.00000000000E+00 -0.74505805969E-08  0.93827000000E+00  0.93827000000E+00 0.  1.
     999902    2    1    2    0    0  0.74640760487E-02 -0.16731476229E-01 -0.15326923002E-01  0.10200434076E+01  0.10197636903E+01 0.  0.
     999903    2    3    3    0    0  0.67275075803E-01 -0.48632570037E-01 -0.10221007442E+00  0.13317040796E+00  0.19909684823E-01 0.  0.
         14    1    1    2    0    0 -0.74640760487E-02  0.16731476229E-01  0.15326923002E-01  0.23886592406E-01  0.00000000000E+00 0. -1.
     999901    1    3    3    0    0 -0.59810999755E-01  0.31901093808E-01  0.86883151422E-01  0.88687299963E+00  0.88000000000E+00 0. -1.
        -11    1    4    4    0    0  0.37931870217E-01 -0.15701615167E-01 -0.53830383863E-01  0.67700360744E-01  0.51100000000E-03 0.  1.
         11    1    4    4    0    0  0.29343205586E-01 -0.32930954869E-01 -0.48379690561E-01  0.65470047216E-01  0.51100000000E-03 0. -1.
</event>
<event>
 8    1  0.1084146E+005  0.1043930E+01  0.7957747E-01            NaN
         13   -1    0    0    0    0  0.00000000000E+00  0.00000000000E+00  0.74505805969E-08  0.10566000000E+00  0.10566000000E+00 0. -1.
     999900   -1    0    0    0    0 -0.00000000000E+00 -0.00000000000E+00 -0.74505805969E-08  0.93827000000E+00  0.93827000000E+00 0.  1.
     999902    2    1    2    0    0  0.24001597205E-01  0.59260813078E-02 -0.28117533233E-02  0.10190482584E+01  0.10187444488E+01 0.  0.
     999903    2    3    3    0    0  0.21534436884E-01  0.26343669659E-01  0.12361754083E+00  0.12977477335E+00  0.20061766972E-01 0.  0.
         14    1    1    2    0    0 -0.24001597205E-01 -0.59260813078E-02  0.28117533233E-02  0.24881741595E-01  0.00000000000E+00 0.  1.
     999901    1    3    3    0    0  0.24671603208E-02 -0.20417588351E-01 -0.12642929416E+00  0.88927348505E+00  0.88000000000E+00 0.  1.
        -11    1    4    4    0    0  0.17812364512E-01  0.59940345855E-02  0.59875876759E-01  0.62758190850E-01  0.51100000000E-03 0. -1.
         11    1    4    4    0    0  0.37220723725E-02  0.20349635074E-01  0.63741664075E-01  0.67016582503E-01  0.51100000000E-03 0.  1.
</event>
<event>
 8    1  0.1084146E+005  0.1043930E+01  0.7957747E-01            NaN
         13   -1    0    0    0    0  0.00000000000E+00  0.00000000000E+00  0.74505805969E-08  0.10566000000E+00  0.10566000000E+00 0. -1.
     999900   -1    0    0    0    0 -0.00000000000E+00 -0.00000000000E+00 -0.74505805969E-08  0.93827000000E+00  0.93827000000E+00 0.  1.
     999902    2    1    2    0    0 -0.11266378412E-01 -0.14117336863E-01 -0.98167827051E-02  0.10233727700E+01  0.10231662752E+01 0.  0.
     999903    2    3    3    0    0 -0.60184802374E-01 -0.14033074577E-01 -0.11873267116E+00  0.13530988368E+00  0.19803530035E-01 0.  0.
         14    1    1    2    0    0  0.11266378412E-01  0.14117336863E-01  0.98167827051E-02  0.20557230001E-01  0.00000000000E+00 0. -1.
     999901    1    3    3    0    0  0.48918423962E-01 -0.84262285575E-04  0.10891588845E+00  0.88806288632E+00  0.88000000000E+00 0. -1.
        -11    1    4    4    0    0 -0.31173799665E-01 -0.14520502485E-01 -0.49845491404E-01  0.60559763145E-01  0.51100000000E-03 0. -1.
         11    1    4    4    0    0 -0.29011002710E-01  0.48742790828E-03 -0.68887179754E-01  0.74750120533E-01  0.51100000000E-03 0.  1.
</event>
<event>
 8    1  0.1084146E+005  0.1043930E+01  0.7957747E-01            NaN
         13   -1    0    0    0    0  0.00000000000E+00  0.00000000000E+00  0.74505805969E-08  0.10566000000E+00  0.10566000000E+00 0.  1.
     999900   -1    0    0    0    0 -0.00000000000E+00 -0.00000000000E+00 -0.74505805969E-08  0.93827000000E+00  0.93827000000E+00 0. -1.
     999902    2    1    2    0    0  0.19364991069E-01  0.13809446099E-01 -0.47873935807E-02  0.10196684498E+01  0.10193797745E+01 0.  0.
     999903    2    3    3    0    0 -0.70841677473E-01  0.36681347926E-01 -0.10026613766E+00  0.12962544100E+00  0.19631404455E-01 0.  0.
         14    1    1    2    0    0 -0.19364991069E-01 -0.13809446099E-01  0.47873935807E-02  0.24261550197E-01  0.00000000000E+00 0.  1.
     999901    1    3    3    0    0  0.90206668543E-01 -0.22871901827E-01  0.95478744080E-01  0.89004300880E+00  0.88000000000E+00 0.  1.
        -11    1    4    4    0    0 -0.74667422059E-02 -0.16388327958E-02 -0.59175989811E-02  0.96807598257E-02  0.51100000000E-03 0. -1.
         11    1    4    4    0    0 -0.63374935267E-01  0.38320180722E-01 -0.94348538679E-01  0.11994468118E+00  0.51100000000E-03 0.  1.
</event>
<event>
 8    1  0.1084146E+005  0.1043930E+01  0.7957747E-01            NaN
         13   -1    0    0    0    0  0.00000000000E+00  0.00000000000E+00  0.74505805969E-08  0.10566000000E+00  0.10566000000E+00 0. -1.
     999900   -1    0    0    0    0 -0.00000000000E+00 -0.00000000000E+00 -0.74505805969E-08  0.93827000000E+00  0.93827000000E+00 0. -1.
     999902    2    1    2    0    0  0.95912015334E-02 -0.17718316125E-01  0.14399037748E-01  0.10191658695E+01  0.10188649603E+01 0.  0.
     999903    2    3    3    0    0 -0.55942700336E-03  0.95568152132E-01  0.84638278030E-01  0.12907013864E+00  0.19023089151E-01 0.  0.
         14    1    1    2    0    0 -0.95912015334E-02  0.17718316125E-01 -0.14399037748E-01  0.24764130537E-01  0.00000000000E+00 0.  1.
     999901    1    3    3    0    0  0.10150628537E-01 -0.11328646826E+00 -0.70239240281E-01  0.89009573082E+00  0.88000000000E+00 0. -1.
        -11    1    4    4    0    0  0.62785839548E-02  0.81932012797E-01  0.71964945919E-01  0.10923135951E+00  0.51100000000E-03 0. -1.
         11    1    4    4    0    0 -0.68380109581E-02  0.13636139335E-01  0.12673332110E-01  0.19838779136E-01  0.51100000000E-03 0.  1.
</event>
<event>
 8    1  0.1084146E+005  0.1043930E+01  0.7957747E-01            NaN
         13   -1    0    0    0    0  0.00000000000E+00  0.00000000000E+00  0.74505805969E-08  0.10566000000E+00  0.10566000000E+00 0.  1.
     999900   -1    0    0    0    0 -0.00000000000E+00 -0.00000000000E+00 -0.74505805969E-08  0.93827000000E+00  0.93827000000E+00 0. -1.
     999902    2    1    2    0    0  0.21183755097E-01 -0.97628053180E-02 -0.56970624650E-02  0.10199191614E+01  0.10196364918E+01 0.  0.
     999903    2    3    3    0    0  0.23290606514E-02  0.57096423265E-01  0.11378456490E+00  0.12913214131E+00  0.21511779045E-01 0.  0.
         14    1    1    2    0    0 -0.21183755097E-01  0.97628053180E-02  0.56970624650E-02  0.24010838561E-01  0.00000000000E+00 0.  1.
     999901    1    3    3    0    0  0.18854694445E-01 -0.66859228583E-01 -0.11948162736E+00  0.89078702013E+00  0.88000000000E+00 0. -1.
        -11    1    4    4    0    0  0.50785038654E-02  0.96290525673E-02  0.39141608364E-01  0.40630487090E-01  0.51100000000E-03 0.  1.
         11    1    4    4    0    0 -0.27494432141E-02  0.47467370697E-01  0.74642956534E-01  0.88501654222E-01  0.51100000000E-03 0. -1.
</event>
<event>
 8    1  0.1084146E+005  0.1043930E+01  0.7957747E-01            NaN
         13   -1    0    0    0    0  0.00000000000E+00  0.00000000000E+00  0.74505805969E-08  0.10566000000E+00  0.10566000000E+00 0.  1.
     999900   -1    0    0    0    0 -0.00000000000E+00 -0.00000000000E+00 -0.74505805969E-08  0.93827000000E+00  0.93827000000E+00 0.  1.
     999902    2    1    2    0    0 -0.17609662258E-02 -0.15390942339E-01 -0.16349571141E-01  0.10214068878E+01  0.10211585282E+01 0.  0.
     999903    2    3    3    0    0 -0.66762117802E-01 -0.82482498842E-01  0.75367387546E-01  0.13172243406E+00  0.20248791086E-01 0.  0.
         14    1    1    2    0    0  0.17609662258E-02  0.15390942339E-01  0.16349571141E-01  0.22523112232E-01  0.00000000000E+00 0.  1.
     999901    1    3    3    0    0  0.65001151576E-01  0.67091556502E-01 -0.91716958687E-01  0.88968445371E+00  0.88000000000E+00 0.  1.
        -11    1    4    4    0    0 -0.27873038952E-01 -0.41000245238E-01  0.23957679296E-01  0.55065033626E-01  0.51100000000E-03 0.  1.
         11    1    4    4    0    0 -0.38889078850E-01 -0.41482253604E-01  0.51409708250E-01  0.76657400434E-01  0.51100000000E-03 0. -1.
</event>
<event>
 8    1  0.1084146E+005  0.1043930E+01  0.7957747E-01            NaN
         13   -1    0    0    0    0  0.00000000000E+00  0.00000000000E+00  0.74505805969E-08  0.10566000000E+00  0.10566000000E+00 0. -1.
     999900   -1    0    0    0    0 -0.00000000000E+00 -0.00000000000E+00 -0.74505805969E-08  0.93827000000E+00  0.93827000000E+00 0.  1.
     999902    2    1    2    0    0 -0.90545369754E-02 -0.13624518049E-03  0.21425132480E-01  0.10206697441E+01  0.10204046683E+01 0.  0.
     999903    2    3    3    0    0 -0.35251411324E-01 -0.12097106510E+00 -0.29187424877E-01  0.13058606214E+00  0.18004256770E-01 0.  0.
         14    1    1    2    0    0  0.90545369754E-02  0.13624518049E-03 -0.21425132480E-01  0.23260255897E-01  0.00000000000E+00 0.  1.
     999901    1    3    3    0    0  0.26196874349E-01  0.12083481992E+00  0.50612557357E-01  0.89008368196E+00  0.88000000000E+00 0. -1.
        -11    1    4    4    0    0 -0.32933411415E-02 -0.38964996822E-01 -0.12019771886E-01  0.40912749973E-01  0.51100000000E-03 0.  1.
         11    1    4    4    0    0 -0.31958070183E-01 -0.82006068283E-01 -0.17167652991E-01  0.89673312169E-01  0.51100000000E-03 0. -1.
</event>
<event>
 8    1  0.1084146E+005  0.1043930E+01  0.7957747E-01            NaN
         13   -1    0    0    0    0  0.00000000000E+00  0.00000000000E+00  0.74505805969E-08  0.10566000000E+00  0.10566000000E+00 0. -1.
     999900   -1    0    0    0    0 -0.00000000000E+00 -0.00000000000E+00 -0.74505805969E-08  0.93827000000E+00  0.93827000000E+00 0. -1.
     999902    2    1    2    0    0 -0.19081967928E-01  0.12586427022E-01 -0.50499459344E-02  0.10205197117E+01  0.10202511653E+01 0.  0.
     999903    2    3    3    0    0  0.40482906336E-01  0.88964088153E-01  0.84229830392E-01  0.13071501411E+00  0.20935039980E-01 0.  0.
         14    1    1    2    0    0  0.19081967928E-01 -0.12586427022E-01  0.50499459344E-02  0.23410288318E-01  0.00000000000E+00 0. -1.
     999901    1    3    3    0    0 -0.59564874264E-01 -0.76377661131E-01 -0.89279776326E-01  0.88980469758E+00  0.88000000000E+00 0. -1.
        -11    1    4    4    0    0  0.34285499686E-01  0.85848235738E-01  0.74348730114E-01  0.11863140334E+00  0.51100000000E-03 0. -1.
         11    1    4    4    0    0  0.61974066506E-02  0.31158524150E-02  0.98811002776E-02  0.12083610767E-01  0.51100000000E-03 0.  1.
</event>
<event>
 8    1  0.1084146E+005  0.1043930E+01  0.7957747E-01            NaN
         13   -1    0    0    0    0  0.00000000000E+00  0.00000000000E+00  0.74505805969E-08  0.10566000000E+00  0.10566000000E+00 0. -1.
     999900   -1    0    0    0    0 -0.00000000000E+00 -0.00000000000E+00 -0.74505805969E-08  0.93827000000E+00  0.93827000000E+00 0.  1.
     999902    2    1    2    0    0 -0.44590399936E-02  0.76925891877E-02 -0.21771762954E-01  0.10204125888E+01  0.10201415504E+01 0.  0.
     999903    2    3    3    0    0  0.22421559680E-01  0.90750228417E-01  0.87374911150E-01  0.12938277196E+00  0.19162366411E-01 0.  0.
         14    1    1    2    0    0  0.44590399936E-02 -0.76925891877E-02  0.21771762954E-01  0.23517411172E-01  0.00000000000E+00 0. -1.
     999901    1    3    3    0    0 -0.26880599673E-01 -0.83057639229E-01 -0.10914667410E+00  0.89102981686E+00  0.88000000000E+00 0.  1.
        -11    1    4    4    0    0  0.13976066355E-01  0.44937200985E-01  0.56309767710E-01  0.73387557009E-01  0.51100000000E-03 0.  1.
         11    1    4    4    0    0  0.84454933248E-02  0.45813027432E-01  0.31065143439E-01  0.55995214955E-01  0.51100000000E-03 0. -1.
</event>
<event>
 8    1  0.1084146E+005  0.1043930E+01  0.7957747E-01            NaN
         13   -1    0    0    0    0  0.00000000000E+00  0.00000000000E+00  0.74505805969E-08  0.10566000000E+00  0.10566000000E+00 0.  1.
     999900   -1    0    0    0    0 -0.00000000000E+00 -0.00000000000E+00 -0.74505805969E-08  0.93827000000E+00  0.93827000000E+00 0. -1.
     999902    2    1    2    0    0  0.14282728018E-01  0.57137138537E-02 -0.16672189044E-01  0.10212450990E+01  0.10209931182E+01 0.  0.
     999903    2    3    3    0    0  0.11946471697E+00  0.45840680065E-01 -0.33836303961E-01  0.13390749073E+00  0.20325699435E-01 0.  0.
         14    1    1    2    0    0 -0.14282728018E-01 -0.57137138537E-02  0.16672189044E-01  0.22684900995E-01  0.00000000000E+00 0.  1.
     999901    1    3    3    0    0 -0.10518198896E+00 -0.40126966211E-01  0.17164114917E-01  0.88733760827E+00  0.88000000000E+00 0.  1.
        -11    1    4    4    0    0  0.17842274209E-01  0.90395509538E-02  0.18330272154E-02  0.20091822719E-01  0.51100000000E-03 0. -1.
         11    1    4    4    0    0  0.10162244276E+00  0.36801129111E-01 -0.35669331176E-01  0.11381566801E+00  0.51100000000E-03 0.  1.
</event>
<event>
 8    1  0.1084146E+005  0.1043930E+01  0.7957747E-01            NaN
         13   -1    0    0    0    0  0.00000000000E+00  0.00000000000E+00  0.74505805969E-08  0.10566000000E+00  0.10566000000E+00 0.  1.
     999900   -1    0    0    0    0 -0.00000000000E+00 -0.00000000000E+00 -0.74505805969E-08  0.93827000000E+00  0.93827000000E+00 0. -1.
     999902    2    1    2    0    0  0.19628378921E-01  0.65514754798E-02  0.29807984592E-02  0.10230235357E+01  0.10228098916E+01 0.  0.
     999903    2    3    3    0    0  0.30039653326E-01  0.11669898512E+00  0.56377775143E-01  0.13448985281E+00  0.19698555238E-01 0.  0.
         14    1    1    2    0    0 -0.19628378921E-01 -0.65514754798E-02 -0.29807984592E-02  0.20906464299E-01  0.00000000000E+00 0. -1.
     999901    1    3    3    0    0 -0.10411274405E-01 -0.11014750964E+00 -0.53396976684E-01  0.88853368289E+00  0.88000000000E+00 0. -1.
        -11    1    4    4    0    0  0.14792137137E-01  0.89212770527E-01  0.38138063128E-01  0.98145293960E-01  0.51100000000E-03 0. -1.
         11    1    4    4    0    0  0.15247516188E-01  0.27486214593E-01  0.18239712015E-01  0.36344558849E-01  0.51100000000E-03 0.  1.
</event>
<event>
 8    1  0.1084146E+005  0.1043930E+01  0.7957747E-01            NaN
         13   -1    0    0    0    0  0.00000000000E+00  0.00000000000E+00  0.74505805969E-08  0.10566000000E+00  0.10566000000E+00 0. -1.
     999900   -1    0    0    0    0 -0.00000000000E+00 -0.00000000000E+00 -0.74505805969E-08  0.93827000000E+00  0.93827000000E+00 0.  1.
     999902    2    1    2    0    0  0.12130075877E-01  0.11801412723E-01 -0.16369261678E-01  0.10203850470E+01  0.10201133659E+01 0.  0.
     999903    2    3    3    0    0  0.14537321729E-01 -0.25293143768E-01 -0.12550273631E+00  0.13286495359E+00  0.32420398307E-01 0.  0.
         14    1    1    2    0    0 -0.12130075877E-01 -0.11801412723E-01  0.16369261678E-01  0.23544952982E-01  0.00000000000E+00 0. -1.
     999901    1    3    3    0    0 -0.24072458511E-02  0.37094556491E-01  0.10913347463E+00  0.88752009343E+00  0.88000000000E+00 0. -1.
        -11    1    4    4    0    0  0.15340737914E-02 -0.28256511423E-01 -0.64782658580E-01  0.70695387360E-01  0.51100000000E-03 0.  1.
         11    1    4    4    0    0  0.13003247937E-01  0.29633676544E-02 -0.60720077729E-01  0.62169566230E-01  0.51100000000E-03 0. -1.
</event>
<event>
 8    1  0.1084146E+005  0.1043930E+01  0.7957747E-01            NaN
         13   -1    0    0    0    0  0.00000000000E+00  0.00000000000E+00  0.74505805969E-08  0.10566000000E+00  0.10566000000E+00 0.  1.
     999900   -1    0    0    0    0 -0.00000000000E+00 -0.00000000000E+00 -0.74505805969E-08  0.93827000000E+00  0.93827000000E+00 0.  1.
     999902    2    1    2    0    0 -0.17532680487E-01 -0.44468026232E-02  0.17342432167E-01  0.10188714906E+01  0.10185632948E+01 0.  0.
     999903    2    3    3    0    0 -0.11598064694E+00 -0.41806130508E-01  0.43180657620E-01  0.13221747954E+00  0.20435990071E-01 0.  0.
         14    1    1    2    0    0  0.17532680487E-01  0.44468026232E-02 -0.17342432167E-01  0.25058509376E-01  0.00000000000E+00 0. -1.
     999901    1    3    3    0    0  0.98447966454E-01  0.37359327885E-01 -0.25838225453E-01  0.88665401109E+00  0.88000000000E+00 0.  1.
        -11    1    4    4    0    0 -0.91317625270E-01 -0.24149835629E-01  0.35639920085E-01  0.10095834919E+00  0.51100000000E-03 0.  1.
         11    1    4    4    0    0 -0.24663021672E-01 -0.17656294879E-01  0.75407375352E-02  0.31259130352E-01  0.51100000000E-03 0. -1.
</event>
<event>
 8    1  0.1084146E+005  0.1043930E+01  0.7957747E-01            NaN
         13   -1    0    0    0    0  0.00000000000E+00  0.00000000000E+00  0.74505805969E-08  0.10566000000E+00  0.10566000000E+00 0. -1.
     999900   -1    0    0    0    0 -0.00000000000E+00 -0.00000000000E+00 -0.74505805969E-08  0.93827000000E+00  0.93827000000E+00 0.  1.
     999902    2    1    2    0    0  0.10267227638E-01  0.62521845241E-02 -0.17259484854E-02  0.10317856732E+01  0.10317142002E+01 0.  0.
     999903    2    3    3    0    0 -0.10658904217E+00 -0.75288596231E-01 -0.44060112120E-01  0.13931916510E+00  0.20950886614E-01 0.  0.
         14    1    1    2    0    0 -0.10267227638E-01 -0.62521845241E-02  0.17259484854E-02  0.12144326777E-01  0.00000000000E+00 0.  1.
     999901    1    3    3    0    0  0.11685626981E+00  0.81540780755E-01  0.42334163635E-01  0.89246650813E+00  0.88000000000E+00 0. -1.
        -11    1    4    4    0    0 -0.12647844042E-01 -0.11499638852E-01 -0.13325763058E-01  0.21680561217E-01  0.51100000000E-03 0.  1.
         11    1    4    4    0    0 -0.93941198127E-01 -0.63788957380E-01 -0.30734349063E-01  0.11763860388E+00  0.51100000000E-03 0. -1.
</event>
<event>
 8    1  0.1084146E+005  0.1043930E+01  0.7957747E-01            NaN
         13   -1    0    0    0    0  0.00000000000E+00  0.00000000000E+00  0.74505805969E-08  0.10566000000E+00  0.10566000000E+00 0. -1.
     999900   -1    0    0    0    0 -0.00000000000E+00 -0.00000000000E+00 -0.74505805969E-08  0.93827000000E+00  0.93827000000E+00 0.  1.
     999902    2    1    2    0    0  0.10173630538E-01  0.21212975422E-01  0.33448647139E-02  0.10201669782E+01  0.10198901815E+01 0.  0.
     999903    2    3    3    0    0  0.94625506236E-01 -0.75565593292E-01 -0.39495831958E-01  0.12981113027E+00  0.25037241860E-01 0.  0.
         14    1    1    2    0    0 -0.10173630538E-01 -0.21212975422E-01 -0.33448647139E-02  0.23763021789E-01  0.00000000000E+00 0. -1.
     999901    1    3    3    0    0 -0.84451875698E-01  0.96778568714E-01  0.42840696672E-01  0.89035584794E+00  0.88000000000E+00 0. -1.
        -11    1    4    4    0    0  0.49701028092E-01 -0.50735118937E-01 -0.32125475128E-01  0.77952240251E-01  0.51100000000E-03 0. -1.
         11    1    4    4    0    0  0.44924478145E-01 -0.24830474355E-01 -0.73703568306E-02  0.51858890020E-01  0.51100000000E-03 0.  1.
</event>
<event>
 8    1  0.1084146E+005  0.1043930E+01  0.7957747E-01            NaN
         13   -1    0    0    0    0  0.00000000000E+00  0.00000000000E+00  0.74505805969E-08  0.10566000000E+00  0.10566000000E+00 0.  1.
     999900   -1    0    0    0    0 -0.00000000000E+00 -0.00000000000E+00 -0.74505805969E-08  0.93827000000E+00  0.93827000000E+00 0.  1.
     999902    2    1    2    0    0  0.18138914564E-01  0.66656920942E-02 -0.12936763420E-01  0.10206746453E+01  0.10204096825E+01 0.  0.
     999903    2    3    3    0    0 -0.33371405970E-01 -0.12352628507E+00 -0.25857946275E-02  0.12954591917E+00  0.20076478778E-01 0.  0.
         14    1    1    2    0    0 -0.18138914564E-01 -0.66656920942E-02  0.12936763420E-01  0.23255354662E-01  0.00000000000E+00 0. -1.
     999901    1    3    3    0    0  0.51510320534E-01  0.13019197717E+00 -0.10350968793E-01  0.89112872616E+00  0.88000000000E+00 0.  1.
        -11    1    4    4    0    0 -0.26196654754E-01 -0.62011728443E-01  0.28025766746E-02  0.67378295777E-01  0.51100000000E-03 0. -1.
         11    1    4    4    0    0 -0.71747512163E-02 -0.61514556631E-01 -0.53883713020E-02  0.62167623397E-01  0.51100000000E-03 0.  1.
</event>
<event>
 8    1  0.1084146E+005  0.1043930E+01  0.7957747E-01            NaN
         13   -1    0    0    0    0  0.00000000000E+00  0.00000000000E+00  0.74505805969E-08  0.10566000000E+00  0.10566000000E+00 0.  1.
     999900   -1    0    0    0    0 -0.00000000000E+00 -0.00000000000E+00 -0.74505805969E-08  0.93827000000E+00  0.93827000000E+00 0. -1.
     999902    2    1    2    0    0 -0.17098047462E-01  0.53017910457E-02  0.14616361999E-01  0.10208196072E+01  0.10205579750E+01 0.  0.
     999903    2    3    3    0    0  0.12127671410E+00 -0.15383801049E-01  0.38733279821E-01  0.12944028614E+00  0.17601647468E-01 0.  0.
         14    1    1    2    0    0  0.17098047462E-01 -0.53017910457E-02 -0.14616361999E-01  0.23110392757E-01  0.00000000000E+00 0. -1.
     999901    1    3    3    0    0 -0.13837476156E+00  0.20685592094E-01 -0.24116917822E-01  0.89137932110E+00  0.88000000000E+00 0. -1.
        -11    1    4    4    0    0  0.88847072294E-01 -0.11462358639E-01  0.36366132056E-01  0.96684769238E-01  0.51100000000E-03 0. -1.
         11    1    4    4    0    0  0.32429641806E-01 -0.39214424097E-02  0.23671477653E-02  0.32755516906E-01  0.51100000000E-03 0.  1.
</event>
<event>
 8    1  0.1084146E+005  0.1043930E+01  0.7957747E-01            NaN
         13   -1    0    0    0    0  0.00000000000E+00  0.00000000000E+00  0.74505805969E-08  0.10566000000E+00  0.10566000000E+00 0. -1.
     999900   -1    0    0    0    0 -0.00000000000E+00 -0.00000000000E+00 -0.74505805969E-08  0.93827000000E+00  0.93827000000E+00 0. -1.
     999902    2    1    2    0    0 -0.75677007951E-02 -0.11597212870E-01 -0.19713625280E-01  0.10198386641E+01  0.10195540733E+01 0.  0.
     999903    2    3    3    0    0  0.12093126143E+00 -0.32095968925E-01 -0.29958275257E-01  0.13021113807E+00  0.20072892393E-01 0.  0.
         14    1    1    2    0    0  0.75677007951E-02  0.11597212870E-01  0.19713625280E-01  0.24091335857E-01  0.00000000000E+00 0. -1.
     999901    1    3    3    0    0 -0.12849896223E+00  0.20498756056E-01  0.10244649977E-01  0.88962752607E+00  0.88000000000E+00 0. -1.
        -11    1    4    4    0    0  0.20427190122E-01 -0.13159170001E-01 -0.81839397896E-02  0.25645113431E-01  0.51100000000E-03 0. -1.
         11    1    4    4    0    0  0.10050407131E+00 -0.18936798924E-01 -0.21774335467E-01  0.10456602464E+00  0.51100000000E-03 0.  1.
</event>
<event>
 8    1  0.1084146E+005  0.1043930E+01  0.7957747E-01            NaN
         13   -1    0    0    0    0  0.00000000000E+00  0.00000000000E+00  0.74505805969E-08  0.10566000000E+00  0.10566000000E+00 0. -1.
     999900   -1    0    0    0    0 -0.00000000000E+00 -0.00000000000E+00 -0.74505805969E-08  0.93827000000E+00  0.93827000000E+00 0. -1.
     999902    2    1    2    0    0 -0.14020862018E-01 -0.17081421198E-01  0.82325321923E-02  0.10203475042E+01  0.10200749459E+01 0.  0.
     999903    2    3    3    0    0 -0.88259766132E-01 -0.96276044154E-01  0.20441652662E-01  0.13359372450E+00  0.19249910828E-01 0.  0.
         14    1    1    2    0    0  0.14020862018E-01  0.17081421198E-01 -0.82325321923E-02  0.23582495800E-01  0.00000000000E+00 0.  1.
     999901    1    3    3    0    0  0.74238904114E-01  0.79194622956E-01 -0.12209120469E-01  0.88675377970E+00  0.88000000000E+00 0.  1.
        -11    1    4    4    0    0 -0.45968285689E-01 -0.38900689054E-01  0.34675737125E-02  0.60321074978E-01  0.51100000000E-03 0. -1.
         11    1    4    4    0    0 -0.42291480442E-01 -0.57375355100E-01  0.16974078949E-01  0.73272649523E-01  0.51100000000E-03 0.  1.
</event>
<event>
 8    1  0.1084146E+005  0.1043930E+01  0.7957747E-01            NaN
         13   -1    0    0    0    0  0.00000000000E+00  0.00000000000E+00  0.74505805969E-08  0.10566000000E+00  0.10566000000E+00 0.  1.
     999900   -1    0    0    0    0 -0.00000000000E+00 -0.00000000000E+00 -0.74505805969E-08  0.93827000000E+00  0.93827000000E+00 0.  1.
     999902    2    1    2    0    0  0.22379674877E-01  0.52658647136E-02 -0.25439249938E-02  0.10207988363E+01  0.10205367281E+01 0.  0.
     999903    2    3    3    0    0  0.86537372786E-02  0.57296295335E-01 -0.11687055124E+00  0.13177344605E+00  0.18648396972E-01 0.  0.
         14    1    1    2    0    0 -0.22379674877E-01 -0.52658647136E-02  0.25439249938E-02  0.23131163679E-01  0.00000000000E+00 0. -1.
     999901    1    3    3    0    0  0.13725937598E-01 -0.52030430621E-01  0.11432662625E+00  0.88902539027E+00  0.88000000000E+00 0. -1.
        -11    1    4    4    0    0 -0.35497716812E-02  0.20822031799E-01 -0.29262671837E-01  0.36093253819E-01  0.51100000000E-03 0. -1.
         11    1    4    4    0    0  0.12203508960E-01  0.36474263535E-01 -0.87607879402E-01  0.95680192233E-01  0.51100000000E-03 0.  1.
</event>
<event>
 8    1  0.1084146E+005  0.1043930E+01  0.7957747E-01            NaN
         13   -1    0    0    0    0  0.00000000000E+00  0.00000000000E+00  0.74505805969E-08  0.10566000000E+00  0.10566000000E+00 0. -1.
     999900   -1    0    0    0    0 -0.00000000000E+00 -0.00000000000E+00 -0.74505805969E-08  0.93827000000E+00  0.93827000000E+00 0. -1.
     999902    2    1    2    0    0 -0.60450731310E-02  0.13235757728E-01 -0.17628651910E-01  0.10210717945E+01  0.10208159050E+01 0.  0.
     999903    2    3    3    0    0  0.82137330713E-01 -0.84900593228E-01  0.47318151381E-01  0.12886948166E+00  0.20339223842E-01 0.  0.
         14    1    1    2    0    0  0.60450731310E-02 -0.13235757728E-01  0.17628651910E-01  0.22858205528E-01  0.00000000000E+00 0.  1.
     999901    1    3    3    0    0 -0.88182403844E-01  0.98136350956E-01 -0.64946803290E-01  0.89220231281E+00  0.88000000000E+00 0.  1.
        -11    1    4    4    0    0  0.20679147145E-01 -0.23162398309E-01  0.31965659458E-02  0.31218631888E-01  0.51100000000E-03 0.  1.
         11    1    4    4    0    0  0.61458183568E-01 -0.61738194919E-01  0.44121585435E-01  0.97650849774E-01  0.51100000000E-03 0. -1.
</event>
<event>
 8    1  0.1084146E+005  0.1043930E+01  0.7957747E-01            NaN
         13   -1    0    0    0    0  0.00000000000E+00  0.00000000000E+00  0.74505805969E-08  0.10566000000E+00  0.10566000000E+00 0. -1.
     999900   -1    0    0    0    0 -0.00000000000E+00 -0.00000000000E+00 -0.74505805969E-08  0.93827000000E+00  0.93827000000E+00 0.  1.
     999902    2    1    2    0    0  0.17183556432E-01  0.13312548904E-01 -0.91748846926E-02  0.10203359948E+01  0.10200631673E+01 0.  0.
     999903    2    3    3    0    0 -0.21551171739E-01 -0.37482481115E-01  0.11956880741E+00  0.12867717417E+00  0.19792070425E-01 0.  0.
         14    1    1    2    0    0 -0.17183556432E-01 -0.13312548904E-01  0.91748846926E-02  0.23594005152E-01  0.00000000000E+00 0. -1.
     999901    1    3    3    0    0  0.38734728171E-01  0.50795030019E-01 -0.12874369211E+00  0.89165882068E+00  0.88000000000E+00 0.  1.
        -11    1    4    4    0    0 -0.34401479193E-02 -0.21332674654E-01  0.73414882916E-01  0.76530541486E-01  0.51100000000E-03 0.  1.
         11    1    4    4    0    0 -0.18111023819E-01 -0.16149806461E-01  0.46153924497E-01  0.52146632681E-01  0.51100000000E-03 0. -1.
</event>
<event>
 8    1  0.1084146E+005  0.1043930E+01  0.7957747E-01            NaN
         13   -1    0    0    0    0  0.00000000000E+00  0.00000000000E+00  0.74505805969E-08  0.10566000000E+00  0.10566000000E+00 0.  1.
     999900   -1    0    0    0    0 -0.00000000000E+00 -0.00000000000E+00 -0.74505805969E-08  0.93827000000E+00  0.93827000000E+00 0.  1.
     999902    2    1    2    0    0 -0.17931323135E-01  0.13265981051E-01  0.75518919426E-02  0.10203811216E+01  0.10201093489E+01 0.  0.
     999903    2    3    3    0    0  0.12899797268E-02  0.12929986754E+00  0.19817923684E-01  0.13247134192E+00  0.20875500890E-01 0.  0.
         14    1    1    2    0    0  0.17931323135E-01 -0.13265981051E-01 -0.75518919426E-02  0.23548878414E-01  0.00000000000E+00 0. -1.
     999901    1    3    3    0    0 -0.19221302862E-01 -0.11603388649E+00 -0.12266031741E-01  0.88790977967E+00  0.88000000000E+00 0. -1.
        -11    1    4    4    0    0 -0.82673319414E-02  0.64594154005E-01  0.44152863065E-02  0.65272577575E-01  0.51100000000E-03 0.  1.
         11    1    4    4    0    0  0.95573116682E-02  0.64705713532E-01  0.15402637378E-01  0.67198764343E-01  0.51100000000E-03 0. -1.
</event>
<event>
 8    1  0.1084146E+005  0.1043930E+01  0.7957747E-01            NaN
         13   -1    0    0    0    0  0.00000000000E+00  0.00000000000E+00  0.74505805969E-08  0.10566000000E+00  0.10566000000E+00 0.  1.
     999900   -1    0    0    0    0 -0.00000000000E+00 -0.00000000000E+00 -0.74505805969E-08  0.93827000000E+00  0.93827000000E+00 0.  1.
     999902    2    1    2    0    0 -0.18781518560E-01 -0.14357102495E-01 -0.52415186922E-02  0.10197154310E+01  0.10194278861E+01 0.  0.
     999903    2    3    3    0    0  0.11491170403E+00  0.12598796461E-01  0.49751229549E-01  0.12751326751E+00  0.20518751312E-01 0.  0.
         14    1    1    2    0    0  0.18781518560E-01  0.14357102495E-01  0.52415186922E-02  0.24214568955E-01  0.00000000000E+00 0. -1.
     999901    1    3    3    0    0 -0.13369322259E+00 -0.26955898956E-01 -0.54992748241E-01  0.89220216353E+00  0.88000000000E+00 0. -1.
        -11    1    4    4    0    0  0.83125430813E-01  0.50878516311E-02  0.26425779465E-01  0.87374518159E-01  0.51100000000E-03 0. -1.
         11    1    4    4    0    0  0.31786273213E-01  0.75109448298E-02  0.23325450084E-01  0.40138749353E-01  0.51100000000E-03 0.  1.
</event>
<event>
 8    1  0.1084146E+005  0.1043930E+01  0.7957747E-01            NaN
         13   -1    0    0    0    0  0.00000000000E+00  0.00000000000E+00  0.74505805969E-08  0.10566000000E+00  0.10566000000E+00 0. -1.
     999900   -1    0    0    0    0 -0.00000000000E+00 -0.00000000000E+00 -0.74505805969E-08  0.93827000000E+00  0.93827000000E+00 0. -1.
     999902    2    1    2    0    0 -0.14441953034E-02 -0.90820442993E-02  0.22029814203E-01  0.10200577998E+01  0.10197784235E+01 0.  0.
     999903    2    3    3    0    0 -0.63719011232E-01 -0.45463332238E-01  0.10583106514E+00  0.13313931399E+00  0.19970869045E-01 0.  0.
         14    1    1    2    0    0  0.14441953034E-02  0.90820442993E-02 -0.22029814203E-01  0.23872200204E-01  0.00000000000E+00 0.  1.
     999901    1    3    3    0    0  0.62274815929E-01  0.36381287939E-01 -0.83801250934E-01  0.88691848581E+00  0.88000000000E+00 0. -1.
        -11    1    4    4    0    0 -0.11687631341E-01 -0.12737592635E-02  0.22714227078E-01  0.25581642281E-01  0.51100000000E-03 0. -1.
         11    1    4    4    0    0 -0.52031379891E-01 -0.44189572975E-01  0.83116838059E-01  0.10755767171E+00  0.51100000000E-03 0.  1.
</event>
<event>
 8    1  0.1084146E+005  0.1043930E+01  0.7957747E-01            NaN
         13   -1    0    0    0    0  0.00000000000E+00  0.00000000000E+00  0.74505805969E-08  0.10566000000E+00  0.10566000000E+00 0.  1.
     999900   -1    0    0    0    0 -0.00000000000E+00 -0.00000000000E+00 -0.74505805969E-08  0.93827000000E+00  0.93827000000E+00 0. -1.
     999902    2    1    2    0    0  0.31826602440E-02  0.23169555018E-01  0.11680306485E-02  0.10205137257E+01  0.10202450404E+01 0.  0.
     999903    2    3    3    0    0 -0.45565709172E-01 -0.10984126951E+00 -0.41237156075E-01  0.12817607503E+00  0.24233547592E-01 0.  0.
         14    1    1    2    0    0 -0.31826602440E-02 -0.23169555018E-01 -0.11680306485E-02  0.23416274288E-01  0.00000000000E+00 0. -1.
     999901    1    3    3    0    0  0.48748369416E-01  0.13301082453E+00  0.42405186724E-01  0.89233765068E+00  0.88000000000E+00 0.  1.
        -11    1    4    4    0    0 -0.22505504849E-01 -0.82486631127E-01 -0.31140141969E-01  0.90997316587E-01  0.51100000000E-03 0.  1.
         11    1    4    4    0    0 -0.23060204323E-01 -0.27354638384E-01 -0.10097014106E-01  0.37178758443E-01  0.51100000000E-03 0. -1.
</event>
<event>
 8    1  0.1084146E+005  0.1043930E+01  0.7957747E-01            NaN
         13   -1    0    0    0    0  0.00000000000E+00  0.00000000000E+00  0.74505805969E-08  0.10566000000E+00  0.10566000000E+00 0. -1.
     999900   -1    0    0    0    0 -0.00000000000E+00 -0.00000000000E+00 -0.74505805969E-08  0.93827000000E+00  0.93827000000E+00 0. -1.
     999902    2    1    2    0    0  0.21074037010E-01  0.13303657961E-01 -0.57493204197E-03  0.10190014441E+01  0.10186964760E+01 0.  0.
     999903    2    3    3    0    0 -0.29239510354E-01 -0.77643575711E-01  0.94814208589E-01  0.12776525741E+00  0.21230945257E-01 0.  0.
         14    1    1    2    0    0 -0.21074037010E-01 -0.13303657961E-01  0.57493204197E-03  0.24928555872E-01  0.00000000000E+00 0.  1.
     999901    1    3    3    0    0  0.50313547364E-01  0.90947233671E-01 -0.95389140631E-01  0.89123618672E+00  0.88000000000E+00 0. -1.
        -11    1    4    4    0    0 -0.54496571427E-02 -0.17481578027E-01  0.35714680119E-01  0.40138557900E-01  0.51100000000E-03 0. -1.
         11    1    4    4    0    0 -0.23789853212E-01 -0.60161997684E-01  0.59099528469E-01  0.87626699512E-01  0.51100000000E-03 0.  1.
</event>
<event>
 8    1  0.1084146E+005  0.1043930E+01  0.7957747E-01            NaN
         13   -1    0    0    0    0  0.00000000000E+00  0.00000000000E+00  0.74505805969E-08  0.10566000000E+00  0.10566000000E+00 0. -1.
     999900   -1    0    0    0    0 -0.00000000000E+00 -0.00000000000E+00 -0.74505805969E-08  0.93827000000E+00  0.93827000000E+00 0.  1.
     999902    2    1    2    0    0  0.10904058116E-01 -0.35942136083E-01 -0.27996753067E-03  0.10063691958E+01  0.10056680090E+01 0.  0.
     999903    2    3    3    0    0  0.11220349398E+00 -0.31621666856E-01  0.22219815772E-01  0.12026170661E+00  0.19483428582E-01 0.  0.
         14    1    1    2    0    0 -0.10904058116E-01  0.35942136083E-01  0.27996753067E-03  0.37560804190E-01  0.00000000000E+00 0.  1.
     999901    1    3    3    0    0 -0.10129943586E+00 -0.43204692270E-02 -0.22499783302E-01  0.88610748920E+00  0.88000000000E+00 0.  1.
        -11    1    4    4    0    0  0.48983671434E-01 -0.21976407011E-01  0.43892646676E-02  0.53869186903E-01  0.51100000000E-03 0. -1.
         11    1    4    4    0    0  0.63219822543E-01 -0.96452598446E-02  0.17830551104E-01  0.66392519711E-01  0.51100000000E-03 0.  1.
</event>
<event>
 8    1  0.1084146E+005  0.1043930E+01  0.7957747E-01            NaN
         13   -1    0    0    0    0  0.00000000000E+00  0.00000000000E+00  0.74505805969E-08  0.10566000000E+00  0.10566000000E+00 0. -1.
     999900   -1    0    0    0    0 -0.00000000000E+00 -0.00000000000E+00 -0.74505805969E-08  0.93827000000E+00  0.93827000000E+00 0. -1.
     999902    2    1    2    0    0  0.40838723864E-02  0.25735115652E-01 -0.19660930523E-01  0.10112875984E+01  0.10107606444E+01 0.  0.
     999903    2    3    3    0    0 -0.13730681450E-01  0.12195690433E+00  0.14759116149E-01  0.12519464024E+00  0.19845611778E-01 0.  0.
         14    1    1    2    0    0 -0.40838723864E-02 -0.25735115652E-01  0.19660930523E-01  0.32642401571E-01  0.00000000000E+00 0.  1.
     999901    1    3    3    0    0  0.17814553837E-01 -0.96221788682E-01 -0.34420046672E-01  0.88609295819E+00  0.88000000000E+00 0. -1.
        -11    1    4    4    0    0 -0.17232135963E-01  0.87525172069E-01  0.55598421740E-02  0.89379948655E-01  0.51100000000E-03 0.  1.
         11    1    4    4    0    0  0.35014545129E-02  0.34431732264E-01  0.91992739753E-02  0.35814691582E-01  0.51100000000E-03 0. -1.
</event>
<event>
 7    1  0.1084146E+005  0.1043930E+01  0.7957747E-01            NaN
         13   -1    0    0    0    0  0.00000000000E+00  0.00000000000E+00  0.74505805969E-08  0.10566000000E+00  0.10566000000E+00 0. -1.
     999900   -1    0    0    0    0 -0.00000000000E+00 -0.00000000000E+00 -0.74505805969E-08  0.93827000000E+00  0.93827000000E+00 0.  1.
     999903    2    1    2    0    0  0.85951712754E-01  0.10993397233E-01 -0.80037783196E-01  0.11985255866E+00  0.21214084253E-01 0.  0.
         14    1    1    2    0    0 -0.38496835848E-01 -0.36299732332E-02  0.10284925718E-01  0.40012032853E-01  0.00000000000E+00 0.  1.
     999901    1    1    2    0    0 -0.47454876905E-01 -0.73634239994E-02  0.69752857477E-01  0.88406540849E+00  0.88000000000E+00 0. -1.
        -11    1    3    3    0    0  0.70163436517E-01  0.17006785046E-01 -0.67143393148E-01  0.98593280328E-01  0.51100000000E-03 0.  1.
         11    1    3    3    0    0  0.15788276237E-01 -0.60133878134E-02 -0.12894390047E-01  0.21259278332E-01  0.51100000000E-03 0. -1.
</event>
<event>
 8    1  0.1084146E+005  0.1043930E+01  0.7957747E-01            NaN
         13   -1    0    0    0    0  0.00000000000E+00  0.00000000000E+00  0.74505805969E-08  0.10566000000E+00  0.10566000000E+00 0.  1.
     999900   -1    0    0    0    0 -0.00000000000E+00 -0.00000000000E+00 -0.74505805969E-08  0.93827000000E+00  0.93827000000E+00 0. -1.
     999902    2    1    2    0    0 -0.16906508265E-01 -0.14703069057E-01 -0.60805166338E-02  0.10207139938E+01  0.10204499371E+01 0.  0.
     999903    2    3    3    0    0  0.26354399788E-01 -0.10236156350E+00  0.75832597869E-01  0.13152038376E+00  0.19354182303E-01 0.  0.
         14    1    1    2    0    0  0.16906508265E-01  0.14703069057E-01  0.60805166338E-02  0.23216006202E-01  0.00000000000E+00 0. -1.
     999901    1    3    3    0    0 -0.43260908053E-01  0.87658494445E-01 -0.81913114503E-01  0.88919361004E+00  0.88000000000E+00 0. -1.
        -11    1    4    4    0    0  0.12188943493E-01 -0.78750290940E-01  0.60023207166E-01  0.99765851804E-01  0.51100000000E-03 0.  1.
         11    1    4    4    0    0  0.14165456294E-01 -0.23611272562E-01  0.15809390704E-01  0.31754531952E-01  0.51100000000E-03 0. -1.
</event>
<event>
 8    1  0.1084146E+005  0.1043930E+01  0.7957747E-01            NaN
         13   -1    0    0    0    0  0.00000000000E+00  0.00000000000E+00  0.74505805969E-08  0.10566000000E+00  0.10566000000E+00 0.  1.
     999900   -1    0    0    0    0 -0.00000000000E+00 -0.00000000000E+00 -0.74505805969E-08  0.93827000000E+00  0.93827000000E+00 0.  1.
     999902    2    1    2    0    0 -0.15455740662E-01  0.14010560000E-01  0.10630717898E-01  0.10205165877E+01  0.10202479689E+01 0.  0.
     999903    2    3    3    0    0  0.47656735564E-01 -0.63191914425E-01  0.10165870984E+00  0.13021916438E+00  0.18924983300E-01 0.  0.
         14    1    1    2    0    0  0.15455740662E-01 -0.14010560000E-01 -0.10630717898E-01  0.23413412266E-01  0.00000000000E+00 0. -1.
     999901    1    3    3    0    0 -0.63112476226E-01  0.77202474425E-01 -0.91027991939E-01  0.89029742335E+00  0.88000000000E+00 0.  1.
        -11    1    4    4    0    0  0.20912021538E-01 -0.30822095383E-01  0.62741640649E-01  0.72966353896E-01  0.51100000000E-03 0. -1.
         11    1    4    4    0    0  0.26744714026E-01 -0.32369819042E-01  0.38917069189E-01  0.57252810484E-01  0.51100000000E-03 0.  1.
</event>
<event>
 8    1  0.1084146E+005  0.1043930E+01  0.7957747E-01            NaN
         13   -1    0    0    0    0  0.00000000000E+00  0.00000000000E+00  0.74505805969E-08  0.10566000000E+00  0.10566000000E+00 0. -1.
     999900   -1    0    0    0    0 -0.00000000000E+00 -0.00000000000E+00 -0.74505805969E-08  0.93827000000E+00  0.93827000000E+00 0. -1.
     999902    2    1    2    0    0 -0.24210608819E-01  0.93226246619E-02  0.64393982477E-02  0.10171992918E+01  0.10168480066E+01 0.  0.
     999903    2    3    3    0    0 -0.53012749388E-01 -0.85538549948E-01 -0.76099145390E-01  0.12779453754E+00  0.20326553360E-01 0.  0.
         14    1    1    2    0    0  0.24210608819E-01 -0.93226246619E-02 -0.64393982477E-02  0.26730708179E-01  0.00000000000E+00 0. -1.
     999901    1    3    3    0    0  0.28802140570E-01  0.94861174609E-01  0.82538543637E-01  0.88940475428E+00  0.88000000000E+00 0.  1.
        -11    1    4    4    0    0 -0.84044309514E-02 -0.94552195459E-02 -0.18632461150E-01  0.22526991938E-01  0.51100000000E-03 0. -1.
         11    1    4    4    0    0 -0.44608318437E-01 -0.76083330402E-01 -0.57466684239E-01  0.10526754560E+00  0.51100000000E-03 0.  1.
</event>
<event>
 8    1  0.1084146E+005  0.1043930E+01  0.7957747E-01            NaN
         13   -1    0    0    0    0  0.00000000000E+00  0.00000000000E+00  0.74505805969E-08  0.10566000000E+00  0.10566000000E+00 0. -1.
     999900   -1    0    0    0    0 -0.00000000000E+00 -0.00000000000E+00 -0.74505805969E-08  0.93827000000E+00  0.93827000000E+00 0.  1.
     999902    2    1    2    0    0 -0.65629167250E-02 -0.16327113896E-01 -0.13199045719E-01  0.10219331518E+01  0.10216963861E+01 0.  0.
     999903    2    3    3    0    0 -0.78311340830E-02  0.54060089154E-01  0.11588063782E+00  0.12973500594E+00  0.20470213593E-01 0.  0.
         14    1    1    2    0    0  0.65629167250E-02  0.16327113896E-01  0.13199045719E-01  0.21996848229E-01  0.00000000000E+00 0. -1.
     999901    1    3    3    0    0  0.12682173580E-02 -0.70387203050E-01 -0.12907968353E+00  0.89219814583E+00  0.88000000000E+00 0.  1.
        -11    1    4    4    0    0 -0.42053464141E-02  0.40081877579E-01  0.61991493853E-01  0.73942195530E-01  0.51100000000E-03 0. -1.
         11    1    4    4    0    0 -0.36257876689E-02  0.13978211575E-01  0.53889143962E-01  0.55792810406E-01  0.51100000000E-03 0.  1.
</event>
<event>
 8    1  0.1084146E+005  0.1043930E+01  0.7957747E-01            NaN
         13   -1    0    0    0    0  0.00000000000E+00  0.00000000000E+00  0.74505805969E-08  0.10566000000E+00  0.10566000000E+00 0. -1.
     999900   -1    0    0    0    0 -0.00000000000E+00 -0.00000000000E+00 -0.74505805969E-08  0.93827000000E+00  0.93827000000E+00 0.  1.
     999902    2    1    2    0    0  0.25670057095E-01 -0.12260345686E-01 -0.13887766203E-02  0.10154484866E+01  0.10150489802E+01 0.  0.
     999903    2    3    3    0    0  0.30063388087E-02  0.89991648169E-01 -0.84762442651E-01  0.12532474091E+00  0.20349058622E-01 0.  0.
         14    1    1    2    0    0 -0.25670057095E-01  0.12260345686E-01  0.13887766203E-02  0.28481513445E-01  0.00000000000E+00 0. -1.
     999901    1    3    3    0    0  0.22663718286E-01 -0.10225199385E+00  0.83373666031E-01  0.89012374565E+00  0.88000000000E+00 0. -1.
        -11    1    4    4    0    0  0.75029794574E-02  0.24357043116E-01 -0.32486852000E-01  0.41294272290E-01  0.51100000000E-03 0.  1.
         11    1    4    4    0    0 -0.44966406486E-02  0.65634605053E-01 -0.52275590652E-01  0.84030468620E-01  0.51100000000E-03 0. -1.
</event>
<event>
 8    1  0.1084146E+005  0.1043930E+01  0.7957747E-01            NaN
         13   -1    0    0    0    0  0.00000000000E+00  0.00000000000E+00  0.74505805969E-08  0.10566000000E+00  0.10566000000E+00 0. -1.
     999900   -1    0    0    0    0 -0.00000000000E+00 -0.00000000000E+00 -0.74505805969E-08  0.93827000000E+00  0.93827000000E+00 0. -1.
     999902    2    1    2    0    0 -0.14722330724E-01  0.31495027806E-02 -0.18174390265E-01  0.10203296854E+01  0.10200567102E+01 0.  0.
     999903    2    3    3    0    0 -0.87152412772E-01 -0.63910685213E-01 -0.75063785766E-01  0.13298556444E+00  0.19247588955E-01 0.  0.
         14    1    1    2    0    0  0.14722330724E-01 -0.31495027806E-02  0.18174390265E-01  0.23600314643E-01  0.00000000000E+00 0. -1.
     999901    1    3    3    0    0  0.72430082048E-01  0.67060187994E-01  0.56889395500E-01  0.88734412091E+00  0.88000000000E+00 0.  1.
        -11    1    4    4    0    0 -0.47472782475E-01 -0.26723030828E-01 -0.46113090801E-01  0.71375512025E-01  0.51100000000E-03 0. -1.
         11    1    4    4    0    0 -0.39679630297E-01 -0.37187654385E-01 -0.28950694965E-01  0.61610052419E-01  0.51100000000E-03 0.  1.
</event>
<event>
 8    1  0.1084146E+005  0.1043930E+01  0.7957747E-01            NaN
         13   -1    0    0    0    0  0.00000000000E+00  0.00000000000E+00  0.74505805969E-08  0.10566000000E+00  0.10566000000E+00 0.  1.
     999900   -1    0    0    0    0 -0.00000000000E+00 -0.00000000000E+00 -0.74505805969E-08  0.93827000000E+00  0.93827000000E+00 0.  1.
     999902    2    1    2    0    0 -0.20930025231E-01 -0.16584720053E-02  0.91914971415E-02  0.10210105736E+01  0.10207532960E+01 0.  0.
     999903    2    3    3    0    0  0.91218449789E-01 -0.74358153658E-01  0.50857431701E-01  0.12994459725E+00  0.21193852803E-01 0.  0.
         14    1    1    2    0    0  0.20930025231E-01  0.16584720053E-02 -0.91914971415E-02  0.22919426373E-01  0.00000000000E+00 0. -1.
     999901    1    3    3    0    0 -0.11214847502E+00  0.72699681652E-01 -0.41665934560E-01  0.89106597638E+00  0.88000000000E+00 0.  1.
        -11    1    4    4    0    0  0.41921420629E-01 -0.47731577153E-01  0.25867130661E-01  0.68593575024E-01  0.51100000000E-03 0.  1.
         11    1    4    4    0    0  0.49297029161E-01 -0.26626576505E-01  0.24990301041E-01  0.61351022221E-01  0.51100000000E-03 0. -1.
</event>
<event>
 8    1  0.1084146E+005  0.1043930E+01  0.7957747E-01            NaN
         13   -1    0    0    0    0  0.00000000000E+00  0.00000000000E+00  0.74505805969E-08  0.10566000000E+00  0.10566000000E+00 0. -1.
     999900   -1    0    0    0    0 -0.00000000000E+00 -0.00000000000E+00 -0.74505805969E-08  0.93827000000E+00  0.93827000000E+00 0.  1.
     999902    2    1    2    0    0  0.11009758393E-02 -0.36803034651E-02  0.23270159248E-01  0.10203448968E+01  0.10200722775E+01 0.  0.
     999903    2    3    3    0    0  0.14393653758E-01  0.12783227013E+00  0.32530943403E-03  0.13017709328E+00  0.19942498197E-01 0.  0.
         14    1    1    2    0    0 -0.11009758393E-02  0.36803034651E-02 -0.23270159248E-01  0.23585103197E-01  0.00000000000E+00 0.  1.
     999901    1    3    3    0    0 -0.13292677918E-01 -0.13151257359E+00  0.22944849813E-01  0.89016780352E+00  0.88000000000E+00 0. -1.
        -11    1    4    4    0    0  0.11203061906E-01  0.80375221174E-01  0.95829021420E-02  0.81717671952E-01  0.51100000000E-03 0.  1.
         11    1    4    4    0    0  0.31905918517E-02  0.47457048952E-01 -0.92575927079E-02  0.48459421327E-01  0.51100000000E-03 0. -1.
</event>
<event>
 8    1  0.1084146E+005  0.1043930E+01  0.7957747E-01            NaN
         13   -1    0    0    0    0  0.00000000000E+00  0.00000000000E+00  0.74505805969E-08  0.10566000000E+00  0.10566000000E+00 0. -1.
     999900   -1    0    0    0    0 -0.00000000000E+00 -0.00000000000E+00 -0.74505805969E-08  0.93827000000E+00  0.93827000000E+00 0. -1.
     999902    2    1    2    0    0  0.82665687556E-02 -0.67162405838E-02 -0.20882019178E-01  0.10204885245E+01  0.10202192539E+01 0.  0.
     999903    2    3    3    0    0  0.77044037718E-01 -0.31475608032E-01  0.97333023657E-01  0.12957990809E+00  0.19767079671E-01 0.  0.
         14    1    1    2    0    0 -0.82665687556E-02  0.67162405838E-02  0.20882019178E-01  0.23441475455E-01  0.00000000000E+00 0. -1.
     999901    1    3    3    0    0 -0.68777468963E-01  0.24759367448E-01 -0.11821504283E+00  0.89090861645E+00  0.88000000000E+00 0. -1.
        -11    1    4    4    0    0  0.12376586243E-01 -0.10405800948E-01  0.28752106402E-01  0.32990988527E-01  0.51100000000E-03 0. -1.
         11    1    4    4    0    0  0.64667451475E-01 -0.21069807084E-01  0.68580917255E-01  0.96588919568E-01  0.51100000000E-03 0.  1.
</event>
<event>
 8    1  0.1084146E+005  0.1043930E+01  0.7957747E-01            NaN
         13   -1    0    0    0    0  0.00000000000E+00  0.00000000000E+00  0.74505805969E-08  0.10566000000E+00  0.10566000000E+00 0. -1.
     999900   -1    0    0    0    0 -0.00000000000E+00 -0.00000000000E+00 -0.74505805969E-08  0.93827000000E+00  0.93827000000E+00 0. -1.
     999902    2    1    2    0    0  0.13013918505E-01 -0.19393055249E-01 -0.23823285580E-02  0.10204538812E+01  0.10201838047E+01 0.  0.
     999903    2    3    3    0    0 -0.92053796997E-02 -0.57735264292E-01 -0.11657306848E+00  0.13197014619E+00  0.20217305280E-01 0.  0.
         14    1    1    2    0    0 -0.13013918505E-01  0.19393055249E-01  0.23823285580E-02  0.23476118847E-01  0.00000000000E+00 0.  1.
     999901    1    3    3    0    0  0.22219298205E-01  0.38342209043E-01  0.11419073992E+00  0.88848373496E+00  0.88000000000E+00 0.  1.
        -11    1    4    4    0    0 -0.13539384310E-01 -0.40450120869E-01 -0.68491866229E-01  0.80690297226E-01  0.51100000000E-03 0. -1.
         11    1    4    4    0    0  0.43340046101E-02 -0.17285143423E-01 -0.48081202251E-01  0.51279848966E-01  0.51100000000E-03 0.  1.
</event>
<event>
 8    1  0.1084146E+005  0.1043930E+01  0.7957747E-01            NaN
         13   -1    0    0    0    0  0.00000000000E+00  0.00000000000E+00  0.74505805969E-08  0.10566000000E+00  0.10566000000E+00 0.  1.
     999900   -1    0    0    0    0 -0.00000000000E+00 -0.00000000000E+00 -0.74505805969E-08  0.93827000000E+00  0.93827000000E+00 0.  1.
     999902    2    1    2    0    0  0.20496463317E-01  0.97095150903E-02 -0.22931114147E-02  0.10211344291E+01  0.10208799559E+01 0.  0.
     999903    2    3    3    0    0 -0.11784141039E+00  0.32044106904E-01  0.37480752099E-01  0.12916012371E+00  0.19081613906E-01 0.  0.
         14    1    1    2    0    0 -0.20496463317E-01 -0.97095150903E-02  0.22931114147E-02  0.22795570880E-01  0.00000000000E+00 0.  1.
     999901    1    3    3    0    0  0.13833787371E+00 -0.22334591814E-01 -0.39773863513E-01  0.89197430541E+00  0.88000000000E+00 0.  1.
        -11    1    4    4    0    0 -0.28179574889E-01  0.12378220806E-01  0.16784814916E-01  0.35061373676E-01  0.51100000000E-03 0. -1.
         11    1    4    4    0    0 -0.89661835500E-01  0.19665886098E-01  0.20695937182E-01  0.94098750034E-01  0.51100000000E-03 0.  1.
</event>
<event>
 8    1  0.1084146E+005  0.1043930E+01  0.7957747E-01            NaN
         13   -1    0    0    0    0  0.00000000000E+00  0.00000000000E+00  0.74505805969E-08  0.10566000000E+00  0.10566000000E+00 0.  1.
     999900   -1    0    0    0    0 -0.00000000000E+00 -0.00000000000E+00 -0.74505805969E-08  0.93827000000E+00  0.93827000000E+00 0. -1.
     999902    2    1    2    0    0  0.89533798652E-02  0.97778882047E-02  0.19258664517E-01  0.10205491046E+01  0.10202812400E+01 0.  0.
     999903    2    3    3    0    0 -0.60692451800E-01 -0.10728133814E+00 -0.31257001746E-01  0.12863810186E+00  0.19439698389E-01 0.  0.
         14    1    1    2    0    0 -0.89533798652E-02 -0.97778882047E-02 -0.19258664517E-01  0.23380895358E-01  0.00000000000E+00 0. -1.
     999901    1    3    3    0    0  0.69645831665E-01  0.11705922635E+00  0.50515666263E-01  0.89191100278E+00  0.88000000000E+00 0.  1.
        -11    1    4    4    0    0 -0.21514326318E-01 -0.30508459535E-01 -0.11986601397E-02  0.37354119548E-01  0.51100000000E-03 0.  1.
         11    1    4    4    0    0 -0.39178125482E-01 -0.76772878608E-01 -0.30058341606E-01  0.91283982314E-01  0.51100000000E-03 0. -1.
</event>
<event>
 8    1  0.1084146E+005  0.1043930E+01  0.7957747E-01            NaN
         13   -1    0    0    0    0  0.00000000000E+00  0.00000000000E+00  0.74505805969E-08  0.10566000000E+00  0.10566000000E+00 0. -1.
     999900   -1    0    0    0    0 -0.00000000000E+00 -0.00000000000E+00 -0.74505805969E-08  0.93827000000E+00  0.93827000000E+00 0. -1.
     999902    2    1    2    0    0 -0.11911532683E-01 -0.10668928398E-01 -0.13340814245E-01  0.10231048237E+01  0.10228928547E+01 0.  0.
     999903    2    3    3    0    0 -0.33977060449E-01 -0.11879039235E+00 -0.52125317836E-01  0.13536534827E+00  0.18469726607E-01 0.  0.
         14    1    1    2    0    0  0.11911532683E-01  0.10668928398E-01  0.13340814245E-01  0.20825176319E-01  0.00000000000E+00 0.  1.
     999901    1    3    3    0    0  0.22065527766E-01  0.10812146395E+00  0.38784503591E-01  0.88773947541E+00  0.88000000000E+00 0.  1.
        -11    1    4    4    0    0 -0.27677597648E-01 -0.72817744057E-01 -0.39116994864E-01  0.87171518682E-01  0.51100000000E-03 0. -1.
         11    1    4    4    0    0 -0.62994628010E-02 -0.45972648295E-01 -0.13008322971E-01  0.48193829588E-01  0.51100000000E-03 0.  1.
</event>
<event>
 8    1  0.1084146E+005  0.1043930E+01  0.7957747E-01            NaN
         13   -1    0    0    0    0  0.00000000000E+00  0.00000000000E+00  0.74505805969E-08  0.10566000000E+00  0.10566000000E+00 0. -1.
     999900   -1    0    0    0    0 -0.00000000000E+00 -0.00000000000E+00 -0.74505805969E-08  0.93827000000E+00  0.93827000000E+00 0. -1.
     999902    2    1    2    0    0 -0.10497666276E-02 -0.18821535661E-01  0.15812167263E-01  0.10193255929E+01  0.10190286000E+01 0.  0.
     999903    2    3    3    0    0  0.11499917398E+00  0.46979080632E-01 -0.25000967509E-01  0.12833581200E+00  0.20327032084E-01 0.  0.
         14    1    1    2    0    0  0.10497666276E-02  0.18821535661E-01 -0.15812167263E-01  0.24604407088E-01  0.00000000000E+00 0.  1.
     999901    1    3    3    0    0 -0.11604894060E+00 -0.65800616293E-01  0.40813134772E-01  0.89098978091E+00  0.88000000000E+00 0.  1.
        -11    1    4    4    0    0  0.26632752344E-01  0.25418910686E-02 -0.83579468368E-02  0.28033571016E-01  0.51100000000E-03 0.  1.
         11    1    4    4    0    0  0.88366421631E-01  0.44437189564E-01 -0.16643020672E-01  0.10030224098E+00  0.51100000000E-03 0. -1.
</event>
<event>
 8    1  0.1084146E+005  0.1043930E+01  0.7957747E-01            NaN
         13   -1    0    0    0    0  0.00000000000E+00  0.00000000000E+00  0.74505805969E-08  0.10566000000E+00  0.10566000000E+00 0. -1.
     999900   -1    0    0    0    0 -0.00000000000E+00 -0.00000000000E+00 -0.74505805969E-08  0.93827000000E+00  0.93827000000E+00 0. -1.
     999902    2    1    2    0    0  0.17025862327E-01  0.17333075689E-01  0.45122372635E-02  0.10192181448E+01  0.10189185203E+01 0.  0.
     999903    2    3    3    0    0  0.29223933657E-01 -0.10747688267E+00  0.61296859034E-01  0.12851571870E+00  0.18806020823E-01 0.  0.
         14    1    1    2    0    0 -0.17025862327E-01 -0.17333075689E-01 -0.45122372635E-02  0.24711855170E-01  0.00000000000E+00 0.  1.
     999901    1    3    3    0    0 -0.12198071330E-01  0.12480995835E+00 -0.56784621770E-01  0.89070242613E+00  0.88000000000E+00 0. -1.
        -11    1    4    4    0    0  0.20879954994E-01 -0.41664664420E-01  0.26048472054E-01  0.53391954442E-01  0.51100000000E-03 0. -1.
         11    1    4    4    0    0  0.83439786626E-02 -0.65812218245E-01  0.35248386980E-01  0.75123764256E-01  0.51100000000E-03 0.  1.
</event>
<event>
 8    1  0.1084146E+005  0.1043930E+01  0.7957747E-01            NaN
         13   -1    0    0    0    0  0.00000000000E+00  0.00000000000E+00  0.74505805969E-08  0.10566000000E+00  0.10566000000E+00 0.  1.
     999900   -1    0    0    0    0 -0.00000000000E+00 -0.00000000000E+00 -0.74505805969E-08  0.93827000000E+00  0.93827000000E+00 0.  1.
     999902    2    1    2    0    0 -0.84558615159E-02  0.17507220288E-01  0.12292485349E-01  0.10209276186E+01  0.10206684539E+01 0.  0.
     999903    2    3    3    0    0  0.81783695774E-01  0.46188700453E-01  0.91058272566E-01  0.13235018566E+00  0.20074702947E-01 0.  0.
         14    1    1    2    0    0  0.84558615159E-02 -0.17507220288E-01 -0.12292485349E-01  0.23002381447E-01  0.00000000000E+00 0. -1.
     999901    1    3    3    0    0 -0.90239557290E-01 -0.28681480166E-01 -0.78765787217E-01  0.88857743289E+00  0.88000000000E+00 0.  1.
        -11    1    4    4    0    0  0.58555342838E-01  0.33375177226E-01  0.51984429777E-01  0.85119167583E-01  0.51100000000E-03 0. -1.
         11    1    4    4    0    0  0.23228352936E-01  0.12813523227E-01  0.39073842789E-01  0.47231018081E-01  0.51100000000E-03 0.  1.
</event>
<event>
 8    1  0.1084146E+005  0.1043930E+01  0.7957747E-01            NaN
         13   -1    0    0    0    0  0.00000000000E+00  0.00000000000E+00  0.74505805969E-08  0.10566000000E+00  0.10566000000E+00 0. -1.
     999900   -1    0    0    0    0 -0.00000000000E+00 -0.00000000000E+00 -0.74505805969E-08  0.93827000000E+00  0.93827000000E+00 0. -1.
     999902    2    1    2    0    0 -0.16205523367E-01  0.10792883231E-02  0.16974258141E-01  0.10204372503E+01  0.10201667866E+01 0.  0.
     999903    2    3    3    0    0  0.53939356484E-01 -0.97849735627E-01  0.64792135322E-01  0.13083407731E+00  0.20868877430E-01 0.  0.
         14    1    1    2    0    0  0.16205523367E-01 -0.10792883231E-02 -0.16974258141E-01  0.23492749740E-01  0.00000000000E+00 0.  1.
     999901    1    3    3    0    0 -0.70144879852E-01  0.98929023950E-01 -0.47817877180E-01  0.88960317295E+00  0.88000000000E+00 0.  1.
        -11    1    4    4    0    0  0.25436621310E-01 -0.56133453133E-01  0.24949553941E-01  0.66488552602E-01  0.51100000000E-03 0. -1.
         11    1    4    4    0    0  0.28502735175E-01 -0.41716282494E-01  0.39842581380E-01  0.64345524705E-01  0.51100000000E-03 0.  1.
</event>
<event>
 8    1  0.1084146E+005  0.1043930E+01  0.7957747E-01            NaN
         13   -1    0    0    0    0  0.00000000000E+00  0.00000000000E+00  0.74505805969E-08  0.10566000000E+00  0.10566000000E+00 0. -1.
     999900   -1    0    0    0    0 -0.00000000000E+00 -0.00000000000E+00 -0.74505805969E-08  0.93827000000E+00  0.93827000000E+00 0.  1.
     999902    2    1    2    0    0  0.38896122280E-02 -0.20690906560E-01  0.97032426661E-02  0.10207482051E+01  0.10204849350E+01 0.  0.
     999903    2    3    3    0    0 -0.82986977782E-01  0.38107222852E-01 -0.88910222122E-01  0.12904793181E+00  0.20232206781E-01 0.  0.
         14    1    1    2    0    0 -0.38896122280E-02  0.20690906560E-01 -0.97032426661E-02  0.23181794921E-01  0.00000000000E+00 0. -1.
     999901    1    3    3    0    0  0.86876590010E-01 -0.58798129412E-01  0.98613464788E-01  0.89170027327E+00  0.88000000000E+00 0. -1.
        -11    1    4    4    0    0 -0.22160236884E-01  0.18096741157E-01 -0.19598553743E-01  0.34683318311E-01  0.51100000000E-03 0.  1.
         11    1    4    4    0    0 -0.60826740898E-01  0.20010481695E-01 -0.69311668378E-01  0.94364613496E-01  0.51100000000E-03 0. -1.
</event>
<event>
 8    1  0.1084146E+005  0.1043930E+01  0.7957747E-01            NaN
         13   -1    0    0    0    0  0.00000000000E+00  0.00000000000E+00  0.74505805969E-08  0.10566000000E+00  0.10566000000E+00 0. -1.
     999900   -1    0    0    0    0 -0.00000000000E+00 -0.00000000000E+00 -0.74505805969E-08  0.93827000000E+00  0.93827000000E+00 0. -1.
     999902    2    1    2    0    0 -0.10569091146E-01  0.21008031566E-01  0.84927316829E-02  0.10189266088E+01  0.10186197841E+01 0.  0.
     999903    2    3    3    0    0 -0.37606819532E-01  0.11391871224E+00  0.53827313268E-01  0.13246247667E+00  0.16036901139E-01 0.  0.
         14    1    1    2    0    0  0.10569091146E-01 -0.21008031566E-01 -0.84927316829E-02  0.25003391158E-01  0.00000000000E+00 0.  1.
     999901    1    3    3    0    0  0.27037728386E-01 -0.92910680674E-01 -0.45334581585E-01  0.88646413217E+00  0.88000000000E+00 0. -1.
        -11    1    4    4    0    0 -0.56541222063E-02  0.37491189915E-01  0.21087425437E-01  0.43387775372E-01  0.51100000000E-03 0.  1.
         11    1    4    4    0    0 -0.31952697326E-01  0.76427522325E-01  0.32739887831E-01  0.89074701298E-01  0.51100000000E-03 0. -1.
</event>
<event>
 8    1  0.1084146E+005  0.1043930E+01  0.7957747E-01            NaN
         13   -1    0    0    0    0  0.00000000000E+00  0.00000000000E+00  0.74505805969E-08  0.10566000000E+00  0.10566000000E+00 0. -1.
     999900   -1    0    0    0    0 -0.00000000000E+00 -0.00000000000E+00 -0.74505805969E-08  0.93827000000E+00  0.93827000000E+00 0.  1.
     999902    2    1    2    0    0  0.18244999139E-01  0.18090171485E-01  0.10572700225E-02  0.10182151771E+01  0.10178904139E+01 0.  0.
     999903    2    3    3    0    0  0.11117204251E+00  0.63670520115E-01  0.24682496818E-01  0.13183424604E+00  0.18917838495E-01 0.  0.
         14    1    1    2    0    0 -0.18244999139E-01 -0.18090171485E-01 -0.10572700225E-02  0.25714822920E-01  0.00000000000E+00 0.  1.
     999901    1    3    3    0    0 -0.92927043366E-01 -0.45580348629E-01 -0.23625226795E-01  0.88638093104E+00  0.88000000000E+00 0.  1.
        -11    1    4    4    0    0  0.60862985445E-01  0.35698345991E-01  0.23104186553E-01  0.74247824621E-01  0.51100000000E-03 0.  1.
         11    1    4    4    0    0  0.50309057060E-01  0.27972174123E-01  0.15783102650E-02  0.57586421418E-01  0.51100000000E-03 0. -1.
</event>
<event>
 8    1  0.1084146E+005  0.1043930E+01  0.7957747E-01            NaN
         13   -1    0    0    0    0  0.00000000000E+00  0.00000000000E+00  0.74505805969E-08  0.10566000000E+00  0.10566000000E+00 0. -1.
     999900   -1    0    0    0    0 -0.00000000000E+00 -0.00000000000E+00 -0.74505805969E-08  0.93827000000E+00  0.93827000000E+00 0. -1.
     999902    2    1    2    0    0  0.15395128028E-01 -0.12923762672E-01 -0.13488515999E-01  0.10197231069E+01  0.10194357464E+01 0.  0.
     999903    2    3    3    0    0 -0.11909146544E+00 -0.20518168638E-01 -0.40126202476E-01  0.12907509274E+00  0.21130429635E-01 0.  0.
         14    1    1    2    0    0 -0.15395128028E-01  0.12923762672E-01  0.13488515999E-01  0.24206893077E-01  0.00000000000E+00 0. -1.
     999901    1    3    3    0    0  0.13448659347E+00  0.75944059665E-02  0.26637686477E-01  0.89064801418E+00  0.88000000000E+00 0. -1.
        -11    1    4    4    0    0 -0.10389188175E+00 -0.10532186535E-01 -0.35597388190E-01  0.11032626710E+00  0.51100000000E-03 0.  1.
         11    1    4    4    0    0 -0.15199583693E-01 -0.99859821034E-02 -0.45288142862E-02  0.18748825639E-01  0.51100000000E-03 0. -1.
</event>
<event>
 8    1  0.1084146E+005  0.1043930E+01  0.7957747E-01            NaN
         13   -1    0    0    0    0  0.00000000000E+00  0.00000000000E+00  0.74505805969E-08  0.10566000000E+00  0.10566000000E+00 0. -1.
     999900   -1    0    0    0    0 -0.00000000000E+00 -0.00000000000E+00 -0.74505805969E-08  0.93827000000E+00  0.93827000000E+00 0.  1.
     999902    2    1    2    0    0  0.57909079232E-02  0.21751395587E-01  0.71191618240E-02  0.10203219444E+01  0.10200487880E+01 0.  0.
     999903    2    3    3    0    0 -0.18006240137E-01 -0.97496087614E-01 -0.77685244899E-01  0.12792177972E+00  0.22344410213E-01 0.  0.
         14    1    1    2    0    0 -0.57909079232E-02 -0.21751395587E-01 -0.71191618240E-02  0.23608055609E-01  0.00000000000E+00 0. -1.
     999901    1    3    3    0    0  0.23797148060E-01  0.11924748320E+00  0.84804406723E-01  0.89240016467E+00  0.88000000000E+00 0.  1.
        -11    1    4    4    0    0 -0.17756130381E-01 -0.52673411476E-01 -0.33092095337E-01  0.64692475122E-01  0.51100000000E-03 0.  1.
         11    1    4    4    0    0 -0.25010975641E-03 -0.44822676138E-01 -0.44593149562E-01  0.63229304597E-01  0.51100000000E-03 0. -1.
</event>
<event>
 7    1  0.1084146E+005  0.1043930E+01  0.7957747E-01            NaN
         13   -1    0    0    0    0  0.00000000000E+00  0.00000000000E+00  0.74505805969E-08  0.10566000000E+00  0.10566000000E+00 0. -1.
     999900   -1    0    0    0    0 -0.00000000000E+00 -0.00000000000E+00 -0.74505805969E-08  0.93827000000E+00  0.93827000000E+00 0. -1.
     999902    2    1    2    0    0 -0.14419684522E-01  0.18378528730E-01 -0.25912955324E-02  0.10204265442E+01  0.10201558311E+01 0.  0.
         14    1    1    2    0    0  0.14419684522E-01 -0.18378528730E-01  0.25912955324E-02  0.23503455757E-01  0.00000000000E+00 0. -1.
     999901    1    3    3    0    0  0.23231178379E-01  0.10024328280E+00 -0.88305106543E-01  0.89038541949E+00  0.88000000000E+00 0. -1.
        -11    1    3    3    0    0 -0.27094323463E-01 -0.16815018081E-01  0.27932527103E-01  0.42394980697E-01  0.51100000000E-03 0.  1.
         11    1    3    3    0    0 -0.10556539438E-01 -0.65049735990E-01  0.57781283907E-01  0.87646144058E-01  0.51100000000E-03 0. -1.
</event>
<event>
 8    1  0.1084146E+005  0.1043930E+01  0.7957747E-01            NaN
         13   -1    0    0    0    0  0.00000000000E+00  0.00000000000E+00  0.74505805969E-08  0.10566000000E+00  0.10566000000E+00 0.  1.
     999900   -1    0    0    0    0 -0.00000000000E+00 -0.00000000000E+00 -0.74505805969E-08  0.93827000000E+00  0.93827000000E+00 0. -1.
     999902    2    1    2    0    0 -0.21811383366E-01 -0.84389136133E-02 -0.21550616479E-02  0.10204439191E+01  0.10201736107E+01 0.  0.
     999903    2    3    3    0    0 -0.11726929181E+00 -0.59342371681E-01  0.12966160058E-01  0.13369027476E+00  0.20769313468E-01 0.  0.
         14    1    1    2    0    0  0.21811383366E-01  0.84389136133E-02  0.21550616479E-02  0.23486080942E-01  0.00000000000E+00 0.  1.
     999901    1    3    3    0    0  0.95457908439E-01  0.50903458068E-01 -0.15121221706E-01  0.88675364430E+00  0.88000000000E+00 0.  1.
        -11    1    4    4    0    0 -0.59302827184E-01 -0.41284861667E-01  0.94079623322E-02  0.72869993764E-01  0.51100000000E-03 0. -1.
         11    1    4    4    0    0 -0.57966464621E-01 -0.18057510014E-01  0.35581977255E-02  0.60820280998E-01  0.51100000000E-03 0.  1.
</event>
<event>
 8    1  0.1084146E+005  0.1043930E+01  0.7957747E-01            NaN
         13   -1    0    0    0    0  0.00000000000E+00  0.00000000000E+00  0.74505805969E-08  0.10566000000E+00  0.10566000000E+00 0.  1.
     999900   -1    0    0    0    0 -0.00000000000E+00 -0.00000000000E+00 -0.74505805969E-08  0.93827000000E+00  0.93827000000E+00 0.  1.
     999902    2    1    2    0    0  0.33105890262E-02 -0.23346936745E-01  0.39058797497E-02  0.10200282145E+01  0.10197481370E+01 0.  0.
     999903    2    3    3    0    0 -0.11553459882E+00  0.45073926462E-01 -0.28299851308E-01  0.12882520599E+00  0.20375223762E-01 0.  0.
         14    1    1    2    0    0 -0.33105890262E-02  0.23346936745E-01 -0.39058797497E-02  0.23901785533E-01  0.00000000000E+00 0.  1.
     999901    1    3    3    0    0  0.11884518785E+00 -0.68420863207E-01  0.32205731057E-01  0.89120300847E+00  0.88000000000E+00 0. -1.
        -11    1    4    4    0    0 -0.33197937963E-01  0.80145679494E-02 -0.15930949562E-01  0.37688097052E-01  0.51100000000E-03 0.  1.
         11    1    4    4    0    0 -0.82336660860E-01  0.37059358513E-01 -0.12368901746E-01  0.91137108943E-01  0.51100000000E-03 0. -1.
</event>
<event>
 8    1  0.1084146E+005  0.1043930E+01  0.7957747E-01            NaN
         13   -1    0    0    0    0  0.00000000000E+00  0.00000000000E+00  0.74505805969E-08  0.10566000000E+00  0.10566000000E+00 0.  1.
     999900   -1    0    0    0    0 -0.00000000000E+00 -0.00000000000E+00 -0.74505805969E-08  0.93827000000E+00  0.93827000000E+00 0. -1.
     999902    2    1    2    0    0 -0.17732939528E-01  0.15372691405E-01  0.30360023249E-03  0.10204594023E+01  0.10201894543E+01 0.  0.
     999903    2    3    3    0    0  0.52842368732E-02 -0.11461210941E+00  0.55079186001E-01  0.12892914273E+00  0.20619125379E-01 0.  0.
         14    1    1    2    0    0  0.17732939528E-01 -0.15372691405E-01 -0.30360023249E-03  0.23470597743E-01  0.00000000000E+00 0.  1.
     999901    1    3    3    0    0 -0.23017176401E-01  0.12998480082E+00 -0.54775585768E-01  0.89153025953E+00  0.88000000000E+00 0. -1.
        -11    1    4    4    0    0  0.96651989038E-02 -0.97807530522E-01  0.40708478219E-01  0.10638219032E+00  0.51100000000E-03 0. -1.
         11    1    4    4    0    0 -0.43809620306E-02 -0.16804578891E-01  0.14370707782E-01  0.22546952415E-01  0.51100000000E-03 0.  1.
</event>
<event>
 8    1  0.1084146E+005  0.1043930E+01  0.7957747E-01            NaN
         13   -1    0    0    0    0  0.00000000000E+00  0.00000000000E+00  0.74505805969E-08  0.10566000000E+00  0.10566000000E+00 0.  1.
     999900   -1    0    0    0    0 -0.00000000000E+00 -0.00000000000E+00 -0.74505805969E-08  0.93827000000E+00  0.93827000000E+00 0.  1.
     999902    2    1    2    0    0 -0.13000508856E-02  0.21111356368E-01  0.51893474992E-02  0.10221513676E+01  0.10219193263E+01 0.  0.
     999903    2    3    3    0    0 -0.12604313510E+00  0.37968422015E-01 -0.46645637507E-02  0.13313950198E+00  0.19388033797E-01 0.  0.
         14    1    1    2    0    0  0.13000508856E-02 -0.21111356368E-01 -0.51893474992E-02  0.21778632360E-01  0.00000000000E+00 0.  1.
     999901    1    3    3    0    0  0.12474308422E+00 -0.16857065647E-01  0.98539112498E-02  0.88901186566E+00  0.88000000000E+00 0. -1.
        -11    1    4    4    0    0 -0.48760864660E-01  0.72620352273E-02  0.43440871807E-02  0.49492335694E-01  0.51100000000E-03 0. -1.
         11    1    4    4    0    0 -0.77282270444E-01  0.30706386787E-01 -0.90086509313E-02  0.83647166283E-01  0.51100000000E-03 0.  1.
</event>
<event>
 8    1  0.1084146E+005  0.1043930E+01  0.7957747E-01            NaN
         13   -1    0    0    0    0  0.00000000000E+00  0.00000000000E+00  0.74505805969E-08  0.10566000000E+00  0.10566000000E+00 0. -1.
     999900   -1    0    0    0    0 -0.00000000000E+00 -0.00000000000E+00 -0.74505805969E-08  0.93827000000E+00  0.93827000000E+00 0. -1.
     999902    2    1    2    0    0  0.76114200591E-02  0.21147217006E-01 -0.50605476804E-02  0.10208920390E+01  0.10206320629E+01 0.  0.
     999903    2    3    3    0    0  0.16466851540E-01  0.12035902410E+00 -0.52992146646E-01  0.13397668822E+00  0.19599323955E-01 0.  0.
         14    1    1    2    0    0 -0.76114200591E-02 -0.21147217006E-01  0.50605476804E-02  0.23037960961E-01  0.00000000000E+00 0.  1.
     999901    1    3    3    0    0 -0.88554314809E-02 -0.99211807092E-01  0.47931598965E-01  0.88691535082E+00  0.88000000000E+00 0.  1.
        -11    1    4    4    0    0  0.15182871764E-01  0.50903602741E-01 -0.17254438168E-01  0.55854034093E-01  0.51100000000E-03 0. -1.
         11    1    4    4    0    0  0.12839797759E-02  0.69455421357E-01 -0.35737708478E-01  0.78122654130E-01  0.51100000000E-03 0.  1.
</event>
<event>
 8    1  0.1084146E+005  0.1043930E+01  0.7957747E-01            NaN
         13   -1    0    0    0    0  0.00000000000E+00  0.00000000000E+00  0.74505805969E-08  0.10566000000E+00  0.10566000000E+00 0. -1.
     999900   -1    0    0    0    0 -0.00000000000E+00 -0.00000000000E+00 -0.74505805969E-08  0.93827000000E+00  0.93827000000E+00 0. -1.
     999902    2    1    2    0    0  0.54583920719E-02 -0.21062030957E-01  0.10142876955E-01  0.10199241435E+01  0.10196415926E+01 0.  0.
     999903    2    3    3    0    0  0.31000700061E-01  0.12227403073E+00  0.46023540947E-02  0.12794413620E+00  0.20893499701E-01 0.  0.
         14    1    1    2    0    0 -0.54583920719E-02  0.21062030957E-01 -0.10142876955E-01  0.24005856472E-01  0.00000000000E+00 0.  1.
     999901    1    3    3    0    0 -0.25542307989E-01 -0.14333606169E+00  0.55405228606E-02  0.89198000733E+00  0.88000000000E+00 0. -1.
        -11    1    4    4    0    0  0.16595153682E-01  0.33681349157E-01 -0.40568461180E-02  0.37769717079E-01  0.51100000000E-03 0.  1.
         11    1    4    4    0    0  0.14405546379E-01  0.88592681573E-01  0.86592002127E-02  0.90174419122E-01  0.51100000000E-03 0. -1.
</event>
<event>
 8    1  0.1084146E+005  0.1043930E+01  0.7957747E-01            NaN
         13   -1    0    0    0    0  0.00000000000E+00  0.00000000000E+00  0.74505805969E-08  0.10566000000E+00  0.10566000000E+00 0. -1.
     999900   -1    0    0    0    0 -0.00000000000E+00 -0.00000000000E+00 -0.74505805969E-08  0.93827000000E+00  0.93827000000E+00 0.  1.
     999902    2    1    2    0    0 -0.45345267135E-02  0.21696821671E-03 -0.21495691784E-01  0.10219601622E+01  0.10217239839E+01 0.  0.
     999903    2    3    3    0    0  0.77459209289E-01 -0.77506350500E-01  0.67518245625E-01  0.13028344496E+00  0.20196511246E-01 0.  0.
         14    1    1    2    0    0  0.45345267135E-02 -0.21696821671E-03  0.21495691784E-01  0.21969837801E-01  0.00000000000E+00 0. -1.
     999901    1    3    3    0    0 -0.81993736003E-01  0.77723318717E-01 -0.89013937409E-01  0.89167671724E+00  0.88000000000E+00 0.  1.
        -11    1    4    4    0    0  0.31653342608E-01 -0.22891593392E-01  0.32727466048E-01  0.50963784212E-01  0.51100000000E-03 0. -1.
         11    1    4    4    0    0  0.45805866681E-01 -0.54614757108E-01  0.34790779577E-01  0.79319660747E-01  0.51100000000E-03 0.  1.
</event>
<event>
 8    1  0.1084146E+005  0.1043930E+01  0.7957747E-01            NaN
         13   -1    0    0    0    0  0.00000000000E+00  0.00000000000E+00  0.74505805969E-08  0.10566000000E+00  0.10566000000E+00 0. -1.
     999900   -1    0    0    0    0 -0.00000000000E+00 -0.00000000000E+00 -0.74505805969E-08  0.93827000000E+00  0.93827000000E+00 0.  1.
     999902    2    1    2    0    0  0.23833192103E-01  0.43091546850E-02 -0.62505486988E-02  0.10189168191E+01  0.10186097511E+01 0.  0.
     999903    2    3    3    0    0  0.13300841812E-01 -0.10875025528E+00  0.64810116236E-01  0.12878032468E+00  0.19506164238E-01 0.  0.
         14    1    1    2    0    0 -0.23833192103E-01 -0.43091546850E-02  0.62505486988E-02  0.25013180905E-01  0.00000000000E+00 0. -1.
     999901    1    3    3    0    0  0.10532350291E-01  0.11305940996E+00 -0.71060664935E-01  0.89013649441E+00  0.88000000000E+00 0.  1.
        -11    1    4    4    0    0 -0.37431060429E-02 -0.43428230332E-01  0.29030209909E-01  0.52374003484E-01  0.51100000000E-03 0. -1.
         11    1    4    4    0    0  0.17043947855E-01 -0.65322024944E-01  0.35779906327E-01  0.76406321199E-01  0.51100000000E-03 0.  1.
</event>
<event>
 8    1  0.1084146E+005  0.1043930E+01  0.7957747E-01            NaN
         13   -1    0    0    0    0  0.00000000000E+00  0.00000000000E+00  0.74505805969E-08  0.10566000000E+00  0.10566000000E+00 0.  1.
     999900   -1    0    0    0    0 -0.00000000000E+00 -0.00000000000E+00 -0.74505805969E-08  0.93827000000E+00  0.93827000000E+00 0. -1.
     999902    2    1    2    0    0  0.95466106421E-02 -0.20748706645E-01 -0.65244061253E-02  0.10201768007E+01  0.10199002354E+01 0.  0.
     999903    2    3    3    0    0 -0.29679385522E-01 -0.71112383868E-01 -0.10555483174E+00  0.13232422061E+00  0.20737400805E-01 0.  0.
         14    1    1    2    0    0 -0.95466106421E-02  0.20748706645E-01  0.65244061253E-02  0.23753199311E-01  0.00000000000E+00 0.  1.
     999901    1    3    3    0    0  0.39225996164E-01  0.50363677223E-01  0.99030425613E-01  0.88785258008E+00  0.88000000000E+00 0.  1.
        -11    1    4    4    0    0 -0.23293117110E-01 -0.56036448284E-01 -0.95350941267E-01  0.11302528904E+00  0.51100000000E-03 0. -1.
         11    1    4    4    0    0 -0.63862684119E-02 -0.15075935584E-01 -0.10203890471E-01  0.19298931569E-01  0.51100000000E-03 0.  1.
</event>
<event>
 8    1  0.1084146E+005  0.1043930E+01  0.7957747E-01            NaN
         13   -1    0    0    0    0  0.00000000000E+00  0.00000000000E+00  0.74505805969E-08  0.10566000000E+00  0.10566000000E+00 0. -1.
     999900   -1    0    0    0    0 -0.00000000000E+00 -0.00000000000E+00 -0.74505805969E-08  0.93827000000E+00  0.93827000000E+00 0.  1.
     999902    2    1    2    0    0  0.29027561695E-02  0.20220773095E-01 -0.11989292315E-01  0.10202435315E+01  0.10199685362E+01 0.  0.
     999903    2    3    3    0    0 -0.41770286225E-02  0.88596536189E-01  0.93601700447E-01  0.13126950150E+00  0.24568473801E-01 0.  0.
         14    1    1    2    0    0 -0.29027561695E-02 -0.20220773095E-01  0.11989292315E-01  0.23686468461E-01  0.00000000000E+00 0. -1.
     999901    1    3    3    0    0  0.70797847920E-02 -0.68375763094E-01 -0.10559099276E+00  0.88897403004E+00  0.88000000000E+00 0.  1.
        -11    1    4    4    0    0 -0.10800646912E-01  0.81651918823E-01  0.85219570814E-01  0.11851719787E+00  0.51100000000E-03 0.  1.
         11    1    4    4    0    0  0.66236182895E-02  0.69446173652E-02  0.83821296326E-02  0.12752303626E-01  0.51100000000E-03 0. -1.
</event>
<event>
 8    1  0.1253027E+005  0.1043930E+01  0.7957747E-01            NaN
         13   -1    0    0    0    0  0.00000000000E+00  0.00000000000E+00  0.74505805969E-08  0.10566000000E+00  0.10566000000E+00 0.  1.
     999900   -1    0    0    0    0 -0.00000000000E+00 -0.00000000000E+00 -0.74505805969E-08  0.93827000000E+00  0.93827000000E+00 0. -1.
     999902    2    1    2    0    0  0.23142335038E-02  0.22252714360E-01 -0.83169586868E-02  0.10200613851E+01  0.10197820937E+01 0.  0.
     999903    2    3    3    0    0 -0.50105773449E-01  0.14139630566E-01 -0.11905841770E+00  0.13153600566E+00  0.20403339781E-01 0.  0.
         14    1    1    2    0    0 -0.23142335038E-02 -0.22252714360E-01  0.83169586868E-02  0.23868614851E-01  0.00000000000E+00 0. -1.
     999901    1    3    3    0    0  0.52420006953E-01  0.81130837942E-02  0.11074145901E+00  0.88852537949E+00  0.88000000000E+00 0.  1.
        -11    1    4    4    0    0 -0.40588956596E-01  0.82918200513E-02 -0.71090327355E-01  0.82281914427E-01  0.51100000000E-03 0.  1.
         11    1    4    4    0    0 -0.95168168529E-02  0.58478105146E-02 -0.47968090342E-01  0.49254091230E-01  0.51100000000E-03 0. -1.
</event>
<event>
 8    1  0.1084146E+005  0.1043930E+01  0.7957747E-01            NaN
         13   -1    0    0    0    0  0.00000000000E+00  0.00000000000E+00  0.74505805969E-08  0.10566000000E+00  0.10566000000E+00 0.  1.
     999900   -1    0    0    0    0 -0.00000000000E+00 -0.00000000000E+00 -0.74505805969E-08  0.93827000000E+00  0.93827000000E+00 0.  1.
     999902    2    1    2    0    0  0.27076709550E-02 -0.19797313037E-02 -0.23411684146E-01  0.10202792543E+01  0.10200050975E+01 0.  0.
     999903    2    3    3    0    0  0.68633875198E-01  0.10925083922E+00 -0.70053128734E-02  0.13067952787E+00  0.19537397524E-01 0.  0.
         14    1    1    2    0    0 -0.27076709550E-02  0.19797313037E-02  0.23411684146E-01  0.23650745709E-01  0.00000000000E+00 0.  1.
     999901    1    3    3    0    0 -0.65926204243E-01 -0.11123057052E+00 -0.16406371273E-01  0.88959972642E+00  0.88000000000E+00 0.  1.
        -11    1    4    4    0    0  0.30120041522E-01  0.59741168527E-01 -0.11087383827E-01  0.67818989372E-01  0.51100000000E-03 0.  1.
         11    1    4    4    0    0  0.38513833676E-01  0.49509670691E-01  0.40820709536E-02  0.62860538501E-01  0.51100000000E-03 0. -1.
</event>
<event>
 8    1  0.1084146E+005  0.1043930E+01  0.7957747E-01            NaN
         13   -1    0    0    0    0  0.00000000000E+00  0.00000000000E+00  0.74505805969E-08  0.10566000000E+00  0.10566000000E+00 0.  1.
     999900   -1    0    0    0    0 -0.00000000000E+00 -0.00000000000E+00 -0.74505805969E-08  0.93827000000E+00  0.93827000000E+00 0. -1.
     999902    2    1    2    0    0  0.14758368603E-01  0.14634390920E-01  0.10564200662E-01  0.10206152584E+01  0.10203489249E+01 0.  0.
     999903    2    3    3    0    0 -0.84058322787E-02 -0.95178019556E-02 -0.12707262431E+00  0.12928826775E+00  0.20168236379E-01 0.  0.
         14    1    1    2    0    0 -0.14758368603E-01 -0.14634390920E-01 -0.10564200662E-01  0.23314741625E-01  0.00000000000E+00 0.  1.
     999901    1    3    3    0    0  0.23164200882E-01  0.24152192876E-01  0.13763682497E+00  0.89132699062E+00  0.88000000000E+00 0.  1.
        -11    1    4    4    0    0 -0.11163007133E-01 -0.18071673766E-02 -0.10709298674E+00  0.10768958869E+00  0.51100000000E-03 0.  1.
         11    1    4    4    0    0  0.27571748544E-02 -0.77106345790E-02 -0.19979637574E-01  0.21598679066E-01  0.51100000000E-03 0. -1.
</event>
<event>
 8    1  0.1084146E+005  0.1043930E+01  0.7957747E-01            NaN
         13   -1    0    0    0    0  0.00000000000E+00  0.00000000000E+00  0.74505805969E-08  0.10566000000E+00  0.10566000000E+00 0. -1.
     999900   -1    0    0    0    0 -0.00000000000E+00 -0.00000000000E+00 -0.74505805969E-08  0.93827000000E+00  0.93827000000E+00 0. -1.
     999902    2    1    2    0    0 -0.20113735723E-02 -0.23221410028E-01  0.38290154118E-02  0.10203092281E+01  0.10200357739E+01 0.  0.
     999903    2    3    3    0    0  0.50237399974E-01  0.11318370913E+00 -0.24737620838E-01  0.12781141655E+00  0.19734739609E-01 0.  0.
         14    1    1    2    0    0  0.20113735723E-02  0.23221410028E-01 -0.38290154118E-02  0.23620771926E-01  0.00000000000E+00 0.  1.
     999901    1    3    3    0    0 -0.52248773546E-01 -0.13640511916E+00  0.28566636250E-01  0.89249781152E+00  0.88000000000E+00 0.  1.
        -11    1    4    4    0    0  0.22245174590E-01  0.28336169376E-01 -0.61050944135E-02  0.36542024934E-01  0.51100000000E-03 0.  1.
         11    1    4    4    0    0  0.27992225384E-01  0.84847539752E-01 -0.18632526425E-01  0.91269391616E-01  0.51100000000E-03 0. -1.
</event>
<event>
 8    1  0.1084146E+005  0.1043930E+01  0.7957747E-01            NaN
         13   -1    0    0    0    0  0.00000000000E+00  0.00000000000E+00  0.74505805969E-08  0.10566000000E+00  0.10566000000E+00 0.  1.
     999900   -1    0    0    0    0 -0.00000000000E+00 -0.00000000000E+00 -0.74505805969E-08  0.93827000000E+00  0.93827000000E+00 0. -1.
     999902    2    1    2    0    0 -0.19455375257E-01 -0.92473226363E-02  0.75524694122E-02  0.10211031650E+01  0.10208479853E+01 0.  0.
     999903    2    3    3    0    0  0.14075360244E-01 -0.47471961710E-02  0.12968977020E+00  0.13202382005E+00  0.19753504226E-01 0.  0.
         14    1    1    2    0    0  0.19455375257E-01  0.92473226363E-02 -0.75524694122E-02  0.22826835010E-01  0.00000000000E+00 0. -1.
     999901    1    3    3    0    0 -0.33530735501E-01 -0.45001264653E-02 -0.12213730078E+00  0.88907934494E+00  0.88000000000E+00 0. -1.
        -11    1    4    4    0    0  0.11616587428E-01 -0.11456491596E-01  0.68596781967E-01  0.70512239508E-01  0.51100000000E-03 0. -1.
         11    1    4    4    0    0  0.24587728152E-02  0.67092954249E-02  0.61092988228E-01  0.61511580540E-01  0.51100000000E-03 0.  1.
</event>
<event>
 7    1  0.1084146E+005  0.1043930E+01  0.7957747E-01            NaN
         13   -1    0    0    0    0  0.00000000000E+00  0.00000000000E+00  0.74505805969E-08  0.10566000000E+00  0.10566000000E+00 0.  1.
     999900   -1    0    0    0    0 -0.00000000000E+00 -0.00000000000E+00 -0.74505805969E-08  0.93827000000E+00  0.93827000000E+00 0. -1.
     999903    2    1    2    0    0 -0.71691716674E-01 -0.75405634376E-01 -0.44083983768E-01  0.11454553726E+00  0.18750214542E-01 0.  0.
         14    1    1    2    0    0  0.12853814431E-01 -0.50110288870E-02  0.41525650249E-01  0.43757406053E-01  0.00000000000E+00 0.  1.
     999901    1    1    2    0    0  0.58837902243E-01  0.80416663263E-01  0.25583335196E-02  0.88562705669E+00  0.88000000000E+00 0.  1.
        -11    1    3    3    0    0 -0.11482447082E-01 -0.20352810675E-01 -0.15726311340E-01  0.28171998203E-01  0.51100000000E-03 0.  1.
         11    1    3    3    0    0 -0.60209269592E-01 -0.55052823701E-01 -0.28357672428E-01  0.86373539054E-01  0.51100000000E-03 0. -1.
</event>
<event>
 8    1  0.1084146E+005  0.1043930E+01  0.7957747E-01            NaN
         13   -1    0    0    0    0  0.00000000000E+00  0.00000000000E+00  0.74505805969E-08  0.10566000000E+00  0.10566000000E+00 0. -1.
     999900   -1    0    0    0    0 -0.00000000000E+00 -0.00000000000E+00 -0.74505805969E-08  0.93827000000E+00  0.93827000000E+00 0.  1.
     999902    2    1    2    0    0 -0.16445883950E-01 -0.15185244155E-01  0.71858867691E-02  0.10204205188E+01  0.10201496652E+01 0.  0.
     999903    2    3    3    0    0 -0.12509984466E+00  0.31082652459E-01  0.23255039051E-01  0.13238638706E+00  0.19216040647E-01 0.  0.
         14    1    1    2    0    0  0.16445883950E-01  0.15185244155E-01 -0.71858867691E-02  0.23509481228E-01  0.00000000000E+00 0.  1.
     999901    1    3    3    0    0  0.10865396071E+00 -0.46267896613E-01 -0.16069152282E-01  0.88803413171E+00  0.88000000000E+00 0.  1.
        -11    1    4    4    0    0 -0.11075543292E+00  0.30323053719E-01  0.14992320720E-01  0.11580709957E+00  0.51100000000E-03 0.  1.
         11    1    4    4    0    0 -0.14344411739E-01  0.75959873940E-03  0.82627183312E-02  0.16579287488E-01  0.51100000000E-03 0. -1.
</event>
<event>
 8    1  0.1084146E+005  0.1043930E+01  0.7957747E-01            NaN
         13   -1    0    0    0    0  0.00000000000E+00  0.00000000000E+00  0.74505805969E-08  0.10566000000E+00  0.10566000000E+00 0.  1.
     999900   -1    0    0    0    0 -0.00000000000E+00 -0.00000000000E+00 -0.74505805969E-08  0.93827000000E+00  0.93827000000E+00 0. -1.
     999902    2    1    2    0    0  0.18910211483E-01 -0.92105776502E-02 -0.30518880999E-02  0.10226757096E+01  0.10224548216E+01 0.  0.
     999903    2    3    3    0    0 -0.26783912312E-01 -0.42768131599E-01  0.12054145280E+00  0.13223235021E+00  0.20215379292E-01 0.  0.
         14    1    1    2    0    0 -0.18910211483E-01  0.92105776502E-02  0.30518880999E-02  0.21254290390E-01  0.00000000000E+00 0.  1.
     999901    1    3    3    0    0  0.45694123796E-01  0.33557553949E-01 -0.12359334090E+00  0.89044335940E+00  0.88000000000E+00 0. -1.
        -11    1    4    4    0    0 -0.32748472536E-02 -0.19788806089E-01  0.31852282230E-01  0.37645059108E-01  0.51100000000E-03 0.  1.
         11    1    4    4    0    0 -0.23509065059E-01 -0.22979325510E-01  0.88689170574E-01  0.94587291107E-01  0.51100000000E-03 0. -1.
</event>
<event>
 8    1  0.1084146E+005  0.1043930E+01  0.7957747E-01            NaN
         13   -1    0    0    0    0  0.00000000000E+00  0.00000000000E+00  0.74505805969E-08  0.10566000000E+00  0.10566000000E+00 0.  1.
     999900   -1    0    0    0    0 -0.00000000000E+00 -0.00000000000E+00 -0.74505805969E-08  0.93827000000E+00  0.93827000000E+00 0. -1.
     999902    2    1    2    0    0 -0.17931446327E-01  0.15070293441E-01  0.32289546512E-02  0.10202851980E+01  0.10200111807E+01 0.  0.
     999903    2    3    3    0    0  0.89050959806E-03 -0.48477106149E-01  0.11911162581E+00  0.13021703689E+00  0.20446869325E-01 0.  0.
         14    1    1    2    0    0  0.17931446327E-01 -0.15070293441E-01 -0.32289546512E-02  0.23644801964E-01  0.00000000000E+00 0.  1.
     999901    1    3    3    0    0 -0.18821955926E-01  0.63547399590E-01 -0.11588267115E+00  0.89006816115E+00  0.88000000000E+00 0. -1.
        -11    1    4    4    0    0 -0.55042825881E-02 -0.12041184587E-01  0.51148383347E-01  0.52836592368E-01  0.51100000000E-03 0.  1.
         11    1    4    4    0    0  0.63947921861E-02 -0.36435921562E-01  0.67963242459E-01  0.77380444518E-01  0.51100000000E-03 0. -1.
</event>
<event>
 8    1  0.1084146E+005  0.1043930E+01  0.7957747E-01            NaN
         13   -1    0    0    0    0  0.00000000000E+00  0.00000000000E+00  0.74505805969E-08  0.10566000000E+00  0.10566000000E+00 0.  1.
     999900   -1    0    0    0    0 -0.00000000000E+00 -0.00000000000E+00 -0.74505805969E-08  0.93827000000E+00  0.93827000000E+00 0. -1.
     999902    2    1    2    0    0  0.79675228394E-02  0.10542519652E-01  0.18541145008E-01  0.10211615965E+01  0.10209077362E+01 0.  0.
     999903    2    3    3    0    0  0.12611350524E+00  0.21892438546E-01  0.31142252158E-01  0.13310411989E+00  0.19051818622E-01 0.  0.
         14    1    1    2    0    0 -0.79675228394E-02 -0.10542519652E-01 -0.18541145008E-01  0.22768403524E-01  0.00000000000E+00 0. -1.
     999901    1    3    3    0    0 -0.11814598240E+00 -0.11349918894E-01 -0.12601107150E-01  0.88805747658E+00  0.88000000000E+00 0. -1.
        -11    1    4    4    0    0  0.53554616222E-01  0.10529005762E-01  0.22923720274E-01  0.59200633048E-01  0.51100000000E-03 0. -1.
         11    1    4    4    0    0  0.72558889019E-01  0.11363432784E-01  0.82185318845E-02  0.73903486844E-01  0.51100000000E-03 0.  1.
</event>
<event>
 8    1  0.1084146E+005  0.1043930E+01  0.7957747E-01            NaN
         13   -1    0    0    0    0  0.00000000000E+00  0.00000000000E+00  0.74505805969E-08  0.10566000000E+00  0.10566000000E+00 0. -1.
     999900   -1    0    0    0    0 -0.00000000000E+00 -0.00000000000E+00 -0.74505805969E-08  0.93827000000E+00  0.93827000000E+00 0. -1.
     999902    2    1    2    0    0 -0.76568615475E-02 -0.21984653661E-01 -0.72547033188E-02  0.10195459223E+01  0.10192542884E+01 0.  0.
     999903    2    3    3    0    0  0.73057353588E-01 -0.10434768471E+00 -0.27339742764E-01  0.13179490865E+00  0.19915325609E-01 0.  0.
         14    1    1    2    0    0  0.76568615475E-02  0.21984653661E-01  0.72547033188E-02  0.24384077707E-01  0.00000000000E+00 0. -1.
     999901    1    3    3    0    0 -0.80714215135E-01  0.82363031053E-01  0.20085039445E-01  0.88775101364E+00  0.88000000000E+00 0. -1.
        -11    1    4    4    0    0  0.40175582134E-01 -0.49720050847E-01 -0.22806046259E-01  0.67871479452E-01  0.51100000000E-03 0. -1.
         11    1    4    4    0    0  0.32881771453E-01 -0.54627633867E-01 -0.45336965050E-02  0.63923429201E-01  0.51100000000E-03 0.  1.
</event>
<event>
 8    1  0.1084146E+005  0.1043930E+01  0.7957747E-01            NaN
         13   -1    0    0    0    0  0.00000000000E+00  0.00000000000E+00  0.74505805969E-08  0.10566000000E+00  0.10566000000E+00 0.  1.
     999900   -1    0    0    0    0 -0.00000000000E+00 -0.00000000000E+00 -0.74505805969E-08  0.93827000000E+00  0.93827000000E+00 0. -1.
     999902    2    1    2    0    0  0.12007645713E-01 -0.19891625948E-01 -0.64173079312E-02  0.10198251835E+01  0.10195402703E+01 0.  0.
     999903    2    3    3    0    0 -0.15485121333E-01 -0.12998776470E+00  0.16758578134E-02  0.13250195526E+00  0.20429187322E-01 0.  0.
         14    1    1    2    0    0 -0.12007645713E-01  0.19891625948E-01  0.64173079312E-02  0.24104816520E-01  0.00000000000E+00 0.  1.
     999901    1    3    3    0    0  0.27492767046E-01  0.11009613875E+00 -0.80931657446E-02  0.88732322822E+00  0.88000000000E+00 0. -1.
        -11    1    4    4    0    0 -0.95511460554E-02 -0.90924862696E-01  0.10460121879E-01  0.92022987986E-01  0.51100000000E-03 0. -1.
         11    1    4    4    0    0 -0.59339752781E-02 -0.39062902001E-01 -0.87842640653E-02  0.40478967273E-01  0.51100000000E-03 0.  1.
</event>
<event>
 8    1  0.1084146E+005  0.1043930E+01  0.7957747E-01            NaN
         13   -1    0    0    0    0  0.00000000000E+00  0.00000000000E+00  0.74505805969E-08  0.10566000000E+00  0.10566000000E+00 0. -1.
     999900   -1    0    0    0    0 -0.00000000000E+00 -0.00000000000E+00 -0.74505805969E-08  0.93827000000E+00  0.93827000000E+00 0. -1.
     999902    2    1    2    0    0 -0.47420071333E-02  0.19820195403E-01  0.10384352620E-01  0.10210572748E+01  0.10208010565E+01 0.  0.
     999903    2    3    3    0    0 -0.46869637732E-01 -0.52047622769E-01  0.10940042278E+00  0.13159457033E+00  0.21046625791E-01 0.  0.
         14    1    1    2    0    0  0.47420071333E-02 -0.19820195403E-01 -0.10384352620E-01  0.22872725172E-01  0.00000000000E+00 0. -1.
     999901    1    3    3    0    0  0.42127630599E-01  0.71867818172E-01 -0.99016070163E-01  0.88946270450E+00  0.88000000000E+00 0. -1.
        -11    1    4    4    0    0 -0.20170550331E-01 -0.34902235296E-01  0.72239402145E-01  0.82727319989E-01  0.51100000000E-03 0. -1.
         11    1    4    4    0    0 -0.26699087401E-01 -0.17145387473E-01  0.37161020638E-01  0.48867250338E-01  0.51100000000E-03 0.  1.
</event>
<event>
 8    1  0.1084146E+005  0.1043930E+01  0.7957747E-01            NaN
         13   -1    0    0    0    0  0.00000000000E+00  0.00000000000E+00  0.74505805969E-08  0.10566000000E+00  0.10566000000E+00 0. -1.
     999900   -1    0    0    0    0 -0.00000000000E+00 -0.00000000000E+00 -0.74505805969E-08  0.93827000000E+00  0.93827000000E+00 0. -1.
     999902    2    1    2    0    0 -0.87444201630E-02 -0.14536319265E-01  0.16674966397E-01  0.10201429454E+01  0.10198655819E+01 0.  0.
     999903    2    3    3    0    0  0.27337668509E-02  0.67895503436E-01 -0.10629537265E+00  0.12770333487E+00  0.19803096273E-01 0.  0.
         14    1    1    2    0    0  0.87444201630E-02  0.14536319265E-01 -0.16674966397E-01  0.23787054591E-01  0.00000000000E+00 0. -1.
     999901    1    3    3    0    0 -0.11478187014E-01 -0.82431822701E-01  0.12297033905E+00  0.89243961054E+00  0.88000000000E+00 0.  1.
        -11    1    4    4    0    0 -0.10508795700E-02  0.65119492044E-01 -0.92551117891E-01  0.11317076979E+00  0.51100000000E-03 0.  1.
         11    1    4    4    0    0  0.37846464209E-02  0.27760113916E-02 -0.13744254761E-01  0.14532565077E-01  0.51100000000E-03 0. -1.
</event>
<event>
 8    1  0.1084146E+005  0.1043930E+01  0.7957747E-01            NaN
         13   -1    0    0    0    0  0.00000000000E+00  0.00000000000E+00  0.74505805969E-08  0.10566000000E+00  0.10566000000E+00 0. -1.
     999900   -1    0    0    0    0 -0.00000000000E+00 -0.00000000000E+00 -0.74505805969E-08  0.93827000000E+00  0.93827000000E+00 0.  1.
     999902    2    1    2    0    0 -0.23349738277E-01 -0.24224516855E-02 -0.21092730983E-02  0.10203603674E+01  0.10200881098E+01 0.  0.
     999903    2    3    3    0    0 -0.30178717341E-01 -0.83454493487E-01  0.95409516631E-01  0.13124690941E+00  0.15727933841E-01 0.  0.
         14    1    1    2    0    0  0.23349738277E-01  0.24224516855E-02  0.21092730983E-02  0.23569632640E-01  0.00000000000E+00 0.  1.
     999901    1    3    3    0    0  0.68289790641E-02  0.81032041802E-01 -0.97518789729E-01  0.88911345795E+00  0.88000000000E+00 0.  1.
        -11    1    4    4    0    0 -0.87183366972E-02 -0.42351572940E-01  0.53045332763E-01  0.68437808075E-01  0.51100000000E-03 0.  1.
         11    1    4    4    0    0 -0.21460380644E-01 -0.41102920547E-01  0.42364183869E-01  0.62809101337E-01  0.51100000000E-03 0. -1.
</event>
<event>
 8    1  0.1084146E+005  0.1043930E+01  0.7957747E-01            NaN
         13   -1    0    0    0    0  0.00000000000E+00  0.00000000000E+00  0.74505805969E-08  0.10566000000E+00  0.10566000000E+00 0.  1.
     999900   -1    0    0    0    0 -0.00000000000E+00 -0.00000000000E+00 -0.74505805969E-08  0.93827000000E+00  0.93827000000E+00 0. -1.
     999902    2    1    2    0    0  0.86951064777E-02 -0.62478513067E-02 -0.21874229121E-01  0.10195758952E+01  0.10192849864E+01 0.  0.
     999903    2    3    3    0    0 -0.59074042474E-01  0.10815373394E+00 -0.34435616329E-01  0.12949827568E+00  0.19925337505E-01 0.  0.
         14    1    1    2    0    0 -0.86951064777E-02  0.62478513067E-02  0.21874229121E-01  0.24354104834E-01  0.00000000000E+00 0.  1.
     999901    1    3    3    0    0  0.67769148952E-01 -0.11440158524E+00  0.12561387208E-01  0.89007761948E+00  0.88000000000E+00 0.  1.
        -11    1    4    4    0    0 -0.44051703840E-01  0.65572421467E-01 -0.15352596933E-01  0.80475203771E-01  0.51100000000E-03 0.  1.
         11    1    4    4    0    0 -0.15022338634E-01  0.42581312468E-01 -0.19083019396E-01  0.49023071913E-01  0.51100000000E-03 0. -1.
</event>
<event>
 8    1  0.1084146E+005  0.1043930E+01  0.7957747E-01            NaN
         13   -1    0    0    0    0  0.00000000000E+00  0.00000000000E+00  0.74505805969E-08  0.10566000000E+00  0.10566000000E+00 0.  1.
     999900   -1    0    0    0    0 -0.00000000000E+00 -0.00000000000E+00 -0.74505805969E-08  0.93827000000E+00  0.93827000000E+00 0.  1.
     999902    2    1    2    0    0 -0.10764400891E-01  0.19943008050E-01  0.53908189550E-02  0.10206350043E+01  0.10203691269E+01 0.  0.
     999903    2    3    3    0    0 -0.67777445336E-01 -0.10907605331E+00  0.13036622628E-01  0.12936912714E+00  0.86631418474E-02 0.  0.
         14    1    1    2    0    0  0.10764400891E-01 -0.19943008050E-01 -0.53908189550E-02  0.23294995721E-01  0.00000000000E+00 0. -1.
     999901    1    3    3    0    0  0.57013044445E-01  0.12901906136E+00 -0.76458036735E-02  0.89126587713E+00  0.88000000000E+00 0.  1.
        -11    1    4    4    0    0 -0.25177242322E-01 -0.44304374065E-01  0.14538195809E-02  0.50981818373E-01  0.51100000000E-03 0. -1.
         11    1    4    4    0    0 -0.42600203014E-01 -0.64771679245E-01  0.11582803048E-01  0.78387308772E-01  0.51100000000E-03 0.  1.
</event>
<event>
 8    1  0.1084146E+005  0.1043930E+01  0.7957747E-01            NaN
         13   -1    0    0    0    0  0.00000000000E+00  0.00000000000E+00  0.74505805969E-08  0.10566000000E+00  0.10566000000E+00 0. -1.
     999900   -1    0    0    0    0 -0.00000000000E+00 -0.00000000000E+00 -0.74505805969E-08  0.93827000000E+00  0.93827000000E+00 0.  1.
     999902    2    1    2    0    0  0.16651261542E-01 -0.18764622955E-02 -0.14482659957E-01  0.10217820190E+01  0.10215419528E+01 0.  0.
     999903    2    3    3    0    0 -0.57122869158E-01  0.10814512607E+00  0.40037863233E-01  0.13019923559E+00  0.19759048136E-01 0.  0.
         14    1    1    2    0    0 -0.16651261542E-01  0.18764622955E-02  0.14482659957E-01  0.22147980972E-01  0.00000000000E+00 0. -1.
     999901    1    3    3    0    0  0.73774130700E-01 -0.11002158837E+00 -0.54520523190E-01  0.89158278343E+00  0.88000000000E+00 0.  1.
        -11    1    4    4    0    0 -0.44551676997E-01  0.90881854618E-01  0.40012627614E-01  0.10883765392E+00  0.51100000000E-03 0. -1.
         11    1    4    4    0    0 -0.12571192161E-01  0.17263271453E-01  0.25235618224E-04  0.21361581670E-01  0.51100000000E-03 0.  1.
</event>
<event>
 8    1  0.1084146E+005  0.1043930E+01  0.7957747E-01            NaN
         13   -1    0    0    0    0  0.00000000000E+00  0.00000000000E+00  0.74505805969E-08  0.10566000000E+00  0.10566000000E+00 0. -1.
     999900   -1    0    0    0    0 -0.00000000000E+00 -0.00000000000E+00 -0.74505805969E-08  0.93827000000E+00  0.93827000000E+00 0.  1.
     999902    2    1    2    0    0 -0.38515171332E-02  0.23289282590E-01 -0.51879851099E-02  0.10197610104E+01  0.10194745599E+01 0.  0.
     999903    2    3    3    0    0  0.37212625717E-01 -0.48645127054E-01  0.11093909086E+00  0.12827555294E+00  0.19899942316E-01 0.  0.
         14    1    1    2    0    0  0.38515171332E-02 -0.23289282590E-01  0.51879851099E-02  0.24168989580E-01  0.00000000000E+00 0. -1.
     999901    1    3    3    0    0 -0.41064142850E-01  0.71934409644E-01 -0.11612707597E+00  0.89148545748E+00  0.88000000000E+00 0.  1.
        -11    1    4    4    0    0  0.31514975798E-01 -0.46117123969E-01  0.10747915895E+00  0.12112808738E+00  0.51100000000E-03 0.  1.
         11    1    4    4    0    0  0.56976499190E-02 -0.25280030842E-02  0.34599319075E-02  0.71474655646E-02  0.51100000000E-03 0. -1.
</event>
<event>
 8    1  0.1084146E+005  0.1043930E+01  0.7957747E-01            NaN
         13   -1    0    0    0    0  0.00000000000E+00  0.00000000000E+00  0.74505805969E-08  0.10566000000E+00  0.10566000000E+00 0. -1.
     999900   -1    0    0    0    0 -0.00000000000E+00 -0.00000000000E+00 -0.74505805969E-08  0.93827000000E+00  0.93827000000E+00 0. -1.
     999902    2    1    2    0    0 -0.25900112273E-02  0.96207103256E-02  0.21940298163E-01  0.10198334669E+01  0.10195487518E+01 0.  0.
     999903    2    3    3    0    0  0.10359251190E-01  0.50666631048E-01  0.12092763457E+00  0.13323832602E+00  0.21319876429E-01 0.  0.
         14    1    1    2    0    0  0.25900112273E-02 -0.96207103256E-02 -0.21940298163E-01  0.24096533129E-01  0.00000000000E+00 0. -1.
     999901    1    3    3    0    0 -0.12949262417E-01 -0.41045920722E-01 -0.98987336411E-01  0.88659514085E+00  0.88000000000E+00 0. -1.
        -11    1    4    4    0    0  0.15376588100E-01  0.33389032817E-01  0.67523034460E-01  0.76882301459E-01  0.51100000000E-03 0. -1.
         11    1    4    4    0    0 -0.50173369103E-02  0.17277598231E-01  0.53404600115E-01  0.56356024564E-01  0.51100000000E-03 0.  1.
</event>
<event>
 8    1  0.1084146E+005  0.1043930E+01  0.7957747E-01            NaN
         13   -1    0    0    0    0  0.00000000000E+00  0.00000000000E+00  0.74505805969E-08  0.10566000000E+00  0.10566000000E+00 0.  1.
     999900   -1    0    0    0    0 -0.00000000000E+00 -0.00000000000E+00 -0.74505805969E-08  0.93827000000E+00  0.93827000000E+00 0.  1.
     999902    2    1    2    0    0 -0.19974214729E-01 -0.14052802063E-01 -0.74432571822E-02  0.10183985963E+01  0.10180785079E+01 0.  0.
     999903    2    3    3    0    0  0.99592944377E-01  0.65804753325E-01 -0.35895946963E-01  0.12627579627E+00  0.20199940249E-01 0.  0.
         14    1    1    2    0    0  0.19974214729E-01  0.14052802063E-01  0.74432571822E-02  0.25531403748E-01  0.00000000000E+00 0.  1.
     999901    1    3    3    0    0 -0.11956715911E+00 -0.79857555387E-01  0.28452689780E-01  0.89212279998E+00  0.88000000000E+00 0. -1.
        -11    1    4    4    0    0  0.79194216129E-01  0.56412493901E-01 -0.21458204656E-01  0.99573133949E-01  0.51100000000E-03 0. -1.
         11    1    4    4    0    0  0.20398728248E-01  0.93922594235E-02 -0.14437742307E-01  0.26702662323E-01  0.51100000000E-03 0.  1.
</event>
<event>
 8    1  0.1084146E+005  0.1043930E+01  0.7957747E-01            NaN
         13   -1    0    0    0    0  0.00000000000E+00  0.00000000000E+00  0.74505805969E-08  0.10566000000E+00  0.10566000000E+00 0. -1.
     999900   -1    0    0    0    0 -0.00000000000E+00 -0.00000000000E+00 -0.74505805969E-08  0.93827000000E+00  0.93827000000E+00 0.  1.
     999902    2    1    2    0    0  0.73567557081E-02 -0.71337029617E-02  0.21437933954E-01  0.10201687588E+01  0.10198920040E+01 0.  0.
     999903    2    3    3    0    0 -0.64346810737E-02  0.90836048453E-01 -0.87863564054E-01  0.12790473205E+00  0.18628520402E-01 0.  0.
         14    1    1    2    0    0 -0.73567557081E-02  0.71337029617E-02 -0.21437933954E-01  0.23761241229E-01  0.00000000000E+00 0.  1.
     999901    1    3    3    0    0  0.13791436782E-01 -0.97969751415E-01  0.10930149801E+00  0.89226402673E+00  0.88000000000E+00 0. -1.
        -11    1    4    4    0    0  0.52039374403E-02  0.15261681752E-01 -0.19739845127E-01  0.25493577650E-01  0.51100000000E-03 0.  1.
         11    1    4    4    0    0 -0.11638618514E-01  0.75574366701E-01 -0.68123718928E-01  0.10241115440E+00  0.51100000000E-03 0. -1.
</event>
<event>
 8    1  0.1084146E+005  0.1043930E+01  0.7957747E-01            NaN
         13   -1    0    0    0    0  0.00000000000E+00  0.00000000000E+00  0.74505805969E-08  0.10566000000E+00  0.10566000000E+00 0. -1.
     999900   -1    0    0    0    0 -0.00000000000E+00 -0.00000000000E+00 -0.74505805969E-08  0.93827000000E+00  0.93827000000E+00 0. -1.
     999902    2    1    2    0    0 -0.19240867666E-01  0.84721334185E-02 -0.39115174433E-02  0.10225457067E+01  0.10223220795E+01 0.  0.
     999903    2    3    3    0    0 -0.64144444436E-01  0.11042876975E+00 -0.38370095914E-01  0.13485269636E+00  0.20098818723E-01 0.  0.
         14    1    1    2    0    0  0.19240867666E-01 -0.84721334185E-02  0.39115174433E-02  0.21384293346E-01  0.00000000000E+00 0.  1.
     999901    1    3    3    0    0  0.44903576770E-01 -0.10195663633E+00  0.34458578471E-01  0.88769301030E+00  0.88000000000E+00 0. -1.
        -11    1    4    4    0    0 -0.20251126448E-01  0.22439959224E-01 -0.15162687517E-01  0.33820527881E-01  0.51100000000E-03 0.  1.
         11    1    4    4    0    0 -0.43893317989E-01  0.87988810525E-01 -0.23207408397E-01  0.10103216848E+00  0.51100000000E-03 0. -1.
</event>
<event>
 8    1  0.1084146E+005  0.1043930E+01  0.7957747E-01            NaN
         13   -1    0    0    0    0  0.00000000000E+00  0.00000000000E+00  0.74505805969E-08  0.10566000000E+00  0.10566000000E+00 0.  1.
     999900   -1    0    0    0    0 -0.00000000000E+00 -0.00000000000E+00 -0.74505805969E-08  0.93827000000E+00  0.93827000000E+00 0.  1.
     999902    2    1    2    0    0 -0.66065838268E-02  0.15437367335E-01 -0.16883634504E-01  0.10201178944E+01  0.10198399394E+01 0.  0.
     999903    2    3    3    0    0  0.11490702544E+00 -0.29540079954E-01 -0.49391509165E-01  0.13003627457E+00  0.19841136783E-01 0.  0.
         14    1    1    2    0    0  0.66065838268E-02 -0.15437367335E-01  0.16883634504E-01  0.23812105622E-01  0.00000000000E+00 0.  1.
     999901    1    3    3    0    0 -0.12151360926E+00  0.44977447289E-01  0.32507874662E-01  0.89008161981E+00  0.88000000000E+00 0.  1.
        -11    1    4    4    0    0  0.36978056747E-02 -0.22617398608E-02  0.16530167880E-02  0.46672068207E-02  0.51100000000E-03 0. -1.
         11    1    4    4    0    0  0.11120921976E+00 -0.27278340093E-01 -0.51044525953E-01  0.12536906775E+00  0.51100000000E-03 0.  1.
</event>
<event>
 8    1  0.1084146E+005  0.1043930E+01  0.7957747E-01            NaN
         13   -1    0    0    0    0  0.00000000000E+00  0.00000000000E+00  0.74505805969E-08  0.10566000000E+00  0.10566000000E+00 0.  1.
     999900   -1    0    0    0    0 -0.00000000000E+00 -0.00000000000E+00 -0.74505805969E-08  0.93827000000E+00  0.93827000000E+00 0. -1.
     999902    2    1    2    0    0  0.15908211557E-01 -0.11782690520E-01 -0.14098058326E-01  0.10196265385E+01  0.10193368530E+01 0.  0.
     999903    2    3    3    0    0  0.94003750162E-02  0.22805437832E-01 -0.12770900141E+00  0.13162533529E+00  0.20178820702E-01 0.  0.
         14    1    1    2    0    0 -0.15908211557E-01  0.11782690520E-01  0.14098058326E-01  0.24303461470E-01  0.00000000000E+00 0. -1.
     999901    1    3    3    0    0  0.65078365410E-02 -0.34588128352E-01  0.11361094308E+00  0.88800120324E+00  0.88000000000E+00 0.  1.
        -11    1    4    4    0    0  0.57333537307E-02  0.97141027686E-02 -0.19256505096E-01  0.22322841377E-01  0.51100000000E-03 0.  1.
         11    1    4    4    0    0  0.36670212856E-02  0.13091335063E-01 -0.10845249631E+00  0.10930249392E+00  0.51100000000E-03 0. -1.
</event>
<event>
 8    1  0.1084146E+005  0.1043930E+01  0.7957747E-01            NaN
         13   -1    0    0    0    0  0.00000000000E+00  0.00000000000E+00  0.74505805969E-08  0.10566000000E+00  0.10566000000E+00 0. -1.
     999900   -1    0    0    0    0 -0.00000000000E+00 -0.00000000000E+00 -0.74505805969E-08  0.93827000000E+00  0.93827000000E+00 0. -1.
     999902    2    1    2    0    0  0.23520152486E-02  0.53722507433E-02  0.23222804507E-01  0.10199781378E+01  0.10196968716E+01 0.  0.
     999903    2    3    3    0    0  0.75952853795E-01  0.85094862179E-01 -0.57984917134E-01  0.12960323234E+00  0.20610086118E-01 0.  0.
         14    1    1    2    0    0 -0.23520152486E-02 -0.53722507433E-02 -0.23222804507E-01  0.23951862202E-01  0.00000000000E+00 0.  1.
     999901    1    3    3    0    0 -0.73600838547E-01 -0.79722611436E-01  0.81207721641E-01  0.89037490545E+00  0.88000000000E+00 0.  1.
        -11    1    4    4    0    0  0.36342013225E-01  0.35845293022E-01 -0.36849879166E-01  0.62958729915E-01  0.51100000000E-03 0.  1.
         11    1    4    4    0    0  0.39610840571E-01  0.49249569157E-01 -0.21135037968E-01  0.66644502428E-01  0.51100000000E-03 0. -1.
</event>
<event>
 8    1  0.1084146E+005  0.1043930E+01  0.7957747E-01            NaN
         13   -1    0    0    0    0  0.00000000000E+00  0.00000000000E+00  0.74505805969E-08  0.10566000000E+00  0.10566000000E+00 0.  1.
     999900   -1    0    0    0    0 -0.00000000000E+00 -0.00000000000E+00 -0.74505805969E-08  0.93827000000E+00  0.93827000000E+00 0.  1.
     999902    2    1    2    0    0  0.16618113579E-01  0.19175968417E-01 -0.10545061994E-01  0.10164513211E+01  0.10160798248E+01 0.  0.
     999903    2    3    3    0    0 -0.94846675853E-01  0.36606496604E-01 -0.71117458099E-01  0.12718351114E+00  0.27964712507E-01 0.  0.
         14    1    1    2    0    0 -0.16618113579E-01 -0.19175968417E-01  0.10545061994E-01  0.27478678936E-01  0.00000000000E+00 0.  1.
     999901    1    3    3    0    0  0.11146478943E+00 -0.17430528188E-01  0.60572396105E-01  0.88926780992E+00  0.88000000000E+00 0. -1.
        -11    1    4    4    0    0 -0.89121860477E-01  0.40734618166E-01 -0.68820439649E-01  0.11974359760E+00  0.51100000000E-03 0. -1.
         11    1    4    4    0    0 -0.57248153759E-02 -0.41281215614E-02 -0.22970184500E-02  0.74399135394E-02  0.51100000000E-03 0.  1.
</event>
<event>
 8    1  0.1084146E+005  0.1043930E+01  0.7957747E-01            NaN
         13   -1    0    0    0    0  0.00000000000E+00  0.00000000000E+00  0.74505805969E-08  0.10566000000E+00  0.10566000000E+00 0.  1.
     999900   -1    0    0    0    0 -0.00000000000E+00 -0.00000000000E+00 -0.74505805969E-08  0.93827000000E+00  0.93827000000E+00 0.  1.
     999902    2    1    2    0    0 -0.19491959288E-01 -0.11345938096E-01  0.10560098987E-01  0.10190265368E+01  0.10187221899E+01 0.  0.
     999903    2    3    3    0    0  0.89105008365E-01 -0.90395791591E-01  0.98889050727E-02  0.12883406817E+00  0.19731320917E-01 0.  0.
         14    1    1    2    0    0  0.19491959288E-01  0.11345938096E-01 -0.10560098987E-01  0.24903463188E-01  0.00000000000E+00 0. -1.
     999901    1    3    3    0    0 -0.10859696765E+00  0.79049853496E-01  0.67119391464E-03  0.89019246864E+00  0.88000000000E+00 0.  1.
        -11    1    4    4    0    0  0.87609846106E-01 -0.88493580926E-01  0.65760513216E-02  0.12470005843E+00  0.51100000000E-03 0.  1.
         11    1    4    4    0    0  0.14951622596E-02 -0.19022106653E-02  0.33128537511E-02  0.41340097453E-02  0.51100000000E-03 0. -1.
</event>
<event>
 8    1  0.1084146E+005  0.1043930E+01  0.7957747E-01            NaN
         13   -1    0    0    0    0  0.00000000000E+00  0.00000000000E+00  0.74505805969E-08  0.10566000000E+00  0.10566000000E+00 0.  1.
     999900   -1    0    0    0    0 -0.00000000000E+00 -0.00000000000E+00 -0.74505805969E-08  0.93827000000E+00  0.93827000000E+00 0. -1.
     999902    2    1    2    0    0  0.21531132082E-01 -0.93311987544E-02  0.71860520346E-02  0.10193881936E+01  0.10190927283E+01 0.  0.
     999903    2    3    3    0    0 -0.68619299397E-01  0.51258640793E-03 -0.10574865366E+00  0.12754838276E+00  0.19414973580E-01 0.  0.
         14    1    1    2    0    0 -0.21531132082E-01  0.93311987544E-02 -0.71860520346E-02  0.24541806429E-01  0.00000000000E+00 0. -1.
     999901    1    3    3    0    0  0.90150431479E-01 -0.98437851623E-02  0.11293470569E+00  0.89183981081E+00  0.88000000000E+00 0.  1.
        -11    1    4    4    0    0 -0.34884308991E-01  0.77974712415E-02 -0.42874421615E-01  0.55822869161E-01  0.51100000000E-03 0. -1.
         11    1    4    4    0    0 -0.33734990405E-01 -0.72848848335E-02 -0.62874232043E-01  0.71725513597E-01  0.51100000000E-03 0.  1.
</event>
<event>
 8    1  0.1084146E+005  0.1043930E+01  0.7957747E-01            NaN
         13   -1    0    0    0    0  0.00000000000E+00  0.00000000000E+00  0.74505805969E-08  0.10566000000E+00  0.10566000000E+00 0.  1.
     999900   -1    0    0    0    0 -0.00000000000E+00 -0.00000000000E+00 -0.74505805969E-08  0.93827000000E+00  0.93827000000E+00 0.  1.
     999902    2    1    2    0    0 -0.15465760880E-01  0.16993999592E-01  0.55059078676E-02  0.10203016102E+01  0.10200279776E+01 0.  0.
     999903    2    3    3    0    0  0.39269375459E-02 -0.11814010771E+00 -0.45674621517E-01  0.12830567397E+00  0.20091516499E-01 0.  0.
         14    1    1    2    0    0  0.15465760880E-01 -0.16993999592E-01 -0.55059078676E-02  0.23628389771E-01  0.00000000000E+00 0. -1.
     999901    1    3    3    0    0 -0.19392698425E-01  0.13513410730E+00  0.51180529385E-01  0.89199593626E+00  0.88000000000E+00 0.  1.
        -11    1    4    4    0    0  0.86224563761E-02 -0.24833324146E-01 -0.71437515511E-02  0.27245826273E-01  0.51100000000E-03 0.  1.
         11    1    4    4    0    0 -0.46955188302E-02 -0.93306783563E-01 -0.38530869966E-01  0.10105984770E+00  0.51100000000E-03 0. -1.
</event>
<event>
 8    1  0.1084146E+005  0.1043930E+01  0.7957747E-01            NaN
         13   -1    0    0    0    0  0.00000000000E+00  0.00000000000E+00  0.74505805969E-08  0.10566000000E+00  0.10566000000E+00 0.  1.
     999900   -1    0    0    0    0 -0.00000000000E+00 -0.00000000000E+00 -0.74505805969E-08  0.93827000000E+00  0.93827000000E+00 0. -1.
     999902    2    1    2    0    0  0.14517270789E-01 -0.15810597135E-01  0.77823862198E-02  0.10210981874E+01  0.10208428951E+01 0.  0.
     999903    2    3    3    0    0  0.89356345821E-01 -0.62906206319E-01  0.75047453734E-01  0.13411257707E+00  0.20305557997E-01 0.  0.
         14    1    1    2    0    0 -0.14517270789E-01  0.15810597135E-01 -0.77823862198E-02  0.22831812635E-01  0.00000000000E+00 0. -1.
     999901    1    3    3    0    0 -0.74839075032E-01  0.47095609184E-01 -0.67265067514E-01  0.88698561029E+00  0.88000000000E+00 0. -1.
        -11    1    4    4    0    0  0.75637176920E-02 -0.13455039641E-01  0.12695507793E-01  0.19992122353E-01  0.51100000000E-03 0. -1.
         11    1    4    4    0    0  0.81792628129E-01 -0.49451166678E-01  0.62351945941E-01  0.11412045472E+00  0.51100000000E-03 0.  1.
</event>
<event>
 8    1  0.1084146E+005  0.1043930E+01  0.7957747E-01            NaN
         13   -1    0    0    0    0  0.00000000000E+00  0.00000000000E+00  0.74505805969E-08  0.10566000000E+00  0.10566000000E+00 0.  1.
     999900   -1    0    0    0    0 -0.00000000000E+00 -0.00000000000E+00 -0.74505805969E-08  0.93827000000E+00  0.93827000000E+00 0.  1.
     999902    2    1    2    0    0  0.72960797146E-02 -0.12380179528E-01 -0.18606213916E-01  0.10204205802E+01  0.10201497280E+01 0.  0.
     999903    2    3    3    0    0 -0.95466780481E-01 -0.83185802893E-01  0.25546861697E-01  0.13051994762E+00  0.18682360803E-01 0.  0.
         14    1    1    2    0    0 -0.72960797146E-02  0.12380179528E-01  0.18606213916E-01  0.23509419828E-01  0.00000000000E+00 0. -1.
     999901    1    3    3    0    0  0.10276286020E+00  0.70805623365E-01 -0.44153075613E-01  0.88990063255E+00  0.88000000000E+00 0.  1.
        -11    1    4    4    0    0 -0.22033431327E-01 -0.21350195214E-01 -0.16830206671E-02  0.30731036613E-01  0.51100000000E-03 0.  1.
         11    1    4    4    0    0 -0.73433349153E-01 -0.61835607679E-01  0.27229882364E-01  0.99788911004E-01  0.51100000000E-03 0. -1.
</event>
<event>
 8    1  0.1084146E+005  0.1043930E+01  0.7957747E-01            NaN
         13   -1    0    0    0    0  0.00000000000E+00  0.00000000000E+00  0.74505805969E-08  0.10566000000E+00  0.10566000000E+00 0.  1.
     999900   -1    0    0    0    0 -0.00000000000E+00 -0.00000000000E+00 -0.74505805969E-08  0.93827000000E+00  0.93827000000E+00 0. -1.
     999902    2    1    2    0    0  0.11183709330E-01 -0.12432393268E-01 -0.18292858030E-01  0.10191455611E+01  0.10188441521E+01 0.  0.
     999903    2    3    3    0    0 -0.56296213077E-01  0.62642121009E-01  0.92160403480E-01  0.12651481684E+00  0.20473396851E-01 0.  0.
         14    1    1    2    0    0 -0.11183709330E-01  0.12432393268E-01  0.18292858030E-01  0.24784438901E-01  0.00000000000E+00 0.  1.
     999901    1    3    3    0    0  0.67479922408E-01 -0.75074514276E-01 -0.11045326151E+00  0.89263074426E+00  0.88000000000E+00 0. -1.
        -11    1    4    4    0    0 -0.27665202306E-01  0.45627273285E-01  0.57298035155E-01  0.78297748625E-01  0.51100000000E-03 0. -1.
         11    1    4    4    0    0 -0.28631010772E-01  0.17014847723E-01  0.34862368325E-01  0.48217068213E-01  0.51100000000E-03 0.  1.
</event>
<event>
 8    1  0.1084146E+005  0.1043930E+01  0.7957747E-01            NaN
         13   -1    0    0    0    0  0.00000000000E+00  0.00000000000E+00  0.74505805969E-08  0.10566000000E+00  0.10566000000E+00 0. -1.
     999900   -1    0    0    0    0 -0.00000000000E+00 -0.00000000000E+00 -0.74505805969E-08  0.93827000000E+00  0.93827000000E+00 0.  1.
     999902    2    1    2    0    0 -0.19684523609E-01  0.22720978741E-02  0.13770527146E-01  0.10197997220E+01  0.10195141994E+01 0.  0.
     999903    2    3    3    0    0 -0.11783347336E+00  0.56223848335E-01  0.11322568811E-01  0.13269769844E+00  0.20847782629E-01 0.  0.
         14    1    1    2    0    0  0.19684523609E-01 -0.22720978741E-02 -0.13770527146E-01  0.24130277999E-01  0.00000000000E+00 0. -1.
     999901    1    3    3    0    0  0.98148949748E-01 -0.53951750461E-01  0.24479583352E-02  0.88710202357E+00  0.88000000000E+00 0.  1.
        -11    1    4    4    0    0 -0.22635822034E-01  0.20195991584E-01  0.59789973055E-03  0.30345957231E-01  0.51100000000E-03 0.  1.
         11    1    4    4    0    0 -0.95197651323E-01  0.36027856751E-01  0.10724669080E-01  0.10235174120E+00  0.51100000000E-03 0. -1.
</event>
<event>
 8    1  0.1084146E+005  0.1043930E+01  0.7957747E-01            NaN
         13   -1    0    0    0    0  0.00000000000E+00  0.00000000000E+00  0.74505805969E-08  0.10566000000E+00  0.10566000000E+00 0.  1.
     999900   -1    0    0    0    0 -0.00000000000E+00 -0.00000000000E+00 -0.74505805969E-08  0.93827000000E+00  0.93827000000E+00 0.  1.
     999902    2    1    2    0    0 -0.53884429097E-04  0.21701530062E-01  0.74604619659E-02  0.10209818453E+01  0.10207239150E+01 0.  0.
     999903    2    3    3    0    0  0.66089074977E-01  0.11274559415E+00  0.19092125062E-01  0.13373937098E+00  0.21032719249E-01 0.  0.
         14    1    1    2    0    0  0.53884429097E-04 -0.21701530062E-01 -0.74604619659E-02  0.22948154682E-01  0.00000000000E+00 0. -1.
     999901    1    3    3    0    0 -0.66142959406E-01 -0.91044064088E-01 -0.11631663096E-01  0.88724247434E+00  0.88000000000E+00 0. -1.
        -11    1    4    4    0    0  0.33451712438E-01  0.69145298049E-01  0.27005944730E-02  0.76861197225E-01  0.51100000000E-03 0. -1.
         11    1    4    4    0    0  0.32637362540E-01  0.43600296101E-01  0.16391530589E-01  0.56878173754E-01  0.51100000000E-03 0.  1.
</event>
<event>
 7    1  0.1084146E+005  0.1043930E+01  0.7957747E-01            NaN
         13   -1    0    0    0    0  0.00000000000E+00  0.00000000000E+00  0.74505805969E-08  0.10566000000E+00  0.10566000000E+00 0.  1.
     999900   -1    0    0    0    0 -0.00000000000E+00 -0.00000000000E+00 -0.74505805969E-08  0.93827000000E+00  0.93827000000E+00 0.  1.
     999902    2    1    2    0    0 -0.23725640919E-01  0.80338169064E-02  0.86145077977E-03  0.10188662742E+01  0.10185579485E+01 0.  0.
         14    1    1    2    0    0  0.23725640919E-01 -0.80338169064E-02 -0.86145077977E-03  0.25063725752E-01  0.00000000000E+00 0.  1.
     999901    1    3    3    0    0 -0.12451436408E+00  0.33339186002E-01 -0.61997161637E-01  0.89154863930E+00  0.88000000000E+00 0.  1.
        -11    1    3    3    0    0  0.52136440437E-01 -0.92274184760E-02  0.53416019577E-01  0.75212272547E-01  0.51100000000E-03 0. -1.
         11    1    3    3    0    0  0.48652282725E-01 -0.16077950620E-01  0.94425928389E-02  0.52105362402E-01  0.51100000000E-03 0.  1.
</event>
<event>
 7    1  0.1084146E+005  0.1043930E+01  0.7957747E-01            NaN
         13   -1    0    0    0    0  0.00000000000E+00  0.00000000000E+00  0.74505805969E-08  0.10566000000E+00  0.10566000000E+00 0.  1.
     999900   -1    0    0    0    0 -0.00000000000E+00 -0.00000000000E+00 -0.74505805969E-08  0.93827000000E+00  0.93827000000E+00 0. -1.
     999903    2    1    2    0    0 -0.35385773190E-03 -0.40056591660E-01 -0.59397955092E-01  0.74778755208E-01  0.21426371847E-01 0.  0.
         14    1    1    2    0    0 -0.81664616352E-01 -0.76059662071E-02 -0.62184104310E-03  0.82020405828E-01  0.00000000000E+00 0.  1.
     999901    1    1    2    0    0  0.82018474084E-01  0.47662557867E-01  0.60019796136E-01  0.88713083896E+00  0.88000000000E+00 0.  1.
        -11    1    3    3    0    0 -0.45347551015E-02 -0.12523015177E-02 -0.15220518182E-02  0.49709179896E-02  0.51100000000E-03 0.  1.
         11    1    3    3    0    0  0.41808973696E-02 -0.38804290142E-01 -0.57875903274E-01  0.69807837218E-01  0.51100000000E-03 0. -1.
</event>
<event>
 8    1  0.1084146E+005  0.1043930E+01  0.7957747E-01            NaN
         13   -1    0    0    0    0  0.00000000000E+00  0.00000000000E+00  0.74505805969E-08  0.10566000000E+00  0.10566000000E+00 0.  1.
     999900   -1    0    0    0    0 -0.00000000000E+00 -0.00000000000E+00 -0.74505805969E-08  0.93827000000E+00  0.93827000000E+00 0. -1.
     999902    2    1    2    0    0  0.17202135154E-01  0.11313956827E-01 -0.11103713309E-01  0.10205374473E+01  0.10202693124E+01 0.  0.
     999903    2    3    3    0    0 -0.87519970843E-01 -0.75730110824E-01  0.50779085499E-01  0.12791609981E+00  0.19728610799E-01 0.  0.
         14    1    1    2    0    0 -0.17202135154E-01 -0.11313956827E-01  0.11103713309E-01  0.23392552708E-01  0.00000000000E+00 0.  1.
     999901    1    3    3    0    0  0.10472210600E+00  0.87044067650E-01 -0.61882798808E-01  0.89262134748E+00  0.88000000000E+00 0. -1.
        -11    1    4    4    0    0 -0.45056667194E-01 -0.41810677391E-01  0.16450868527E-01  0.63632760421E-01  0.51100000000E-03 0. -1.
         11    1    4    4    0    0 -0.42463303649E-01 -0.33919433433E-01  0.34328216971E-01  0.64283339386E-01  0.51100000000E-03 0.  1.
</event>
<event>
 8    1  0.1084146E+005  0.1043930E+01  0.7957747E-01            NaN
         13   -1    0    0    0    0  0.00000000000E+00  0.00000000000E+00  0.74505805969E-08  0.10566000000E+00  0.10566000000E+00 0. -1.
     999900   -1    0    0    0    0 -0.00000000000E+00 -0.00000000000E+00 -0.74505805969E-08  0.93827000000E+00  0.93827000000E+00 0. -1.
     999902    2    1    2    0    0 -0.20997854845E-01  0.12128618023E-02 -0.10204258283E-01  0.10205524931E+01  0.10202847070E+01 0.  0.
     999903    2    3    3    0    0 -0.48964588246E-01  0.89968705422E-01 -0.81939119192E-01  0.13274303819E+00  0.20366543073E-01 0.  0.
         14    1    1    2    0    0  0.20997854845E-01 -0.12128618023E-02  0.10204258283E-01  0.23377506902E-01  0.00000000000E+00 0. -1.
     999901    1    3    3    0    0  0.27966733402E-01 -0.88755843619E-01  0.71734860909E-01  0.88780945491E+00  0.88000000000E+00 0.  1.
        -11    1    4    4    0    0 -0.10288539590E-01  0.34578879175E-01 -0.36514292724E-01  0.51333299388E-01  0.51100000000E-03 0.  1.
         11    1    4    4    0    0 -0.38676048656E-01  0.55389826246E-01 -0.45424826468E-01  0.81409738802E-01  0.51100000000E-03 0. -1.
</event>
<event>
 8    1  0.1084146E+005  0.1043930E+01  0.7957747E-01            NaN
         13   -1    0    0    0    0  0.00000000000E+00  0.00000000000E+00  0.74505805969E-08  0.10566000000E+00  0.10566000000E+00 0. -1.
     999900   -1    0    0    0    0 -0.00000000000E+00 -0.00000000000E+00 -0.74505805969E-08  0.93827000000E+00  0.93827000000E+00 0.  1.
     999902    2    1    2    0    0 -0.69602796712E-02 -0.32239010366E-02 -0.22718081993E-01  0.10199518791E+01  0.10196699885E+01 0.  0.
     999903    2    3    3    0    0 -0.72816535211E-01  0.10153342592E+00 -0.36710888347E-01  0.13118478783E+00  0.15826397482E-01 0.  0.
         14    1    1    2    0    0  0.69602796712E-02  0.32239010366E-02  0.22718081993E-01  0.23978120870E-01  0.00000000000E+00 0. -1.
     999901    1    3    3    0    0  0.65856255540E-01 -0.10475732695E+00  0.13992806353E-01  0.88876709130E+00  0.88000000000E+00 0. -1.
        -11    1    4    4    0    0 -0.65597527444E-01  0.87446724405E-01 -0.26980471333E-01  0.11259738971E+00  0.51100000000E-03 0. -1.
         11    1    4    4    0    0 -0.72190077670E-02  0.14086701511E-01 -0.97304170138E-02  0.18587398119E-01  0.51100000000E-03 0.  1.
</event>
<event>
 8    1  0.1084146E+005  0.1043930E+01  0.7957747E-01            NaN
         13   -1    0    0    0    0  0.00000000000E+00  0.00000000000E+00  0.74505805969E-08  0.10566000000E+00  0.10566000000E+00 0. -1.
     999900   -1    0    0    0    0 -0.00000000000E+00 -0.00000000000E+00 -0.74505805969E-08  0.93827000000E+00  0.93827000000E+00 0.  1.
     999902    2    1    2    0    0 -0.19667538216E-01  0.63048617736E-02  0.11527808423E-01  0.10202772262E+01  0.10200030219E+01 0.  0.
     999903    2    3    3    0    0 -0.72663582377E-01  0.10149263259E+00  0.41231046813E-01  0.13306159582E+00  0.20606755869E-01 0.  0.
         14    1    1    2    0    0  0.19667538216E-01 -0.63048617736E-02 -0.11527808423E-01  0.23652773801E-01  0.00000000000E+00 0.  1.
     999901    1    3    3    0    0  0.52996044161E-01 -0.95187770819E-01 -0.29703238390E-01  0.88721563037E+00  0.88000000000E+00 0.  1.
        -11    1    4    4    0    0 -0.56231827281E-01  0.66941575751E-01  0.21594794680E-01  0.90054368254E-01  0.51100000000E-03 0.  1.
         11    1    4    4    0    0 -0.16431755096E-01  0.34551056842E-01  0.19636252133E-01  0.43007227570E-01  0.51100000000E-03 0. -1.
</event>
<event>
 8    1  0.1084146E+005  0.1043930E+01  0.7957747E-01            NaN
         13   -1    0    0    0    0  0.00000000000E+00  0.00000000000E+00  0.74505805969E-08  0.10566000000E+00  0.10566000000E+00 0.  1.
     999900   -1    0    0    0    0 -0.00000000000E+00 -0.00000000000E+00 -0.74505805969E-08  0.93827000000E+00  0.93827000000E+00 0. -1.
     999902    2    1    2    0    0  0.71290361425E-02  0.21558689369E-01 -0.65907279053E-02  0.10202860169E+01  0.10200120187E+01 0.  0.
     999903    2    3    3    0    0  0.53418643183E-01  0.63155927583E-01 -0.10216568189E+00  0.13292609566E+00  0.19730629106E-01 0.  0.
         14    1    1    2    0    0 -0.71290361425E-02 -0.21558689369E-01  0.65907279053E-02  0.23643983123E-01  0.00000000000E+00 0.  1.
     999901    1    3    3    0    0 -0.46289607041E-01 -0.41597238214E-01  0.95574953980E-01  0.88735992121E+00  0.88000000000E+00 0.  1.
        -11    1    4    4    0    0  0.39452863094E-01  0.55549804765E-01 -0.74104820137E-01  0.10066824079E+00  0.51100000000E-03 0. -1.
         11    1    4    4    0    0  0.13965780090E-01  0.76061228174E-02 -0.28060861748E-01  0.32257854871E-01  0.51100000000E-03 0.  1.
</event>
<event>
 8    1  0.1084146E+005  0.1043930E+01  0.7957747E-01            NaN
         13   -1    0    0    0    0  0.00000000000E+00  0.00000000000E+00  0.74505805969E-08  0.10566000000E+00  0.10566000000E+00 0.  1.
     999900   -1    0    0    0    0 -0.00000000000E+00 -0.00000000000E+00 -0.74505805969E-08  0.93827000000E+00  0.93827000000E+00 0. -1.
     999902    2    1    2    0    0  0.11811624082E-01  0.19037983255E-01 -0.58485118473E-02  0.10207747768E+01  0.10205121168E+01 0.  0.
     999903    2    3    3    0    0  0.91311375093E-01 -0.45096376654E-01 -0.80995449635E-01  0.13168508011E+00  0.20229855484E-01 0.  0.
         14    1    1    2    0    0 -0.11811624082E-01 -0.19037983255E-01  0.58485118473E-02  0.23155223184E-01  0.00000000000E+00 0. -1.
     999901    1    3    3    0    0 -0.79499751012E-01  0.64134359910E-01  0.75146937788E-01  0.88908969671E+00  0.88000000000E+00 0. -1.
        -11    1    4    4    0    0  0.55698834529E-01 -0.17880527301E-01 -0.52236411267E-01  0.78428165907E-01  0.51100000000E-03 0. -1.
         11    1    4    4    0    0  0.35612540564E-01 -0.27215849353E-01 -0.28759038368E-01  0.53256914202E-01  0.51100000000E-03 0.  1.
</event>
<event>
 8    1  0.1084146E+005  0.1043930E+01  0.7957747E-01            NaN
         13   -1    0    0    0    0  0.00000000000E+00  0.00000000000E+00  0.74505805969E-08  0.10566000000E+00  0.10566000000E+00 0.  1.
     999900   -1    0    0    0    0 -0.00000000000E+00 -0.00000000000E+00 -0.74505805969E-08  0.93827000000E+00  0.93827000000E+00 0. -1.
     999902    2    1    2    0    0  0.17844466142E-01  0.16378594172E-01 -0.61011417643E-02  0.10189518646E+01  0.10186456671E+01 0.  0.
     999903    2    3    3    0    0  0.30541856819E-01 -0.64475828053E-01 -0.10589936238E+00  0.12953725587E+00  0.21801107418E-01 0.  0.
         14    1    1    2    0    0 -0.17844466142E-01 -0.16378594172E-01  0.61011417643E-02  0.24978135434E-01  0.00000000000E+00 0.  1.
     999901    1    3    3    0    0 -0.12697390676E-01  0.80854422225E-01  0.99798220616E-01  0.88941460870E+00  0.88000000000E+00 0.  1.
        -11    1    4    4    0    0  0.72900084097E-02 -0.28261700073E-02 -0.18435407698E-01  0.20031396295E-01  0.51100000000E-03 0.  1.
         11    1    4    4    0    0  0.23251848409E-01 -0.61649658046E-01 -0.87463954682E-01  0.10950585958E+00  0.51100000000E-03 0. -1.
</event>
<event>
 8    1  0.1084146E+005  0.1043930E+01  0.7957747E-01            NaN
         13   -1    0    0    0    0  0.00000000000E+00  0.00000000000E+00  0.74505805969E-08  0.10566000000E+00  0.10566000000E+00 0. -1.
     999900   -1    0    0    0    0 -0.00000000000E+00 -0.00000000000E+00 -0.74505805969E-08  0.93827000000E+00  0.93827000000E+00 0.  1.
     999902    2    1    2    0    0  0.29681246384E-01  0.71230198649E-02 -0.35181972089E-02  0.10132039278E+01  0.10127379266E+01 0.  0.
     999903    2    3    3    0    0 -0.57105855933E-01  0.60070719377E-01  0.88150876626E-01  0.12262059142E+00  0.19891261432E-01 0.  0.
         14    1    1    2    0    0 -0.29681246384E-01 -0.71230198649E-02  0.35181972089E-02  0.30726072162E-01  0.00000000000E+00 0. -1.
     999901    1    3    3    0    0  0.86787102317E-01 -0.52947699512E-01 -0.91669073835E-01  0.89058333642E+00  0.88000000000E+00 0.  1.
        -11    1    4    4    0    0 -0.46343474818E-01  0.35445363760E-01  0.61225737042E-01  0.84575075924E-01  0.51100000000E-03 0.  1.
         11    1    4    4    0    0 -0.10762381115E-01  0.24625355617E-01  0.26925139584E-01  0.38045515493E-01  0.51100000000E-03 0. -1.
</event>
<event>
 8    1  0.1084146E+005  0.1043930E+01  0.7957747E-01            NaN
         13   -1    0    0    0    0  0.00000000000E+00  0.00000000000E+00  0.74505805969E-08  0.10566000000E+00  0.10566000000E+00 0. -1.
     999900   -1    0    0    0    0 -0.00000000000E+00 -0.00000000000E+00 -0.74505805969E-08  0.93827000000E+00  0.93827000000E+00 0.  1.
     999902    2    1    2    0    0 -0.15043193977E-01 -0.19628119085E-02 -0.18080281382E-01  0.10203281592E+01  0.10200551483E+01 0.  0.
     999903    2    3    3    0    0 -0.85137792000E-01 -0.40075491675E-01  0.87927767108E-01  0.13038235443E+00  0.20341520563E-01 0.  0.
         14    1    1    2    0    0  0.15043193977E-01  0.19628119085E-02  0.18080281382E-01  0.23601840828E-01  0.00000000000E+00 0. -1.
     999901    1    3    3    0    0  0.70094598023E-01  0.38112679766E-01 -0.10600804849E+00  0.88994580474E+00  0.88000000000E+00 0.  1.
        -11    1    4    4    0    0 -0.48008774037E-01 -0.33524998692E-01  0.54307645775E-01  0.79864569318E-01  0.51100000000E-03 0.  1.
         11    1    4    4    0    0 -0.37129017963E-01 -0.65504929823E-02  0.33620121333E-01  0.50517785113E-01  0.51100000000E-03 0. -1.
</event>
<event>
 8    1  0.1084146E+005  0.1043930E+01  0.7957747E-01            NaN
         13   -1    0    0    0    0  0.00000000000E+00  0.00000000000E+00  0.74505805969E-08  0.10566000000E+00  0.10566000000E+00 0.  1.
     999900   -1    0    0    0    0 -0.00000000000E+00 -0.00000000000E+00 -0.74505805969E-08  0.93827000000E+00  0.93827000000E+00 0.  1.
     999902    2    1    2    0    0  0.75767871521E-02  0.18637806082E-01  0.11969271441E-01  0.10205197677E+01  0.10202512226E+01 0.  0.
     999903    2    3    3    0    0 -0.17063515873E-02  0.73299575740E-01  0.10976377739E+00  0.13336822981E+00  0.19059340419E-01 0.  0.
         14    1    1    2    0    0 -0.75767871521E-02 -0.18637806082E-01 -0.11969271441E-01  0.23410232334E-01  0.00000000000E+00 0.  1.
     999901    1    3    3    0    0  0.92831387395E-02 -0.54661769657E-01 -0.97794505946E-01  0.88715153786E+00  0.88000000000E+00 0.  1.
        -11    1    4    4    0    0  0.73766331229E-02  0.36424858512E-01  0.62729162913E-01  0.72913606649E-01  0.51100000000E-03 0.  1.
         11    1    4    4    0    0 -0.90829847102E-02  0.36874717227E-01  0.47034614474E-01  0.60454623161E-01  0.51100000000E-03 0. -1.
</event>
<event>
 8    1  0.1084146E+005  0.1043930E+01  0.7957747E-01            NaN
         13   -1    0    0    0    0  0.00000000000E+00  0.00000000000E+00  0.74505805969E-08  0.10566000000E+00  0.10566000000E+00 0.  1.
     999900   -1    0    0    0    0 -0.00000000000E+00 -0.00000000000E+00 -0.74505805969E-08  0.93827000000E+00  0.93827000000E+00 0.  1.
     999902    2    1    2    0    0 -0.53572350769E-02  0.14832059679E-01  0.21922973943E-01  0.10169243201E+01  0.10165656723E+01 0.  0.
     999903    2    3    3    0    0  0.14128822161E-01 -0.10783118742E+00 -0.57557375019E-01  0.12465580416E+00  0.19975722668E-01 0.  0.
         14    1    1    2    0    0  0.53572350769E-02 -0.14832059679E-01 -0.21922973943E-01  0.27005679930E-01  0.00000000000E+00 0. -1.
     999901    1    3    3    0    0 -0.19486057238E-01  0.12266324710E+00  0.79480348961E-01  0.89226851591E+00  0.88000000000E+00 0.  1.
        -11    1    4    4    0    0  0.30581225727E-02 -0.73662343267E-01 -0.46090496440E-01  0.86948766020E-01  0.51100000000E-03 0. -1.
         11    1    4    4    0    0  0.11070699588E-01 -0.34168844149E-01 -0.11466878579E-01  0.37707038139E-01  0.51100000000E-03 0.  1.
</event>
<event>
 8    1  0.1084146E+005  0.1043930E+01  0.7957747E-01            NaN
         13   -1    0    0    0    0  0.00000000000E+00  0.00000000000E+00  0.74505805969E-08  0.10566000000E+00  0.10566000000E+00 0.  1.
     999900   -1    0    0    0    0 -0.00000000000E+00 -0.00000000000E+00 -0.74505805969E-08  0.93827000000E+00  0.93827000000E+00 0.  1.
     999902    2    1    2    0    0 -0.19974583528E-01 -0.81169481757E-02 -0.92132119147E-02  0.10204832069E+01  0.10202138126E+01 0.  0.
     999903    2    3    3    0    0  0.79466446823E-01 -0.13067040704E-01  0.97296072674E-01  0.12848699070E+00  0.23594857463E-01 0.  0.
         14    1    1    2    0    0  0.19974583528E-01  0.81169481757E-02  0.92132119147E-02  0.23446793141E-01  0.00000000000E+00 0.  1.
     999901    1    3    3    0    0 -0.99441030351E-01  0.49500925281E-02 -0.10650928459E+00  0.89199621616E+00  0.88000000000E+00 0.  1.
        -11    1    4    4    0    0  0.36188846504E-01  0.52993417236E-02  0.48218221064E-01  0.60522504885E-01  0.51100000000E-03 0. -1.
         11    1    4    4    0    0  0.43277600319E-01 -0.18366382427E-01  0.49077851610E-01  0.67964485818E-01  0.51100000000E-03 0.  1.
</event>
<event>
 8    1  0.1084146E+005  0.1043930E+01  0.7957747E-01            NaN
         13   -1    0    0    0    0  0.00000000000E+00  0.00000000000E+00  0.74505805969E-08  0.10566000000E+00  0.10566000000E+00 0.  1.
     999900   -1    0    0    0    0 -0.00000000000E+00 -0.00000000000E+00 -0.74505805969E-08  0.93827000000E+00  0.93827000000E+00 0. -1.
     999902    2    1    2    0    0  0.61367579540E-02 -0.12822093931E-01 -0.19418702644E-01  0.10198644249E+01  0.10195804497E+01 0.  0.
     999903    2    3    3    0    0 -0.95078057871E-01 -0.92692737355E-02  0.83219000795E-01  0.12812928508E+00  0.19129952390E-01 0.  0.
         14    1    1    2    0    0 -0.61367579540E-02  0.12822093931E-01  0.19418702644E-01  0.24065575068E-01  0.00000000000E+00 0.  1.
     999901    1    3    3    0    0  0.10121481582E+00 -0.35528201959E-02 -0.10263770344E+00  0.89173513985E+00  0.88000000000E+00 0. -1.
        -11    1    4    4    0    0 -0.73974393297E-01  0.15732047587E-03  0.67751166614E-01  0.10031309641E+00  0.51100000000E-03 0.  1.
         11    1    4    4    0    0 -0.21103664574E-01 -0.94265942114E-02  0.15467834181E-01  0.27816188670E-01  0.51100000000E-03 0. -1.
</event>
<event>
 8    1  0.1084146E+005  0.1043930E+01  0.7957747E-01            NaN
         13   -1    0    0    0    0  0.00000000000E+00  0.00000000000E+00  0.74505805969E-08  0.10566000000E+00  0.10566000000E+00 0. -1.
     999900   -1    0    0    0    0 -0.00000000000E+00 -0.00000000000E+00 -0.74505805969E-08  0.93827000000E+00  0.93827000000E+00 0. -1.
     999902    2    1    2    0    0 -0.47302759786E-02 -0.22570465063E-01 -0.36756283227E-02  0.10205780911E+01  0.10203108979E+01 0.  0.
     999903    2    3    3    0    0  0.19039428172E-01  0.60722165292E-01  0.11040355590E+00  0.12899706768E+00  0.20040387521E-01 0.  0.
         14    1    1    2    0    0  0.47302759786E-02  0.22570465063E-01  0.36756283227E-02  0.23351908863E-01  0.00000000000E+00 0. -1.
     999901    1    3    3    0    0 -0.23769704150E-01 -0.83292630355E-01 -0.11407918423E+00  0.89158102345E+00  0.88000000000E+00 0. -1.
        -11    1    4    4    0    0  0.19517847944E-01  0.30675787751E-01  0.66492471425E-01  0.75785620138E-01  0.51100000000E-03 0. -1.
         11    1    4    4    0    0 -0.47841977278E-03  0.30046377541E-01  0.43911084479E-01  0.53211447546E-01  0.51100000000E-03 0.  1.
</event>
<event>
 8    1  0.1084146E+005  0.1043930E+01  0.7957747E-01            NaN
         13   -1    0    0    0    0  0.00000000000E+00  0.00000000000E+00  0.74505805969E-08  0.10566000000E+00  0.10566000000E+00 0. -1.
     999900   -1    0    0    0    0 -0.00000000000E+00 -0.00000000000E+00 -0.74505805969E-08  0.93827000000E+00  0.93827000000E+00 0. -1.
     999902    2    1    2    0    0 -0.70636434350E-02 -0.21577342437E-01 -0.62090823032E-02  0.10203921694E+01  0.10201206546E+01 0.  0.
     999903    2    3    3    0    0  0.96838573745E-01 -0.81703696493E-01  0.29207977475E-01  0.13153604084E+00  0.19885188140E-01 0.  0.
         14    1    1    2    0    0  0.70636434350E-02  0.21577342437E-01  0.62090823032E-02  0.23537830577E-01  0.00000000000E+00 0. -1.
     999901    1    3    3    0    0 -0.10390221718E+00  0.60126354055E-01 -0.35417059779E-01  0.88885612858E+00  0.88000000000E+00 0. -1.
        -11    1    4    4    0    0  0.22741986360E-01 -0.27937061315E-01  0.14390277919E-01  0.38794568667E-01  0.51100000000E-03 0. -1.
         11    1    4    4    0    0  0.74096587386E-01 -0.53766635178E-01  0.14817699557E-01  0.92741472178E-01  0.51100000000E-03 0.  1.
</event>
<event>
 8    1  0.1084146E+005  0.1043930E+01  0.7957747E-01            NaN
         13   -1    0    0    0    0  0.00000000000E+00  0.00000000000E+00  0.74505805969E-08  0.10566000000E+00  0.10566000000E+00 0. -1.
     999900   -1    0    0    0    0 -0.00000000000E+00 -0.00000000000E+00 -0.74505805969E-08  0.93827000000E+00  0.93827000000E+00 0. -1.
     999902    2    1    2    0    0 -0.11416651202E-01 -0.12780479270E-01  0.14776255592E-01  0.10213021785E+01  0.10210514784E+01 0.  0.
     999903    2    3    3    0    0  0.51476526965E-01 -0.98440224863E-01 -0.66639945229E-01  0.13117761330E+00  0.20648807025E-01 0.  0.
         14    1    1    2    0    0  0.11416651202E-01  0.12780479270E-01 -0.14776255592E-01  0.22627821467E-01  0.00000000000E+00 0.  1.
     999901    1    3    3    0    0 -0.62893178167E-01  0.85659745593E-01  0.81416200821E-01  0.89012456523E+00  0.88000000000E+00 0.  1.
        -11    1    4    4    0    0  0.13928067549E-03 -0.12194430267E-01 -0.10924386417E-01  0.16380685829E-01  0.51100000000E-03 0. -1.
         11    1    4    4    0    0  0.51337246289E-01 -0.86245794596E-01 -0.55715558813E-01  0.11479692747E+00  0.51100000000E-03 0.  1.
</event>
<event>
 8    1  0.1084146E+005  0.1043930E+01  0.7957747E-01            NaN
         13   -1    0    0    0    0  0.00000000000E+00  0.00000000000E+00  0.74505805969E-08  0.10566000000E+00  0.10566000000E+00 0.  1.
     999900   -1    0    0    0    0 -0.00000000000E+00 -0.00000000000E+00 -0.74505805969E-08  0.93827000000E+00  0.93827000000E+00 0. -1.
     999902    2    1    2    0    0  0.21819870559E-01  0.88541050814E-02 -0.31954573604E-02  0.10201663118E+01  0.10198894994E+01 0.  0.
     999903    2    3    3    0    0  0.65088774724E-01  0.62447350250E-01  0.94120905673E-01  0.13212638676E+00  0.21503884414E-01 0.  0.
         14    1    1    2    0    0 -0.21819870559E-01 -0.88541050814E-02  0.31954573604E-02  0.23763688176E-01  0.00000000000E+00 0. -1.
     999901    1    3    3    0    0 -0.43268904165E-01 -0.53593245168E-01 -0.97316363034E-01  0.88803992506E+00  0.88000000000E+00 0. -1.
        -11    1    4    4    0    0  0.30118302030E-01  0.34354695453E-01  0.61707912336E-01  0.76782060293E-01  0.51100000000E-03 0. -1.
         11    1    4    4    0    0  0.34970472693E-01  0.28092654797E-01  0.32412993337E-01  0.55344326466E-01  0.51100000000E-03 0.  1.
</event>
<event>
 8    1  0.1084146E+005  0.1043930E+01  0.7957747E-01            NaN
         13   -1    0    0    0    0  0.00000000000E+00  0.00000000000E+00  0.74505805969E-08  0.10566000000E+00  0.10566000000E+00 0. -1.
     999900   -1    0    0    0    0 -0.00000000000E+00 -0.00000000000E+00 -0.74505805969E-08  0.93827000000E+00  0.93827000000E+00 0. -1.
     999902    2    1    2    0    0 -0.22459600777E-01 -0.48356428466E-02  0.57889873940E-02  0.10202376070E+01  0.10199624725E+01 0.  0.
     999903    2    3    3    0    0  0.12222250095E+00 -0.18665280318E-01  0.26224478554E-01  0.12808191507E+00  0.20749006344E-01 0.  0.
         14    1    1    2    0    0  0.22459600777E-01  0.48356428466E-02 -0.57889873940E-02  0.23692392954E-01  0.00000000000E+00 0.  1.
     999901    1    3    3    0    0 -0.14468210173E+00  0.13829637471E-01 -0.20435491160E-01  0.89215569198E+00  0.88000000000E+00 0. -1.
        -11    1    4    4    0    0  0.74044975829E-01 -0.40623759506E-02  0.82092018387E-02  0.74611081347E-01  0.51100000000E-03 0. -1.
         11    1    4    4    0    0  0.48177525120E-01 -0.14602904367E-01  0.18015276715E-01  0.53470833720E-01  0.51100000000E-03 0.  1.
</event>
<event>
 8    1  0.1084146E+005  0.1043930E+01  0.7957747E-01            NaN
         13   -1    0    0    0    0  0.00000000000E+00  0.00000000000E+00  0.74505805969E-08  0.10566000000E+00  0.10566000000E+00 0. -1.
     999900   -1    0    0    0    0 -0.00000000000E+00 -0.00000000000E+00 -0.74505805969E-08  0.93827000000E+00  0.93827000000E+00 0. -1.
     999902    2    1    2    0    0  0.20795442849E-01 -0.78930625096E-02  0.67541049162E-02  0.10206841657E+01  0.10204194222E+01 0.  0.
     999903    2    3    3    0    0 -0.11749449851E+00 -0.43889430032E-01 -0.20674135547E-01  0.12873564996E+00  0.20352111453E-01 0.  0.
         14    1    1    2    0    0 -0.20795442849E-01  0.78930625096E-02 -0.67541049162E-02  0.23245834300E-01  0.00000000000E+00 0.  1.
     999901    1    3    3    0    0  0.13828994136E+00  0.35996367523E-01  0.27428240464E-01  0.89194851574E+00  0.88000000000E+00 0.  1.
        -11    1    4    4    0    0 -0.29149467075E-01 -0.20303309013E-01 -0.35353683165E-02  0.35702601274E-01  0.51100000000E-03 0.  1.
         11    1    4    4    0    0 -0.88345031438E-01 -0.23586121020E-01 -0.17138767231E-01  0.93033048686E-01  0.51100000000E-03 0. -1.
</event>
<event>
 7    1  0.1084146E+005  0.1043930E+01  0.7957747E-01            NaN
         13   -1    0    0    0    0  0.00000000000E+00  0.00000000000E+00  0.74505805969E-08  0.10566000000E+00  0.10566000000E+00 0. -1.
     999900   -1    0    0    0    0 -0.00000000000E+00 -0.00000000000E+00 -0.74505805969E-08  0.93827000000E+00  0.93827000000E+00 0. -1.
     999903    2    1    2    0    0 -0.95638829541E-01 -0.27094617120E-01 -0.47316306465E-01  0.11169179898E+00  0.18849963099E-01 0.  0.
         14    1    1    2    0    0  0.17456382418E-02  0.44882527520E-01 -0.67218654795E-02  0.45416648984E-01  0.00000000000E+00 0.  1.
     999901    1    1    2    0    0  0.93893191299E-01 -0.17787910400E-01  0.54038171945E-01  0.88682155204E+00  0.88000000000E+00 0.  1.
        -11    1    3    3    0    0 -0.29954020891E-01 -0.14208264931E-01 -0.23508508449E-01  0.40645162693E-01  0.51100000000E-03 0.  1.
         11    1    3    3    0    0 -0.65684808650E-01 -0.12886352189E-01 -0.23807798017E-01  0.71046636286E-01  0.51100000000E-03 0. -1.
</event>
<event>
 8    1  0.1084146E+005  0.1043930E+01  0.7957747E-01            NaN
         13   -1    0    0    0    0  0.00000000000E+00  0.00000000000E+00  0.74505805969E-08  0.10566000000E+00  0.10566000000E+00 0. -1.
     999900   -1    0    0    0    0 -0.00000000000E+00 -0.00000000000E+00 -0.74505805969E-08  0.93827000000E+00  0.93827000000E+00 0.  1.
     999902    2    1    2    0    0 -0.15852790599E-01 -0.92253009730E-02  0.15271542077E-01  0.10200629276E+01  0.10197836727E+01 0.  0.
     999903    2    3    3    0    0 -0.40993973781E-01  0.28610425121E-01  0.12115554265E+00  0.13255234014E+00  0.19808963920E-01 0.  0.
         14    1    1    2    0    0  0.15852790599E-01  0.92253009730E-02 -0.15271542077E-01  0.23867072406E-01  0.00000000000E+00 0.  1.
     999901    1    3    3    0    0  0.25141183181E-01 -0.37835726094E-01 -0.10588400057E+00  0.88751058745E+00  0.88000000000E+00 0.  1.
        -11    1    4    4    0    0 -0.37931164666E-01  0.19706345912E-01  0.10957355000E+00  0.11761690908E+00  0.51100000000E-03 0. -1.
         11    1    4    4    0    0 -0.30628091151E-02  0.89040792094E-02  0.11581992647E-01  0.14935431059E-01  0.51100000000E-03 0.  1.
</event>
<event>
 8    1  0.1084146E+005  0.1043930E+01  0.7957747E-01            NaN
         13   -1    0    0    0    0  0.00000000000E+00  0.00000000000E+00  0.74505805969E-08  0.10566000000E+00  0.10566000000E+00 0.  1.
     999900   -1    0    0    0    0 -0.00000000000E+00 -0.00000000000E+00 -0.74505805969E-08  0.93827000000E+00  0.93827000000E+00 0.  1.
     999902    2    1    2    0    0 -0.41339255037E-02 -0.17697691172E-01  0.15733484721E-01  0.10198916940E+01  0.10196083696E+01 0.  0.
     999903    2    3    3    0    0 -0.43712704361E-02  0.90790629766E-01 -0.86960428453E-01  0.12730230807E+00  0.19537529634E-01 0.  0.
         14    1    1    2    0    0  0.41339255037E-02  0.17697691172E-01 -0.15733484721E-01  0.24038305979E-01  0.00000000000E+00 0. -1.
     999901    1    3    3    0    0  0.23734493240E-03 -0.10848832094E+00  0.10269391317E+00  0.89258938595E+00  0.88000000000E+00 0. -1.
        -11    1    4    4    0    0 -0.10427429914E-01  0.37612842730E-01 -0.30814284832E-01  0.49731664999E-01  0.51100000000E-03 0.  1.
         11    1    4    4    0    0  0.60561594778E-02  0.53177787036E-01 -0.56146143621E-01  0.77570643069E-01  0.51100000000E-03 0. -1.
</event>
<event>
 8    1  0.1084146E+005  0.1043930E+01  0.7957747E-01            NaN
         13   -1    0    0    0    0  0.00000000000E+00  0.00000000000E+00  0.74505805969E-08  0.10566000000E+00  0.10566000000E+00 0.  1.
     999900   -1    0    0    0    0 -0.00000000000E+00 -0.00000000000E+00 -0.74505805969E-08  0.93827000000E+00  0.93827000000E+00 0. -1.
     999902    2    1    2    0    0  0.22943501555E-01  0.35076413293E-02 -0.39597921365E-02  0.10203845596E+01  0.10201128671E+01 0.  0.
     999903    2    3    3    0    0 -0.73548257850E-01  0.70725053832E-01 -0.77123295469E-01  0.12955251120E+00  0.20602693582E-01 0.  0.
         14    1    1    2    0    0 -0.22943501555E-01 -0.35076413293E-02  0.39597921365E-02  0.23545440430E-01  0.00000000000E+00 0. -1.
     999901    1    3    3    0    0  0.96491759405E-01 -0.67217412502E-01  0.73163503332E-01  0.89083204837E+00  0.88000000000E+00 0. -1.
        -11    1    4    4    0    0 -0.72192160665E-01  0.62765093683E-01 -0.68061673655E-01  0.11740450412E+00  0.51100000000E-03 0. -1.
         11    1    4    4    0    0 -0.13560971856E-02  0.79599601487E-02 -0.90616218140E-02  0.12148007081E-01  0.51100000000E-03 0.  1.
</event>
<event>
 8    1  0.1084146E+005  0.1043930E+01  0.7957747E-01            NaN
         13   -1    0    0    0    0  0.00000000000E+00  0.00000000000E+00  0.74505805969E-08  0.10566000000E+00  0.10566000000E+00 0. -1.
     999900   -1    0    0    0    0 -0.00000000000E+00 -0.00000000000E+00 -0.74505805969E-08  0.93827000000E+00  0.93827000000E+00 0.  1.
     999902    2    1    2    0    0 -0.16167753840E-01 -0.12030135853E-01  0.73561278777E-02  0.10224769571E+01  0.10222518744E+01 0.  0.
     999903    2    3    3    0    0 -0.77233880189E-02 -0.12358979064E+00 -0.46937564295E-01  0.13373364831E+00  0.18640458038E-01 0.  0.
         14    1    1    2    0    0  0.16167753840E-01  0.12030135853E-01 -0.73561278777E-02  0.21453042913E-01  0.00000000000E+00 0.  1.
     999901    1    3    3    0    0 -0.84443658207E-02  0.11155965478E+00  0.54293692173E-01  0.88874330878E+00  0.88000000000E+00 0.  1.
        -11    1    4    4    0    0  0.26124109210E-02 -0.77038088872E-01 -0.23428899686E-01  0.80565912701E-01  0.51100000000E-03 0.  1.
         11    1    4    4    0    0 -0.10335798940E-01 -0.46551701764E-01 -0.23508664609E-01  0.53167735607E-01  0.51100000000E-03 0. -1.
</event>
<event>
 8    1  0.1084146E+005  0.1043930E+01  0.7957747E-01            NaN
         13   -1    0    0    0    0  0.00000000000E+00  0.00000000000E+00  0.74505805969E-08  0.10566000000E+00  0.10566000000E+00 0.  1.
     999900   -1    0    0    0    0 -0.00000000000E+00 -0.00000000000E+00 -0.74505805969E-08  0.93827000000E+00  0.93827000000E+00 0.  1.
     999902    2    1    2    0    0 -0.12819577480E-01  0.12829083039E-01  0.15463274208E-01  0.10200964147E+01  0.10198179521E+01 0.  0.
     999903    2    3    3    0    0 -0.36721892542E-01  0.67754985764E-01 -0.10314262021E+00  0.13012139616E+00  0.18813350225E-01 0.  0.
         14    1    1    2    0    0  0.12819577480E-01 -0.12829083039E-01 -0.15463274208E-01  0.23833585286E-01  0.00000000000E+00 0. -1.
     999901    1    3    3    0    0  0.23902315062E-01 -0.54925902725E-01  0.11860589442E+00  0.88997501855E+00  0.88000000000E+00 0. -1.
        -11    1    4    4    0    0 -0.11299373589E-01  0.13672095465E-01 -0.36646005246E-01  0.40716002498E-01  0.51100000000E-03 0. -1.
         11    1    4    4    0    0 -0.25422518952E-01  0.54082890299E-01 -0.66496614968E-01  0.89405393664E-01  0.51100000000E-03 0.  1.
</event>
<event>
 8    1  0.1084146E+005  0.1043930E+01  0.7957747E-01            NaN
         13   -1    0    0    0    0  0.00000000000E+00  0.00000000000E+00  0.74505805969E-08  0.10566000000E+00  0.10566000000E+00 0. -1.
     999900   -1    0    0    0    0 -0.00000000000E+00 -0.00000000000E+00 -0.74505805969E-08  0.93827000000E+00  0.93827000000E+00 0. -1.
     999902    2    1    2    0    0 -0.19370955231E-01  0.73213164020E-02  0.16648390034E-01  0.10173592554E+01  0.10170122172E+01 0.  0.
     999903    2    3    3    0    0  0.97121650137E-01  0.37968345429E-01 -0.66155923750E-01  0.12530190188E+00  0.21207314511E-01 0.  0.
         14    1    1    2    0    0  0.19370955231E-01 -0.73213164020E-02 -0.16648390034E-01  0.26570744648E-01  0.00000000000E+00 0.  1.
     999901    1    3    3    0    0 -0.11649260537E+00 -0.30647029027E-01  0.82804313784E-01  0.89205735347E+00  0.88000000000E+00 0.  1.
        -11    1    4    4    0    0  0.20727902723E-01  0.10744764193E-01 -0.54043729590E-02  0.23970070441E-01  0.51100000000E-03 0. -1.
         11    1    4    4    0    0  0.76393747414E-01  0.27223581236E-01 -0.60751550791E-01  0.10133183144E+00  0.51100000000E-03 0.  1.
</event>
<event>
 8    1  0.1084146E+005  0.1043930E+01  0.7957747E-01            NaN
         13   -1    0    0    0    0  0.00000000000E+00  0.00000000000E+00  0.74505805969E-08  0.10566000000E+00  0.10566000000E+00 0. -1.
     999900   -1    0    0    0    0 -0.00000000000E+00 -0.00000000000E+00 -0.74505805969E-08  0.93827000000E+00  0.93827000000E+00 0.  1.
     999902    2    1    2    0    0  0.22570155505E-01 -0.24600512448E-02 -0.74344583074E-02  0.10200399405E+01  0.10197601411E+01 0.  0.
     999903    2    3    3    0    0  0.75733008274E-01  0.79813209383E-01  0.68915558020E-01  0.13131922887E+00  0.19742056591E-01 0.  0.
         14    1    1    2    0    0 -0.22570155505E-01  0.24600512448E-02  0.74344583074E-02  0.23890059480E-01  0.00000000000E+00 0. -1.
     999901    1    3    3    0    0 -0.53162852770E-01 -0.82273260628E-01 -0.76350016328E-01  0.88872071165E+00  0.88000000000E+00 0.  1.
        -11    1    4    4    0    0  0.13043319322E-01  0.77083141494E-02  0.36020418599E-02  0.15581466957E-01  0.51100000000E-03 0.  1.
         11    1    4    4    0    0  0.62689688952E-01  0.72104895234E-01  0.65313516160E-01  0.11573776191E+00  0.51100000000E-03 0. -1.
</event>
<event>
 8    1  0.1084146E+005  0.1043930E+01  0.7957747E-01            NaN
         13   -1    0    0    0    0  0.00000000000E+00  0.00000000000E+00  0.74505805969E-08  0.10566000000E+00  0.10566000000E+00 0. -1.
     999900   -1    0    0    0    0 -0.00000000000E+00 -0.00000000000E+00 -0.74505805969E-08  0.93827000000E+00  0.93827000000E+00 0. -1.
     999902    2    1    2    0    0 -0.22576462849E-01  0.43104784168E-02 -0.54869809241E-02  0.10202998528E+01  0.10200261789E+01 0.  0.
     999903    2    3    3    0    0 -0.27362375275E-01 -0.70210719860E-01 -0.10670435098E+00  0.13135594567E+00  0.13795694244E-01 0.  0.
         14    1    1    2    0    0  0.22576462849E-01 -0.43104784168E-02  0.54869809241E-02  0.23630147241E-01  0.00000000000E+00 0.  1.
     999901    1    3    3    0    0  0.47859124258E-02  0.74521198277E-01  0.10121737006E+00  0.88894390709E+00  0.88000000000E+00 0.  1.
        -11    1    4    4    0    0 -0.24387740063E-01 -0.57409310493E-01 -0.95562701706E-01  0.11411871834E+00  0.51100000000E-03 0. -1.
         11    1    4    4    0    0 -0.29746352122E-02 -0.12801409368E-01 -0.11141649278E-01  0.17237227331E-01  0.51100000000E-03 0.  1.
</event>
<event>
 8    1  0.1084146E+005  0.1043930E+01  0.7957747E-01            NaN
         13   -1    0    0    0    0  0.00000000000E+00  0.00000000000E+00  0.74505805969E-08  0.10566000000E+00  0.10566000000E+00 0.  1.
     999900   -1    0    0    0    0 -0.00000000000E+00 -0.00000000000E+00 -0.74505805969E-08  0.93827000000E+00  0.93827000000E+00 0.  1.
     999902    2    1    2    0    0 -0.13987236319E-01 -0.23354620818E-02 -0.20519852388E-01  0.10189868345E+01  0.10186815044E+01 0.  0.
     999903    2    3    3    0    0 -0.10206703352E+00  0.70417636843E-01 -0.38648337605E-01  0.13141728452E+00  0.20012140363E-01 0.  0.
         14    1    1    2    0    0  0.13987236319E-01  0.23354620818E-02  0.20519852388E-01  0.24943165496E-01  0.00000000000E+00 0. -1.
     999901    1    3    3    0    0  0.88079797199E-01 -0.72753098925E-01  0.18128485217E-01  0.88756954998E+00  0.88000000000E+00 0.  1.
        -11    1    4    4    0    0 -0.72953864705E-01  0.48047569563E-01 -0.36379708999E-01  0.94628640824E-01  0.51100000000E-03 0. -1.
         11    1    4    4    0    0 -0.29113168813E-01  0.22370067280E-01 -0.22686286064E-02  0.36788643699E-01  0.51100000000E-03 0.  1.
</event>
<event>
 8    1  0.1084146E+005  0.1043930E+01  0.7957747E-01            NaN
         13   -1    0    0    0    0  0.00000000000E+00  0.00000000000E+00  0.74505805969E-08  0.10566000000E+00  0.10566000000E+00 0. -1.
     999900   -1    0    0    0    0 -0.00000000000E+00 -0.00000000000E+00 -0.74505805969E-08  0.93827000000E+00  0.93827000000E+00 0. -1.
     999902    2    1    2    0    0  0.19628356617E-01 -0.57733710731E-02  0.10691966361E-01  0.10208448892E+01  0.10205838356E+01 0.  0.
     999903    2    3    3    0    0 -0.10796138896E+00  0.60130528901E-01 -0.28233757685E-01  0.12835529305E+00  0.20164180323E-01 0.  0.
         14    1    1    2    0    0 -0.19628356617E-01  0.57733710731E-02 -0.10691966361E-01  0.23085110823E-01  0.00000000000E+00 0.  1.
     999901    1    3    3    0    0  0.12758974558E+00 -0.65903899974E-01  0.38925724046E-01  0.89248959613E+00  0.88000000000E+00 0. -1.
        -11    1    4    4    0    0 -0.22227860354E-01  0.17722327728E-01  0.64693838302E-03  0.28440083092E-01  0.51100000000E-03 0.  1.
         11    1    4    4    0    0 -0.85733528607E-01  0.42408201173E-01 -0.28880696068E-01  0.99915209955E-01  0.51100000000E-03 0. -1.
</event>
<event>
 7    1  0.1084146E+005  0.1043930E+01  0.7957747E-01            NaN
         13   -1    0    0    0    0  0.00000000000E+00  0.00000000000E+00  0.74505805969E-08  0.10566000000E+00  0.10566000000E+00 0. -1.
     999900   -1    0    0    0    0 -0.00000000000E+00 -0.00000000000E+00 -0.74505805969E-08  0.93827000000E+00  0.93827000000E+00 0.  1.
     999902    2    1    2    0    0  0.10665057833E-01  0.19308257368E-01  0.76760278846E-02  0.10205746223E+01  0.10203073488E+01 0.  0.
         14    1    1    2    0    0 -0.10665057833E-01 -0.19308257368E-01 -0.76760278846E-02  0.23355377652E-01  0.00000000000E+00 0.  1.
     999901    1    3    3    0    0  0.14968530914E-01  0.86770996622E-02  0.11693330001E+00  0.88790356775E+00  0.88000000000E+00 0. -1.
        -11    1    3    3    0    0  0.69608090183E-02  0.41405141736E-01 -0.68838083647E-01  0.80633625155E-01  0.51100000000E-03 0. -1.
         11    1    3    3    0    0 -0.11264282099E-01 -0.30773984030E-01 -0.40419188481E-01  0.52037429440E-01  0.51100000000E-03 0.  1.
</event>
<event>
 7    1  0.1084146E+005  0.1043930E+01  0.7957747E-01            NaN
         13   -1    0    0    0    0  0.00000000000E+00  0.00000000000E+00  0.74505805969E-08  0.10566000000E+00  0.10566000000E+00 0. -1.
     999900   -1    0    0    0    0 -0.00000000000E+00 -0.00000000000E+00 -0.74505805969E-08  0.93827000000E+00  0.93827000000E+00 0. -1.
     999903    2    1    2    0    0  0.59068405281E-01  0.24765566098E-01  0.87826497769E-01  0.11078566849E+00  0.21390672424E-01 0.  0.
         14    1    1    2    0    0  0.32412085388E-01  0.94182407499E-02  0.22983565568E-01  0.40834921626E-01  0.00000000000E+00 0. -1.
     999901    1    1    2    0    0 -0.91480490669E-01 -0.34183806848E-01 -0.11081006334E+00  0.89230940988E+00  0.88000000000E+00 0. -1.
        -11    1    3    3    0    0  0.33908308643E-02 -0.34970943629E-02  0.87546287493E-02  0.10031552645E-01  0.51100000000E-03 0.  1.
         11    1    3    3    0    0  0.55677574417E-01  0.28262660461E-01  0.79071869020E-01  0.10075411585E+00  0.51100000000E-03 0. -1.
</event>
<event>
 8    1  0.1084146E+005  0.1043930E+01  0.7957747E-01            NaN
         13   -1    0    0    0    0  0.00000000000E+00  0.00000000000E+00  0.74505805969E-08  0.10566000000E+00  0.10566000000E+00 0. -1.
     999900   -1    0    0    0    0 -0.00000000000E+00 -0.00000000000E+00 -0.74505805969E-08  0.93827000000E+00  0.93827000000E+00 0.  1.
     999902    2    1    2    0    0 -0.38009007218E-02 -0.66210363466E-02 -0.21596581859E-01  0.10210237276E+01  0.10207667486E+01 0.  0.
     999903    2    3    3    0    0  0.25828709268E-01  0.14730703848E-01 -0.12870487802E+00  0.13377742710E+00  0.21150378613E-01 0.  0.
         14    1    1    2    0    0  0.38009007218E-02  0.66210363466E-02  0.21596581859E-01  0.22906272429E-01  0.00000000000E+00 0. -1.
     999901    1    3    3    0    0 -0.29629609990E-01 -0.21351740195E-01  0.10710829616E+00  0.88724630047E+00  0.88000000000E+00 0. -1.
        -11    1    4    4    0    0  0.19784738988E-01  0.12041424184E-01 -0.53756350944E-01  0.58535785473E-01  0.51100000000E-03 0. -1.
         11    1    4    4    0    0  0.60439702800E-02  0.26892796646E-02 -0.74948527080E-01  0.75241641624E-01  0.51100000000E-03 0.  1.
</event>
<event>
 8    1  0.1084146E+005  0.1043930E+01  0.7957747E-01            NaN
         13   -1    0    0    0    0  0.00000000000E+00  0.00000000000E+00  0.74505805969E-08  0.10566000000E+00  0.10566000000E+00 0. -1.
     999900   -1    0    0    0    0 -0.00000000000E+00 -0.00000000000E+00 -0.74505805969E-08  0.93827000000E+00  0.93827000000E+00 0. -1.
     999902    2    1    2    0    0  0.70413193365E-02 -0.37851328770E-02 -0.22940655715E-01  0.10196363569E+01  0.10193469082E+01 0.  0.
     999903    2    3    3    0    0  0.48345494591E-01 -0.35767590306E-01  0.11129735719E+00  0.12792521728E+00  0.19004003077E-01 0.  0.
         14    1    1    2    0    0 -0.70413193365E-02  0.37851328770E-02  0.22940655715E-01  0.24293643068E-01  0.00000000000E+00 0. -1.
     999901    1    3    3    0    0 -0.41304175254E-01  0.31982457429E-01 -0.13423801291E+00  0.89171113966E+00  0.88000000000E+00 0. -1.
        -11    1    4    4    0    0  0.35383931873E-01 -0.14703058472E-01  0.68784572854E-01  0.78738689009E-01  0.51100000000E-03 0. -1.
         11    1    4    4    0    0  0.12961562717E-01 -0.21064531834E-01  0.42512784341E-01  0.49186528266E-01  0.51100000000E-03 0.  1.
</event>
<event>
 8    1  0.1084146E+005  0.1043930E+01  0.7957747E-01            NaN
         13   -1    0    0    0    0  0.00000000000E+00  0.00000000000E+00  0.74505805969E-08  0.10566000000E+00  0.10566000000E+00 0. -1.
     999900   -1    0    0    0    0 -0.00000000000E+00 -0.00000000000E+00 -0.74505805969E-08  0.93827000000E+00  0.93827000000E+00 0.  1.
     999902    2    1    2    0    0  0.14953702220E-02  0.19908904059E-01 -0.12233109995E-01  0.10205152702E+01  0.10202466207E+01 0.  0.
     999903    2    3    3    0    0  0.79872198285E-01  0.10276491024E+00 -0.19079232614E-01  0.13312870596E+00  0.20470476302E-01 0.  0.
         14    1    1    2    0    0 -0.14953702220E-02 -0.19908904059E-01  0.12233109995E-01  0.23414729831E-01  0.00000000000E+00 0. -1.
     999901    1    3    3    0    0 -0.78376828063E-01 -0.82856006177E-01  0.68461226189E-02  0.88738656421E+00  0.88000000000E+00 0.  1.
        -11    1    4    4    0    0  0.33288923463E-01  0.30343381405E-01 -0.12595625640E-01  0.46773754678E-01  0.51100000000E-03 0. -1.
         11    1    4    4    0    0  0.46583274822E-01  0.72421528830E-01 -0.64836069735E-02  0.86354951286E-01  0.51100000000E-03 0.  1.
</event>
<event>
 8    1  0.1139747E+005  0.1043930E+01  0.7957747E-01            NaN
         13   -1    0    0    0    0  0.00000000000E+00  0.00000000000E+00  0.74505805969E-08  0.10566000000E+00  0.10566000000E+00 0. -1.
     999900   -1    0    0    0    0 -0.00000000000E+00 -0.00000000000E+00 -0.74505805969E-08  0.93827000000E+00  0.93827000000E+00 0. -1.
     999902    2    1    2    0    0  0.70673425972E-02 -0.13612863005E-01 -0.18372905995E-01  0.10199963199E+01  0.10197154856E+01 0.  0.
     999903    2    3    3    0    0  0.13428188539E-01 -0.38976045768E-01  0.12039448411E+00  0.12873870280E+00  0.19477510219E-01 0.  0.
         14    1    1    2    0    0 -0.70673425972E-02  0.13612863005E-01  0.18372905995E-01  0.23933680145E-01  0.00000000000E+00 0. -1.
     999901    1    3    3    0    0 -0.63608459419E-02  0.25363182763E-01 -0.13876739010E+00  0.89125761705E+00  0.88000000000E+00 0. -1.
        -11    1    4    4    0    0 -0.12402352240E-02 -0.24466824026E-01  0.56239245546E-01  0.61345558289E-01  0.51100000000E-03 0. -1.
         11    1    4    4    0    0  0.14668423763E-01 -0.14509221742E-01  0.64155238562E-01  0.67393144512E-01  0.51100000000E-03 0.  1.
</event>
<event>
 8    1  0.1084146E+005  0.1043930E+01  0.7957747E-01            NaN
         13   -1    0    0    0    0  0.00000000000E+00  0.00000000000E+00  0.74505805969E-08  0.10566000000E+00  0.10566000000E+00 0. -1.
     999900   -1    0    0    0    0 -0.00000000000E+00 -0.00000000000E+00 -0.74505805969E-08  0.93827000000E+00  0.93827000000E+00 0.  1.
     999902    2    1    2    0    0  0.19715377988E-01  0.62972403316E-02  0.10837097370E-01  0.10205677646E+01  0.10203003323E+01 0.  0.
     999903    2    3    3    0    0  0.68424758352E-01  0.61922285877E-01  0.92500929291E-01  0.13369926762E+00  0.28332934889E-01 0.  0.
         14    1    1    2    0    0 -0.19715377988E-01 -0.62972403316E-02 -0.10837097370E-01  0.23362235433E-01  0.00000000000E+00 0.  1.
     999901    1    3    3    0    0 -0.48709380364E-01 -0.55625045546E-01 -0.81663831922E-01  0.88686849694E+00  0.88000000000E+00 0.  1.
        -11    1    4    4    0    0  0.43862197455E-01  0.51667944268E-01  0.78182674010E-01  0.10347106101E+00  0.51100000000E-03 0.  1.
         11    1    4    4    0    0  0.24562560897E-01  0.10254341609E-01  0.14318255282E-01  0.30228206612E-01  0.51100000000E-03 0. -1.
</event>
<event>
 8    1  0.1084146E+005  0.1043930E+01  0.7957747E-01            NaN
         13   -1    0    0    0    0  0.00000000000E+00  0.00000000000E+00  0.74505805969E-08  0.10566000000E+00  0.10566000000E+00 0. -1.
     999900   -1    0    0    0    0 -0.00000000000E+00 -0.00000000000E+00 -0.74505805969E-08  0.93827000000E+00  0.93827000000E+00 0. -1.
     999902    2    1    2    0    0 -0.31940919871E-02  0.19226923159E-01  0.13801162634E-01  0.10200480217E+01  0.10197684137E+01 0.  0.
     999903    2    3    3    0    0  0.77250491923E-01  0.97979731099E-01  0.40323223126E-01  0.13248013385E+00  0.18903897297E-01 0.  0.
         14    1    1    2    0    0  0.31940919871E-02 -0.19226923159E-01 -0.13801162634E-01  0.23881978306E-01  0.00000000000E+00 0. -1.
     999901    1    3    3    0    0 -0.80444583910E-01 -0.78752807941E-01 -0.26522060491E-01  0.88756788784E+00  0.88000000000E+00 0.  1.
        -11    1    4    4    0    0  0.38365204621E-01  0.54126221493E-01  0.30614287998E-01  0.73068683643E-01  0.51100000000E-03 0.  1.
         11    1    4    4    0    0  0.38885287301E-01  0.43853509606E-01  0.97089351274E-02  0.59411450206E-01  0.51100000000E-03 0. -1.
</event>
<event>
 8    1  0.1084146E+005  0.1043930E+01  0.7957747E-01            NaN
         13   -1    0    0    0    0  0.00000000000E+00  0.00000000000E+00  0.74505805969E-08  0.10566000000E+00  0.10566000000E+00 0.  1.
     999900   -1    0    0    0    0 -0.00000000000E+00 -0.00000000000E+00 -0.74505805969E-08  0.93827000000E+00  0.93827000000E+00 0.  1.
     999902    2    1    2    0    0 -0.21565944068E-01  0.92931390504E-02  0.15852133274E-02  0.10203935330E+01  0.10201220500E+01 0.  0.
     999903    2    3    3    0    0 -0.98863827857E-01 -0.84224351858E-01 -0.13014417653E-01  0.13194903099E+00  0.19322883032E-01 0.  0.
         14    1    1    2    0    0  0.21565944068E-01 -0.92931390504E-02 -0.15852133274E-02  0.23536466987E-01  0.00000000000E+00 0.  1.
     999901    1    3    3    0    0  0.77297883789E-01  0.93517490909E-01  0.14599630981E-01  0.88844450202E+00  0.88000000000E+00 0.  1.
        -11    1    4    4    0    0 -0.23436335348E-01 -0.23288382556E-01 -0.11442074052E-01  0.34968453729E-01  0.51100000000E-03 0. -1.
         11    1    4    4    0    0 -0.75427492509E-01 -0.60935969302E-01 -0.15723436017E-02  0.96980577264E-01  0.51100000000E-03 0.  1.
</event>
<event>
 8    1  0.1084146E+005  0.1043930E+01  0.7957747E-01            NaN
         13   -1    0    0    0    0  0.00000000000E+00  0.00000000000E+00  0.74505805969E-08  0.10566000000E+00  0.10566000000E+00 0.  1.
     999900   -1    0    0    0    0 -0.00000000000E+00 -0.00000000000E+00 -0.74505805969E-08  0.93827000000E+00  0.93827000000E+00 0.  1.
     999902    2    1    2    0    0  0.21115866317E-01  0.10805632400E-02  0.25706939586E-02  0.10226308006E+01  0.10224089683E+01 0.  0.
     999903    2    3    3    0    0 -0.38945013801E-01 -0.12103745937E+00 -0.23432212652E-01  0.13179059501E+00  0.25552136339E-01 0.  0.
         14    1    1    2    0    0 -0.21115866317E-01 -0.10805632400E-02 -0.25706939586E-02  0.21299199390E-01  0.00000000000E+00 0. -1.
     999901    1    3    3    0    0  0.60060880118E-01  0.12211802261E+00  0.26002906611E-01  0.89084020560E+00  0.88000000000E+00 0.  1.
        -11    1    4    4    0    0  0.15483705282E-02 -0.17842643457E-01  0.20772727570E-02  0.18037005293E-01  0.51100000000E-03 0. -1.
         11    1    4    4    0    0 -0.40493384329E-01 -0.10319481591E+00 -0.25509485409E-01  0.11375358971E+00  0.51100000000E-03 0.  1.
</event>
<event>
 8    1  0.1084146E+005  0.1043930E+01  0.7957747E-01            NaN
         13   -1    0    0    0    0  0.00000000000E+00  0.00000000000E+00  0.74505805969E-08  0.10566000000E+00  0.10566000000E+00 0. -1.
     999900   -1    0    0    0    0 -0.00000000000E+00 -0.00000000000E+00 -0.74505805969E-08  0.93827000000E+00  0.93827000000E+00 0. -1.
     999902    2    1    2    0    0  0.16784617350E-01  0.16947595247E-01  0.40630632036E-02  0.10197338671E+01  0.10194467651E+01 0.  0.
     999903    2    3    3    0    0  0.63518733823E-02  0.62849775727E-01 -0.11247146982E+00  0.13080408940E+00  0.21666510433E-01 0.  0.
         14    1    1    2    0    0 -0.16784617350E-01 -0.16947595247E-01 -0.40630632036E-02  0.24196132890E-01  0.00000000000E+00 0.  1.
     999901    1    3    3    0    0  0.10432743967E-01 -0.45902180480E-01  0.11653453303E+00  0.88892977771E+00  0.88000000000E+00 0.  1.
        -11    1    4    4    0    0 -0.56171613624E-02  0.27075261793E-01 -0.34770160372E-01  0.44428003289E-01  0.51100000000E-03 0. -1.
         11    1    4    4    0    0  0.11969034745E-01  0.35774513934E-01 -0.77701309450E-01  0.86376086107E-01  0.51100000000E-03 0.  1.
</event>
<event>
 8    1  0.1084146E+005  0.1043930E+01  0.7957747E-01            NaN
         13   -1    0    0    0    0  0.00000000000E+00  0.00000000000E+00  0.74505805969E-08  0.10566000000E+00  0.10566000000E+00 0. -1.
     999900   -1    0    0    0    0 -0.00000000000E+00 -0.00000000000E+00 -0.74505805969E-08  0.93827000000E+00  0.93827000000E+00 0. -1.
     999902    2    1    2    0    0 -0.11597680072E-01 -0.15195010899E-01  0.13533544694E-01  0.10205088264E+01  0.10202400274E+01 0.  0.
     999903    2    3    3    0    0  0.87267083315E-01 -0.87085897044E-01 -0.39252895078E-01  0.13049256300E+00  0.16971208917E-01 0.  0.
         14    1    1    2    0    0  0.11597680072E-01  0.15195010899E-01 -0.13533544694E-01  0.23421173567E-01  0.00000000000E+00 0. -1.
     999901    1    3    3    0    0 -0.98864763388E-01  0.71890886145E-01  0.52786439772E-01  0.89001626343E+00  0.88000000000E+00 0.  1.
        -11    1    4    4    0    0  0.36566349529E-01 -0.26918252828E-01 -0.19155534132E-01  0.49283728168E-01  0.51100000000E-03 0.  1.
         11    1    4    4    0    0  0.50700733786E-01 -0.60167644215E-01 -0.20097360946E-01  0.81208834832E-01  0.51100000000E-03 0. -1.
</event>
<event>
 8    1  0.1084146E+005  0.1043930E+01  0.7957747E-01            NaN
         13   -1    0    0    0    0  0.00000000000E+00  0.00000000000E+00  0.74505805969E-08  0.10566000000E+00  0.10566000000E+00 0.  1.
     999900   -1    0    0    0    0 -0.00000000000E+00 -0.00000000000E+00 -0.74505805969E-08  0.93827000000E+00  0.93827000000E+00 0.  1.
     999902    2    1    2    0    0 -0.87690438283E-02 -0.15802863005E-01 -0.13264061795E-01  0.10215121066E+01  0.10212660878E+01 0.  0.
     999903    2    3    3    0    0 -0.11717041654E+00  0.11723049986E-01  0.55250059370E-01  0.13179152222E+00  0.21215556929E-01 0.  0.
         14    1    1    2    0    0  0.87690438283E-02  0.15802863005E-01  0.13264061795E-01  0.22417893392E-01  0.00000000000E+00 0.  1.
     999901    1    3    3    0    0  0.10840137271E+00 -0.27525912991E-01 -0.68514121165E-01  0.88972058439E+00  0.88000000000E+00 0.  1.
        -11    1    4    4    0    0 -0.19804973155E-01 -0.57213218632E-02  0.73996609536E-02  0.21908596230E-01  0.51100000000E-03 0. -1.
         11    1    4    4    0    0 -0.97365443380E-01  0.17444371849E-01  0.47850398416E-01  0.10988292599E+00  0.51100000000E-03 0.  1.
</event>
<event>
 8    1  0.1084146E+005  0.1043930E+01  0.7957747E-01            NaN
         13   -1    0    0    0    0  0.00000000000E+00  0.00000000000E+00  0.74505805969E-08  0.10566000000E+00  0.10566000000E+00 0. -1.
     999900   -1    0    0    0    0 -0.00000000000E+00 -0.00000000000E+00 -0.74505805969E-08  0.93827000000E+00  0.93827000000E+00 0.  1.
     999902    2    1    2    0    0 -0.12219607703E-01  0.17068421523E-01  0.94145672313E-02  0.10209238290E+01  0.10206645780E+01 0.  0.
     999903    2    3    3    0    0  0.49943440682E-01 -0.41619846062E-02 -0.11755088176E+00  0.12938852410E+00  0.20285733528E-01 0.  0.
         14    1    1    2    0    0  0.12219607703E-01 -0.17068421523E-01 -0.94145672313E-02  0.23006170952E-01  0.00000000000E+00 0. -1.
     999901    1    3    3    0    0 -0.62163048385E-01  0.21230406129E-01  0.12696544899E+00  0.89153530495E+00  0.88000000000E+00 0. -1.
        -11    1    4    4    0    0  0.29666630338E-01 -0.16782756716E-02 -0.44331494782E-01  0.53371041918E-01  0.51100000000E-03 0.  1.
         11    1    4    4    0    0  0.20276810344E-01 -0.24837089347E-02 -0.73219386973E-01  0.76017482184E-01  0.51100000000E-03 0. -1.
</event>
<event>
 8    1  0.1084146E+005  0.1043930E+01  0.7957747E-01            NaN
         13   -1    0    0    0    0  0.00000000000E+00  0.00000000000E+00  0.74505805969E-08  0.10566000000E+00  0.10566000000E+00 0.  1.
     999900   -1    0    0    0    0 -0.00000000000E+00 -0.00000000000E+00 -0.74505805969E-08  0.93827000000E+00  0.93827000000E+00 0. -1.
     999902    2    1    2    0    0  0.16839545315E-01  0.40662755912E-02  0.18491985261E-01  0.10185911286E+01  0.10182759100E+01 0.  0.
     999903    2    3    3    0    0 -0.85477376658E-01 -0.80590936147E-01 -0.42706687286E-01  0.12652561896E+00  0.19585458996E-01 0.  0.
         14    1    1    2    0    0 -0.16839545315E-01 -0.40662755912E-02 -0.18491985261E-01  0.25338871373E-01  0.00000000000E+00 0. -1.
     999901    1    3    3    0    0  0.10231692197E+00  0.84657211738E-01  0.61198672547E-01  0.89206550967E+00  0.88000000000E+00 0.  1.
        -11    1    4    4    0    0 -0.32551742317E-01 -0.43154804266E-01 -0.23195162246E-01  0.58823717425E-01  0.51100000000E-03 0. -1.
         11    1    4    4    0    0 -0.52925634341E-01 -0.37436131881E-01 -0.19511525040E-01  0.67701901532E-01  0.51100000000E-03 0.  1.
</event>
<event>
 8    1  0.1084146E+005  0.1043930E+01  0.7957747E-01            NaN
         13   -1    0    0    0    0  0.00000000000E+00  0.00000000000E+00  0.74505805969E-08  0.10566000000E+00  0.10566000000E+00 0. -1.
     999900   -1    0    0    0    0 -0.00000000000E+00 -0.00000000000E+00 -0.74505805969E-08  0.93827000000E+00  0.93827000000E+00 0.  1.
     999902    2    1    2    0    0  0.24663289230E-01 -0.44400996896E-03 -0.11066797748E-02  0.10192379017E+01  0.10189387619E+01 0.  0.
     999903    2    3    3    0    0 -0.12176755099E+00  0.44846255150E-02  0.27469434132E-01  0.12666696515E+00  0.21035729292E-01 0.  0.
         14    1    1    2    0    0 -0.24663289230E-01  0.44400996896E-03  0.11066797748E-02  0.24692098344E-01  0.00000000000E+00 0. -1.
     999901    1    3    3    0    0  0.14643084022E+00 -0.49286354839E-02 -0.28576113906E-01  0.89257093651E+00  0.88000000000E+00 0.  1.
        -11    1    4    4    0    0 -0.92251307925E-02 -0.33248754792E-02  0.68788970457E-02  0.11989085897E-01  0.51100000000E-03 0.  1.
         11    1    4    4    0    0 -0.11254242020E+00  0.78095009942E-02  0.20590537086E-01  0.11467787925E+00  0.51100000000E-03 0. -1.
</event>
<event>
 8    1  0.1084146E+005  0.1043930E+01  0.7957747E-01            NaN
         13   -1    0    0    0    0  0.00000000000E+00  0.00000000000E+00  0.74505805969E-08  0.10566000000E+00  0.10566000000E+00 0.  1.
     999900   -1    0    0    0    0 -0.00000000000E+00 -0.00000000000E+00 -0.74505805969E-08  0.93827000000E+00  0.93827000000E+00 0.  1.
     999902    2    1    2    0    0  0.18656951075E-01 -0.20213360039E-03 -0.14617384179E-01  0.10202278777E+01  0.10199525145E+01 0.  0.
     999903    2    3    3    0    0 -0.17395223415E-01 -0.51178038166E-01 -0.11953058737E+00  0.13179944370E+00  0.12717965790E-01 0.  0.
         14    1    1    2    0    0 -0.18656951075E-01  0.20213360039E-03  0.14617384179E-01  0.23702122303E-01  0.00000000000E+00 0.  1.
     999901    1    3    3    0    0  0.36052174490E-01  0.50975904566E-01  0.10491320319E+00  0.88842843400E+00  0.88000000000E+00 0. -1.
        -11    1    4    4    0    0 -0.13003575313E-01 -0.48207567500E-01 -0.10367630880E+00  0.11507432669E+00  0.51100000000E-03 0. -1.
         11    1    4    4    0    0 -0.43916481023E-02 -0.29704706665E-02 -0.15854278573E-01  0.16725117013E-01  0.51100000000E-03 0.  1.
</event>
<event>
 8    1  0.1084146E+005  0.1043930E+01  0.7957747E-01            NaN
         13   -1    0    0    0    0  0.00000000000E+00  0.00000000000E+00  0.74505805969E-08  0.10566000000E+00  0.10566000000E+00 0. -1.
     999900   -1    0    0    0    0 -0.00000000000E+00 -0.00000000000E+00 -0.74505805969E-08  0.93827000000E+00  0.93827000000E+00 0. -1.
     999902    2    1    2    0    0  0.20743831126E-01 -0.10208607443E-01  0.48371463763E-02  0.10203096659E+01  0.10200362220E+01 0.  0.
     999903    2    3    3    0    0 -0.12637848913E-01 -0.94994741896E-01  0.85605869295E-01  0.13192539562E+00  0.29870201528E-01 0.  0.
         14    1    1    2    0    0 -0.20743831126E-01  0.10208607443E-01 -0.48371463763E-02  0.23620334053E-01  0.00000000000E+00 0.  1.
     999901    1    3    3    0    0  0.33381680039E-01  0.84786134453E-01 -0.80768722919E-01  0.88838427032E+00  0.88000000000E+00 0. -1.
        -11    1    4    4    0    0 -0.11434478706E-02 -0.25661735349E-01  0.73082471755E-02  0.26711490635E-01  0.51100000000E-03 0.  1.
         11    1    4    4    0    0 -0.11494401042E-01 -0.69333006547E-01  0.78297622120E-01  0.10521390499E+00  0.51100000000E-03 0. -1.
</event>
<event>
 8    1  0.1084146E+005  0.1043930E+01  0.7957747E-01            NaN
         13   -1    0    0    0    0  0.00000000000E+00  0.00000000000E+00  0.74505805969E-08  0.10566000000E+00  0.10566000000E+00 0. -1.
     999900   -1    0    0    0    0 -0.00000000000E+00 -0.00000000000E+00 -0.74505805969E-08  0.93827000000E+00  0.93827000000E+00 0.  1.
     999902    2    1    2    0    0 -0.23754460859E-01 -0.22344439682E-02 -0.25807403029E-02  0.10199315132E+01  0.10196491378E+01 0.  0.
     999903    2    3    3    0    0  0.11498853745E+00  0.13944683751E-04  0.50811058871E-01  0.12746002394E+00  0.21022132613E-01 0.  0.
         14    1    1    2    0    0  0.23754460859E-01  0.22344439682E-02  0.25807403029E-02  0.23998486849E-01  0.00000000000E+00 0. -1.
     999901    1    3    3    0    0 -0.13874299831E+00 -0.22483886519E-02 -0.53391799174E-01  0.89247148921E+00  0.88000000000E+00 0.  1.
        -11    1    4    4    0    0  0.25923292159E-01  0.80015283531E-02  0.15988334826E-01  0.31494912348E-01  0.51100000000E-03 0. -1.
         11    1    4    4    0    0  0.89065245294E-01 -0.79875836694E-02  0.34822724045E-01  0.95965111593E-01  0.51100000000E-03 0.  1.
</event>
<event>
 8    1  0.1084146E+005  0.1043930E+01  0.7957747E-01            NaN
         13   -1    0    0    0    0  0.00000000000E+00  0.00000000000E+00  0.74505805969E-08  0.10566000000E+00  0.10566000000E+00 0.  1.
     999900   -1    0    0    0    0 -0.00000000000E+00 -0.00000000000E+00 -0.74505805969E-08  0.93827000000E+00  0.93827000000E+00 0. -1.
     999902    2    1    2    0    0  0.23480865564E-02  0.18237587324E-01 -0.16052330692E-01  0.10195209766E+01  0.10192287385E+01 0.  0.
     999903    2    3    3    0    0  0.74037138315E-01 -0.10214538331E+00 -0.12571596561E-01  0.12842979426E+00  0.20518036756E-01 0.  0.
         14    1    1    2    0    0 -0.23480865564E-02 -0.18237587324E-01  0.16052330692E-01  0.24409023383E-01  0.00000000000E+00 0.  1.
     999901    1    3    3    0    0 -0.71689051759E-01  0.12038297064E+00 -0.34807341308E-02  0.89109118236E+00  0.88000000000E+00 0.  1.
        -11    1    4    4    0    0  0.52769863099E-01 -0.65127836076E-01 -0.16916147667E-01  0.85514388592E-01  0.51100000000E-03 0.  1.
         11    1    4    4    0    0  0.21267275216E-01 -0.37017547236E-01  0.43445511064E-02  0.42915405669E-01  0.51100000000E-03 0. -1.
</event>
<event>
 8    1  0.1084146E+005  0.1043930E+01  0.7957747E-01            NaN
         13   -1    0    0    0    0  0.00000000000E+00  0.00000000000E+00  0.74505805969E-08  0.10566000000E+00  0.10566000000E+00 0. -1.
     999900   -1    0    0    0    0 -0.00000000000E+00 -0.00000000000E+00 -0.74505805969E-08  0.93827000000E+00  0.93827000000E+00 0. -1.
     999902    2    1    2    0    0 -0.72519580623E-02  0.22417973570E-01 -0.31907855640E-02  0.10201531721E+01  0.10198760498E+01 0.  0.
     999903    2    3    3    0    0  0.46228334451E-01 -0.10619879808E+00 -0.50510199632E-01  0.12794157014E+00  0.20062938064E-01 0.  0.
         14    1    1    2    0    0  0.72519580623E-02 -0.22417973570E-01  0.31907855640E-02  0.23776827947E-01  0.00000000000E+00 0. -1.
     999901    1    3    3    0    0 -0.53480292514E-01  0.12861677165E+00  0.47319414068E-01  0.89221160191E+00  0.88000000000E+00 0. -1.
        -11    1    4    4    0    0  0.31928588675E-01 -0.91780389699E-01 -0.43290907827E-01  0.10638345045E+00  0.51100000000E-03 0.  1.
         11    1    4    4    0    0  0.14299745776E-01 -0.14418408380E-01 -0.72192918055E-02  0.21558119692E-01  0.51100000000E-03 0. -1.
</event>
<event>
 8    1  0.1084146E+005  0.1043930E+01  0.7957747E-01            NaN
         13   -1    0    0    0    0  0.00000000000E+00  0.00000000000E+00  0.74505805969E-08  0.10566000000E+00  0.10566000000E+00 0.  1.
     999900   -1    0    0    0    0 -0.00000000000E+00 -0.00000000000E+00 -0.74505805969E-08  0.93827000000E+00  0.93827000000E+00 0.  1.
     999902    2    1    2    0    0 -0.16054045059E-01 -0.28045737028E-02  0.17415231689E-01  0.10200786208E+01  0.10197997373E+01 0.  0.
     999903    2    3    3    0    0 -0.28292520708E-01  0.10465735608E+00 -0.67676597771E-01  0.12938312506E+00  0.20155452232E-01 0.  0.
         14    1    1    2    0    0  0.16054045059E-01  0.28045737028E-02 -0.17415231689E-01  0.23851379231E-01  0.00000000000E+00 0. -1.
     999901    1    3    3    0    0  0.12238475649E-01 -0.10746192978E+00  0.85091829461E-01  0.89069549571E+00  0.88000000000E+00 0. -1.
        -11    1    4    4    0    0 -0.26184339009E-01  0.61048232054E-01 -0.37196615265E-01  0.76133800341E-01  0.51100000000E-03 0.  1.
         11    1    4    4    0    0 -0.21081816989E-02  0.43609124024E-01 -0.30479982506E-01  0.53249324717E-01  0.51100000000E-03 0. -1.
</event>
<event>
 8    1  0.1084146E+005  0.1043930E+01  0.7957747E-01            NaN
         13   -1    0    0    0    0  0.00000000000E+00  0.00000000000E+00  0.74505805969E-08  0.10566000000E+00  0.10566000000E+00 0.  1.
     999900   -1    0    0    0    0 -0.00000000000E+00 -0.00000000000E+00 -0.74505805969E-08  0.93827000000E+00  0.93827000000E+00 0.  1.
     999902    2    1    2    0    0  0.12696469679E-01  0.95400662677E-02  0.19905642688E-01  0.10184653614E+01  0.10181469661E+01 0.  0.
     999903    2    3    3    0    0 -0.51194602060E-01 -0.93867247467E-01  0.69336104814E-01  0.12873590133E+00  0.18261693061E-01 0.  0.
         14    1    1    2    0    0 -0.12696469679E-01 -0.95400662677E-02 -0.19905642688E-01  0.25464638571E-01  0.00000000000E+00 0.  1.
     999901    1    3    3    0    0  0.63891071739E-01  0.10340731374E+00 -0.49430462125E-01  0.88972946010E+00  0.88000000000E+00 0.  1.
        -11    1    4    4    0    0 -0.25931474948E-01 -0.29694971328E-01  0.27514852270E-01  0.48078695194E-01  0.51100000000E-03 0. -1.
         11    1    4    4    0    0 -0.25263127113E-01 -0.64172276139E-01  0.41821252544E-01  0.80657206136E-01  0.51100000000E-03 0.  1.
</event>
<event>
 8    1  0.1084146E+005  0.1043930E+01  0.7957747E-01            NaN
         13   -1    0    0    0    0  0.00000000000E+00  0.00000000000E+00  0.74505805969E-08  0.10566000000E+00  0.10566000000E+00 0.  1.
     999900   -1    0    0    0    0 -0.00000000000E+00 -0.00000000000E+00 -0.74505805969E-08  0.93827000000E+00  0.93827000000E+00 0.  1.
     999902    2    1    2    0    0 -0.17209566753E-01  0.70261202648E-02 -0.14893725332E-01  0.10201107093E+01  0.10198325846E+01 0.  0.
     999903    2    3    3    0    0  0.37468454218E-01  0.88090608198E-02 -0.12429079252E+00  0.13165104048E+00  0.20057685340E-01 0.  0.
         14    1    1    2    0    0  0.17209566753E-01 -0.70261202648E-02  0.14893725332E-01  0.23819290671E-01  0.00000000000E+00 0.  1.
     999901    1    3    3    0    0 -0.54678020970E-01 -0.17829405550E-02  0.10939706719E+00  0.88845966884E+00  0.88000000000E+00 0. -1.
        -11    1    4    4    0    0  0.12969078424E-01 -0.64926971216E-02 -0.41318883638E-01  0.43793417053E-01  0.51100000000E-03 0. -1.
         11    1    4    4    0    0  0.24499375794E-01  0.15301757941E-01 -0.82971908883E-01  0.87857623432E-01  0.51100000000E-03 0.  1.
</event>
<event>
 8    1  0.1084146E+005  0.1043930E+01  0.7957747E-01            NaN
         13   -1    0    0    0    0  0.00000000000E+00  0.00000000000E+00  0.74505805969E-08  0.10566000000E+00  0.10566000000E+00 0. -1.
     999900   -1    0    0    0    0 -0.00000000000E+00 -0.00000000000E+00 -0.74505805969E-08  0.93827000000E+00  0.93827000000E+00 0. -1.
     999902    2    1    2    0    0  0.91389961430E-02 -0.18972538215E-01 -0.64045684926E-02  0.10219187085E+01  0.10216816284E+01 0.  0.
     999903    2    3    3    0    0  0.40040164602E-01 -0.67603254583E-01  0.10503639183E+00  0.13302112359E+00  0.22103413765E-01 0.  0.
         14    1    1    2    0    0 -0.91389961430E-02  0.18972538215E-01  0.64045684926E-02  0.22011291521E-01  0.00000000000E+00 0.  1.
     999901    1    3    3    0    0 -0.30901168459E-01  0.48630716368E-01 -0.11144096032E+00  0.88889758489E+00  0.88000000000E+00 0.  1.
        -11    1    4    4    0    0  0.78113980985E-02 -0.33123179661E-01  0.50459032575E-01  0.60864916500E-01  0.51100000000E-03 0. -1.
         11    1    4    4    0    0  0.32228766504E-01 -0.34480074922E-01  0.54577359257E-01  0.72156207089E-01  0.51100000000E-03 0.  1.
</event>
<event>
 8    1  0.1084146E+005  0.1043930E+01  0.7957747E-01            NaN
         13   -1    0    0    0    0  0.00000000000E+00  0.00000000000E+00  0.74505805969E-08  0.10566000000E+00  0.10566000000E+00 0. -1.
     999900   -1    0    0    0    0 -0.00000000000E+00 -0.00000000000E+00 -0.74505805969E-08  0.93827000000E+00  0.93827000000E+00 0. -1.
     999902    2    1    2    0    0 -0.19859536401E-01  0.10611875695E-01 -0.30698144796E-02  0.10212047530E+01  0.10209518650E+01 0.  0.
     999903    2    3    3    0    0 -0.95970109225E-01 -0.86838130896E-01  0.24178865754E-01  0.13214243026E+00  0.11219691782E-01 0.  0.
         14    1    1    2    0    0  0.19859536401E-01 -0.10611875695E-01  0.30698144796E-02  0.22725247035E-01  0.00000000000E+00 0.  1.
     999901    1    3    3    0    0  0.76110572823E-01  0.97450006591E-01 -0.27248680233E-01  0.88906232271E+00  0.88000000000E+00 0.  1.
        -11    1    4    4    0    0 -0.25489729090E-01 -0.21539122092E-01  0.14394418894E-02  0.33406484154E-01  0.51100000000E-03 0.  1.
         11    1    4    4    0    0 -0.70480380135E-01 -0.65299008804E-01  0.22739423864E-01  0.98735946106E-01  0.51100000000E-03 0. -1.
</event>
<event>
 8    1  0.1084146E+005  0.1043930E+01  0.7957747E-01            NaN
         13   -1    0    0    0    0  0.00000000000E+00  0.00000000000E+00  0.74505805969E-08  0.10566000000E+00  0.10566000000E+00 0. -1.
     999900   -1    0    0    0    0 -0.00000000000E+00 -0.00000000000E+00 -0.74505805969E-08  0.93827000000E+00  0.93827000000E+00 0.  1.
     999902    2    1    2    0    0  0.70127507767E-02 -0.50017947335E-02 -0.23539728714E-01  0.10188637787E+01  0.10185553908E+01 0.  0.
     999903    2    3    3    0    0  0.11716326103E+00 -0.55868683855E-01  0.56998008603E-02  0.13005810508E+00  0.58380986937E-02 0.  0.
         14    1    1    2    0    0 -0.70127507767E-02  0.50017947335E-02  0.23539728714E-01  0.25066221334E-01  0.00000000000E+00 0. -1.
     999901    1    3    3    0    0 -0.11015051025E+00  0.50866889121E-01 -0.29239529574E-01  0.88880567359E+00  0.88000000000E+00 0. -1.
        -11    1    4    4    0    0  0.22852430062E-01 -0.11990843709E-01 -0.91465241662E-03  0.25828503686E-01  0.51100000000E-03 0.  1.
         11    1    4    4    0    0  0.94310830963E-01 -0.43877840145E-01  0.66144532769E-02  0.10422960139E+00  0.51100000000E-03 0. -1.
</event>
<event>
 8    1  0.1084146E+005  0.1043930E+01  0.7957747E-01            NaN
         13   -1    0    0    0    0  0.00000000000E+00  0.00000000000E+00  0.74505805969E-08  0.10566000000E+00  0.10566000000E+00 0.  1.
     999900   -1    0    0    0    0 -0.00000000000E+00 -0.00000000000E+00 -0.74505805969E-08  0.93827000000E+00  0.93827000000E+00 0.  1.
     999902    2    1    2    0    0  0.22540744364E-01 -0.28665896280E-02  0.61203378470E-02  0.10203978724E+01  0.10201264907E+01 0.  0.
     999903    2    3    3    0    0  0.61037239064E-01  0.10447754623E+00  0.48646750649E-01  0.13202112837E+00  0.20541902746E-01 0.  0.
         14    1    1    2    0    0 -0.22540744364E-01  0.28665896280E-02 -0.61203378470E-02  0.23532127569E-01  0.00000000000E+00 0. -1.
     999901    1    3    3    0    0 -0.38496494700E-01 -0.10734413586E+00 -0.42526412802E-01  0.88837674406E+00  0.88000000000E+00 0.  1.
        -11    1    4    4    0    0  0.24756260310E-01  0.32298305900E-01  0.75858775569E-02  0.41398788000E-01  0.51100000000E-03 0. -1.
         11    1    4    4    0    0  0.36280978754E-01  0.72179240327E-01  0.41060873092E-01  0.90622340367E-01  0.51100000000E-03 0.  1.
</event>
<event>
 8    1  0.1084146E+005  0.1043930E+01  0.7957747E-01            NaN
         13   -1    0    0    0    0  0.00000000000E+00  0.00000000000E+00  0.74505805969E-08  0.10566000000E+00  0.10566000000E+00 0. -1.
     999900   -1    0    0    0    0 -0.00000000000E+00 -0.00000000000E+00 -0.74505805969E-08  0.93827000000E+00  0.93827000000E+00 0. -1.
     999902    2    1    2    0    0  0.14703759501E-01 -0.10229012923E-02 -0.18088853259E-01  0.10205964730E+01  0.10203297051E+01 0.  0.
     999903    2    3    3    0    0  0.12686314976E+00  0.11636945941E-01  0.29413057438E-01  0.13211662962E+00  0.18973628933E-01 0.  0.
         14    1    1    2    0    0 -0.14703759501E-01  0.10229012923E-02  0.18088853259E-01  0.23333527011E-01  0.00000000000E+00 0. -1.
     999901    1    3    3    0    0 -0.11215939026E+00 -0.12659847234E-01 -0.47501910697E-01  0.88847984337E+00  0.88000000000E+00 0. -1.
        -11    1    4    4    0    0  0.13088281207E-01 -0.10193013048E-02 -0.22766042369E-02  0.13333646462E-01  0.51100000000E-03 0.  1.
         11    1    4    4    0    0  0.11377486856E+00  0.12656247246E-01  0.31689661675E-01  0.11878298316E+00  0.51100000000E-03 0. -1.
</event>
<event>
 8    1  0.1084146E+005  0.1043930E+01  0.7957747E-01            NaN
         13   -1    0    0    0    0  0.00000000000E+00  0.00000000000E+00  0.74505805969E-08  0.10566000000E+00  0.10566000000E+00 0.  1.
     999900   -1    0    0    0    0 -0.00000000000E+00 -0.00000000000E+00 -0.74505805969E-08  0.93827000000E+00  0.93827000000E+00 0. -1.
     999902    2    1    2    0    0  0.18359960819E-02 -0.93072883243E-02 -0.21490795193E-01  0.10204384957E+01  0.10201680610E+01 0.  0.
     999903    2    3    3    0    0  0.56385410768E-01 -0.11444746398E+00 -0.29422485704E-01  0.13246720847E+00  0.20108259427E-01 0.  0.
         14    1    1    2    0    0 -0.18359960819E-02  0.93072883243E-02  0.21490795193E-01  0.23491504328E-01  0.00000000000E+00 0.  1.
     999901    1    3    3    0    0 -0.54549414686E-01  0.10514017565E+00  0.79316905110E-02  0.88797128720E+00  0.88000000000E+00 0.  1.
        -11    1    4    4    0    0  0.24889746739E-01 -0.57854343373E-01 -0.47641363443E-02  0.63163143177E-01  0.51100000000E-03 0.  1.
         11    1    4    4    0    0  0.31495664028E-01 -0.56593120603E-01 -0.24658349360E-01  0.69304065294E-01  0.51100000000E-03 0. -1.
</event>
<event>
 8    1  0.1084146E+005  0.1043930E+01  0.7957747E-01            NaN
         13   -1    0    0    0    0  0.00000000000E+00  0.00000000000E+00  0.74505805969E-08  0.10566000000E+00  0.10566000000E+00 0. -1.
     999900   -1    0    0    0    0 -0.00000000000E+00 -0.00000000000E+00 -0.74505805969E-08  0.93827000000E+00  0.93827000000E+00 0. -1.
     999902    2    1    2    0    0 -0.80960166870E-02 -0.14410738157E-01  0.15991819344E-01  0.10209310186E+01  0.10206719314E+01 0.  0.
     999903    2    3    3    0    0 -0.10121691777E+00 -0.82696033990E-01 -0.12915338922E-01  0.13291637476E+00  0.20407307964E-01 0.  0.
         14    1    1    2    0    0  0.80960166870E-02  0.14410738157E-01 -0.15991819344E-01  0.22998981420E-01  0.00000000000E+00 0.  1.
     999901    1    3    3    0    0  0.93120901084E-01  0.68285295832E-01  0.28907158266E-01  0.88801464382E+00  0.88000000000E+00 0. -1.
        -11    1    4    4    0    0 -0.18245663852E-01 -0.23909571673E-01  0.19715791865E-02  0.30144984864E-01  0.51100000000E-03 0. -1.
         11    1    4    4    0    0 -0.82971253919E-01 -0.58786462316E-01 -0.14886918108E-01  0.10277138989E+00  0.51100000000E-03 0.  1.
</event>
<event>
 8    1  0.1084146E+005  0.1043930E+01  0.7957747E-01            NaN
         13   -1    0    0    0    0  0.00000000000E+00  0.00000000000E+00  0.74505805969E-08  0.10566000000E+00  0.10566000000E+00 0. -1.
     999900   -1    0    0    0    0 -0.00000000000E+00 -0.00000000000E+00 -0.74505805969E-08  0.93827000000E+00  0.93827000000E+00 0. -1.
     999902    2    1    2    0    0  0.13641366121E-01 -0.18985091209E-01 -0.46617992498E-02  0.10200919437E+01  0.10198133754E+01 0.  0.
     999903    2    3    3    0    0 -0.26863034351E-01  0.11055398561E+00 -0.55299177590E-01  0.12824827857E+00  0.21114344971E-01 0.  0.
         14    1    1    2    0    0 -0.13641366121E-01  0.18985091209E-01  0.46617992498E-02  0.23838056341E-01  0.00000000000E+00 0. -1.
     999901    1    3    3    0    0  0.40504400472E-01 -0.12953907682E+00  0.50637378340E-01  0.89184366509E+00  0.88000000000E+00 0. -1.
        -11    1    4    4    0    0 -0.16294098177E-01  0.38432762029E-01 -0.28666869258E-01  0.50642130155E-01  0.51100000000E-03 0. -1.
         11    1    4    4    0    0 -0.10568936174E-01  0.72121223584E-01 -0.26632308332E-01  0.77606148411E-01  0.51100000000E-03 0.  1.
</event>
<event>
 8    1  0.1084146E+005  0.1043930E+01  0.7957747E-01            NaN
         13   -1    0    0    0    0  0.00000000000E+00  0.00000000000E+00  0.74505805969E-08  0.10566000000E+00  0.10566000000E+00 0.  1.
     999900   -1    0    0    0    0 -0.00000000000E+00 -0.00000000000E+00 -0.74505805969E-08  0.93827000000E+00  0.93827000000E+00 0.  1.
     999902    2    1    2    0    0 -0.22049122221E-01 -0.89168519963E-02 -0.20086871506E-02  0.10200614252E+01  0.10197821347E+01 0.  0.
     999903    2    3    3    0    0  0.80371155257E-02 -0.12283409338E+00 -0.41351158290E-01  0.13133753688E+00  0.19667754843E-01 0.  0.
         14    1    1    2    0    0  0.22049122221E-01  0.89168519963E-02  0.20086871506E-02  0.23868574828E-01  0.00000000000E+00 0.  1.
     999901    1    3    3    0    0 -0.30086237747E-01  0.11391724138E+00  0.39342471140E-01  0.88872388829E+00  0.88000000000E+00 0.  1.
        -11    1    4    4    0    0  0.20207285132E-02 -0.99455771840E-01 -0.39794455162E-01  0.10714193240E+00  0.51100000000E-03 0. -1.
         11    1    4    4    0    0  0.60163870125E-02 -0.23378321535E-01 -0.15567031285E-02  0.24195604479E-01  0.51100000000E-03 0.  1.
</event>
<event>
 8    1  0.1084146E+005  0.1043930E+01  0.7957747E-01            NaN
         13   -1    0    0    0    0  0.00000000000E+00  0.00000000000E+00  0.74505805969E-08  0.10566000000E+00  0.10566000000E+00 0. -1.
     999900   -1    0    0    0    0 -0.00000000000E+00 -0.00000000000E+00 -0.74505805969E-08  0.93827000000E+00  0.93827000000E+00 0. -1.
     999902    2    1    2    0    0 -0.21949345860E-01  0.87797089029E-02 -0.11153298349E-02  0.10202635463E+01  0.10199890209E+01 0.  0.
     999903    2    3    3    0    0  0.27991944973E-01  0.90888390115E-01  0.87250297447E-01  0.13063190780E+00  0.20194862955E-01 0.  0.
         14    1    1    2    0    0  0.21949345860E-01 -0.87797089029E-02  0.11153298349E-02  0.23666453742E-01  0.00000000000E+00 0.  1.
     999901    1    3    3    0    0 -0.49941290833E-01 -0.82108681212E-01 -0.88365627282E-01  0.88963163846E+00  0.88000000000E+00 0. -1.
        -11    1    4    4    0    0  0.12440573344E-01  0.69632690605E-01  0.66661735208E-01  0.97198392620E-01  0.51100000000E-03 0.  1.
         11    1    4    4    0    0  0.15551371629E-01  0.21255699510E-01  0.20588562239E-01  0.33433515180E-01  0.51100000000E-03 0. -1.
</event>
<event>
 8    1  0.1084146E+005  0.1043930E+01  0.7957747E-01            NaN
         13   -1    0    0    0    0  0.00000000000E+00  0.00000000000E+00  0.74505805969E-08  0.10566000000E+00  0.10566000000E+00 0.  1.
     999900   -1    0    0    0    0 -0.00000000000E+00 -0.00000000000E+00 -0.74505805969E-08  0.93827000000E+00  0.93827000000E+00 0.  1.
     999902    2    1    2    0    0 -0.17956119125E-01 -0.15403431058E-01  0.90572287240E-02  0.10185977815E+01  0.10182827305E+01 0.  0.
     999903    2    3    3    0    0  0.51280484576E-01  0.11387533884E+00  0.47541636864E-02  0.12645136749E+00  0.19237083298E-01 0.  0.
         14    1    1    2    0    0  0.17956119125E-01  0.15403431058E-01 -0.90572287240E-02  0.25332218508E-01  0.00000000000E+00 0.  1.
     999901    1    3    3    0    0 -0.69236603701E-01 -0.12927876990E+00  0.43030650376E-02  0.89214641400E+00  0.88000000000E+00 0. -1.
        -11    1    4    4    0    0  0.15363807737E-01  0.24475771678E-01 -0.59618353204E-02  0.29511262067E-01  0.51100000000E-03 0.  1.
         11    1    4    4    0    0  0.35916676839E-01  0.89399567166E-01  0.10715999007E-01  0.96940105428E-01  0.51100000000E-03 0. -1.
</event>
<event>
 8    1  0.1084146E+005  0.1043930E+01  0.7957747E-01            NaN
         13   -1    0    0    0    0  0.00000000000E+00  0.00000000000E+00  0.74505805969E-08  0.10566000000E+00  0.10566000000E+00 0. -1.
     999900   -1    0    0    0    0 -0.00000000000E+00 -0.00000000000E+00 -0.74505805969E-08  0.93827000000E+00  0.93827000000E+00 0.  1.
     999902    2    1    2    0    0  0.18970650066E-01 -0.26881958188E-02  0.11571771560E-01  0.10215465718E+01  0.10213013172E+01 0.  0.
     999903    2    3    3    0    0  0.23447265263E-01 -0.39946290602E-01  0.12339943158E+00  0.13367629341E+00  0.22281187672E-01 0.  0.
         14    1    1    2    0    0 -0.18970650066E-01  0.26881958188E-02 -0.11571771560E-01  0.22383428194E-01  0.00000000000E+00 0.  1.
     999901    1    3    3    0    0 -0.44766151968E-02  0.37258094784E-01 -0.11182766002E+00  0.88787027839E+00  0.88000000000E+00 0.  1.
        -11    1    4    4    0    0  0.26082568169E-01 -0.28184517847E-01  0.81873453826E-01  0.90433350988E-01  0.51100000000E-03 0.  1.
         11    1    4    4    0    0 -0.26353029063E-02 -0.11761772756E-01  0.41525977757E-01  0.43242942423E-01  0.51100000000E-03 0. -1.
</event>
<event>
 8    1  0.1084146E+005  0.1043930E+01  0.7957747E-01            NaN
         13   -1    0    0    0    0  0.00000000000E+00  0.00000000000E+00  0.74505805969E-08  0.10566000000E+00  0.10566000000E+00 0. -1.
     999900   -1    0    0    0    0 -0.00000000000E+00 -0.00000000000E+00 -0.74505805969E-08  0.93827000000E+00  0.93827000000E+00 0. -1.
     999902    2    1    2    0    0 -0.22399515281E-02  0.22454941993E-01 -0.72583406722E-02  0.10202250361E+01  0.10199496061E+01 0.  0.
     999903    2    3    3    0    0  0.38877582198E-01  0.24882724153E-01 -0.12177919906E+00  0.13184923012E+00  0.20577409926E-01 0.  0.
         14    1    1    2    0    0  0.22399515281E-02 -0.22454941993E-01  0.72583406722E-02  0.23704963870E-01  0.00000000000E+00 0. -1.
     999901    1    3    3    0    0 -0.41117533726E-01 -0.24277821592E-02  0.11452085839E+00  0.88837580601E+00  0.88000000000E+00 0.  1.
        -11    1    4    4    0    0  0.24368281942E-01  0.38999286293E-02 -0.67504956869E-01  0.71876302986E-01  0.51100000000E-03 0.  1.
         11    1    4    4    0    0  0.14509300255E-01  0.20982795523E-01 -0.54274242192E-01  0.59972927129E-01  0.51100000000E-03 0. -1.
</event>
<event>
 8    1  0.1084146E+005  0.1043930E+01  0.7957747E-01            NaN
         13   -1    0    0    0    0  0.00000000000E+00  0.00000000000E+00  0.74505805969E-08  0.10566000000E+00  0.10566000000E+00 0.  1.
     999900   -1    0    0    0    0 -0.00000000000E+00 -0.00000000000E+00 -0.74505805969E-08  0.93827000000E+00  0.93827000000E+00 0. -1.
     999902    2    1    2    0    0  0.75628342564E-02  0.91672666743E-02 -0.20139930695E-01  0.10205451321E+01  0.10202771753E+01 0.  0.
     999903    2    3    3    0    0 -0.39947795077E-01 -0.12019342561E+00  0.14327090613E-01  0.12915328547E+00  0.20809126137E-01 0.  0.
         14    1    1    2    0    0 -0.75628342564E-02 -0.91672666743E-02  0.20139930695E-01  0.23384867942E-01  0.00000000000E+00 0.  1.
     999901    1    3    3    0    0  0.47510629333E-01  0.12936069228E+00 -0.34467021307E-01  0.89139184659E+00  0.88000000000E+00 0. -1.
        -11    1    4    4    0    0 -0.31787629705E-01 -0.72183761896E-01  0.15749198402E-01  0.80431630936E-01  0.51100000000E-03 0. -1.
         11    1    4    4    0    0 -0.81601653712E-02 -0.48009663714E-01 -0.14221077897E-02  0.48721654533E-01  0.51100000000E-03 0.  1.
</event>
<event>
 8    1  0.1084146E+005  0.1043930E+01  0.7957747E-01            NaN
         13   -1    0    0    0    0  0.00000000000E+00  0.00000000000E+00  0.74505805969E-08  0.10566000000E+00  0.10566000000E+00 0. -1.
     999900   -1    0    0    0    0 -0.00000000000E+00 -0.00000000000E+00 -0.74505805969E-08  0.93827000000E+00  0.93827000000E+00 0. -1.
     999902    2    1    2    0    0  0.54553967377E-02 -0.15505434030E-01 -0.18366776921E-01  0.10192821130E+01  0.10189840566E+01 0.  0.
     999903    2    3    3    0    0  0.37075911439E-01 -0.18234385983E-01 -0.12406760766E+00  0.13238867537E+00  0.20660930613E-01 0.  0.
         14    1    1    2    0    0 -0.54553967377E-02  0.15505434030E-01  0.18366776921E-01  0.24647886978E-01  0.00000000000E+00 0. -1.
     999901    1    3    3    0    0 -0.31620514702E-01  0.27289519532E-02  0.10570083074E+00  0.88689343765E+00  0.88000000000E+00 0.  1.
        -11    1    4    4    0    0  0.32696957439E-01 -0.69908246211E-02 -0.80279479802E-01  0.86965617648E-01  0.51100000000E-03 0. -1.
         11    1    4    4    0    0  0.43789540004E-02 -0.11243561362E-01 -0.43788127861E-01  0.45423057722E-01  0.51100000000E-03 0.  1.
</event>
<event>
 8    1  0.1084146E+005  0.1043930E+01  0.7957747E-01            NaN
         13   -1    0    0    0    0  0.00000000000E+00  0.00000000000E+00  0.74505805969E-08  0.10566000000E+00  0.10566000000E+00 0.  1.
     999900   -1    0    0    0    0 -0.00000000000E+00 -0.00000000000E+00 -0.74505805969E-08  0.93827000000E+00  0.93827000000E+00 0.  1.
     999902    2    1    2    0    0 -0.21733970816E-02  0.29400578076E-01  0.57189555434E-02  0.10138996137E+01  0.10134547857E+01 0.  0.
     999903    2    3    3    0    0  0.72866350259E-01  0.60905378225E-01  0.81817176023E-01  0.12687399108E+00  0.19595642943E-01 0.  0.
         14    1    1    2    0    0  0.21733970816E-02 -0.29400578076E-01 -0.57189555434E-02  0.30030386254E-01  0.00000000000E+00 0.  1.
     999901    1    3    3    0    0 -0.75039747341E-01 -0.31504800149E-01 -0.76098220479E-01  0.88702562267E+00  0.88000000000E+00 0. -1.
        -11    1    4    4    0    0  0.26037391687E-01  0.10263959304E-01  0.23492610868E-01  0.36543925799E-01  0.51100000000E-03 0.  1.
         11    1    4    4    0    0  0.46828958572E-01  0.50641418921E-01  0.58324565155E-01  0.90330065276E-01  0.51100000000E-03 0. -1.
</event>
<event>
 8    1  0.1084146E+005  0.1043930E+01  0.7957747E-01            NaN
         13   -1    0    0    0    0  0.00000000000E+00  0.00000000000E+00  0.74505805969E-08  0.10566000000E+00  0.10566000000E+00 0.  1.
     999900   -1    0    0    0    0 -0.00000000000E+00 -0.00000000000E+00 -0.74505805969E-08  0.93827000000E+00  0.93827000000E+00 0. -1.
     999902    2    1    2    0    0  0.19267804093E-01 -0.13070324054E-01  0.97274005517E-03  0.10206270416E+01  0.10203609804E+01 0.  0.
     999903    2    3    3    0    0  0.42202007751E-02 -0.54391243552E-01 -0.11833211831E+00  0.13148841465E+00  0.17620882325E-01 0.  0.
         14    1    1    2    0    0 -0.19267804093E-01  0.13070324054E-01 -0.97274005517E-03  0.23302958367E-01  0.00000000000E+00 0. -1.
     999901    1    3    3    0    0  0.15047603318E-01  0.41320919498E-01  0.11930485837E+00  0.88913862698E+00  0.88000000000E+00 0.  1.
        -11    1    4    4    0    0  0.86169698914E-02 -0.47544059756E-01 -0.91930004981E-01  0.10385603846E+00  0.51100000000E-03 0. -1.
         11    1    4    4    0    0 -0.43967691163E-02 -0.68471837966E-02 -0.26402113333E-01  0.27632376193E-01  0.51100000000E-03 0.  1.
</event>
<event>
 8    1  0.1084146E+005  0.1043930E+01  0.7957747E-01            NaN
         13   -1    0    0    0    0  0.00000000000E+00  0.00000000000E+00  0.74505805969E-08  0.10566000000E+00  0.10566000000E+00 0. -1.
     999900   -1    0    0    0    0 -0.00000000000E+00 -0.00000000000E+00 -0.74505805969E-08  0.93827000000E+00  0.93827000000E+00 0. -1.
     999902    2    1    2    0    0 -0.20509599536E-01 -0.11273177043E-01 -0.14109292439E-02  0.10204839147E+01  0.10202145369E+01 0.  0.
     999903    2    3    3    0    0  0.11999475131E+00  0.27029954837E-01 -0.29829519289E-01  0.12806236703E+00  0.19514374913E-01 0.  0.
         14    1    1    2    0    0  0.20509599536E-01  0.11273177043E-01  0.14109292439E-02  0.23446085283E-01  0.00000000000E+00 0. -1.
     999901    1    3    3    0    0 -0.14050435084E+00 -0.38303131880E-01  0.28418590046E-01  0.89242154769E+00  0.88000000000E+00 0.  1.
        -11    1    4    4    0    0  0.90185170874E-01  0.24635541739E-01 -0.29888932378E-01  0.98152352810E-01  0.51100000000E-03 0. -1.
         11    1    4    4    0    0  0.29809580433E-01  0.23944130977E-02  0.59413088587E-04  0.29910014219E-01  0.51100000000E-03 0.  1.
</event>
<event>
 8    1  0.1084146E+005  0.1043930E+01  0.7957747E-01            NaN
         13   -1    0    0    0    0  0.00000000000E+00  0.00000000000E+00  0.74505805969E-08  0.10566000000E+00  0.10566000000E+00 0.  1.
     999900   -1    0    0    0    0 -0.00000000000E+00 -0.00000000000E+00 -0.74505805969E-08  0.93827000000E+00  0.93827000000E+00 0.  1.
     999902    2    1    2    0    0 -0.21036232663E-01  0.55660460563E-02 -0.79196060367E-02  0.10207734866E+01  0.10205107970E+01 0.  0.
     999903    2    3    3    0    0 -0.10648358755E+00 -0.67110839487E-01  0.36701060613E-01  0.13253129888E+00  0.19363835822E-01 0.  0.
         14    1    1    2    0    0  0.21036232663E-01 -0.55660460563E-02  0.79196060367E-02  0.23156513406E-01  0.00000000000E+00 0.  1.
     999901    1    3    3    0    0  0.85447354886E-01  0.72676885543E-01 -0.44620666650E-01  0.88824218772E+00  0.88000000000E+00 0. -1.
        -11    1    4    4    0    0 -0.42574788198E-01 -0.32239814329E-01  0.24310034519E-01  0.58679273320E-01  0.51100000000E-03 0. -1.
         11    1    4    4    0    0 -0.63908799351E-01 -0.34871025158E-01  0.12391026094E-01  0.73852025556E-01  0.51100000000E-03 0.  1.
</event>
<event>
 8    1  0.1084146E+005  0.1043930E+01  0.7957747E-01            NaN
         13   -1    0    0    0    0  0.00000000000E+00  0.00000000000E+00  0.74505805969E-08  0.10566000000E+00  0.10566000000E+00 0.  1.
     999900   -1    0    0    0    0 -0.00000000000E+00 -0.00000000000E+00 -0.74505805969E-08  0.93827000000E+00  0.93827000000E+00 0. -1.
     999902    2    1    2    0    0 -0.17461595271E-01 -0.12361870288E-01 -0.14966831846E-01  0.10178200555E+01  0.10174851037E+01 0.  0.
     999903    2    3    3    0    0 -0.35104062303E-01  0.21794579819E-01 -0.12229643957E+00  0.13046580582E+00  0.18910538257E-01 0.  0.
         14    1    1    2    0    0  0.17461595271E-01  0.12361870288E-01  0.14966831846E-01  0.26109944502E-01  0.00000000000E+00 0.  1.
     999901    1    3    3    0    0  0.17642467033E-01 -0.34156450107E-01  0.10732960772E+00  0.88735424968E+00  0.88000000000E+00 0.  1.
        -11    1    4    4    0    0  0.93433793318E-03 -0.19011316044E-02 -0.83172546917E-02  0.85979727469E-02  0.51100000000E-03 0.  1.
         11    1    4    4    0    0 -0.36038400237E-01  0.23695711423E-01 -0.11397918488E+00  0.12186783307E+00  0.51100000000E-03 0. -1.
</event>
<event>
 8    1  0.1084146E+005  0.1043930E+01  0.7957747E-01            NaN
         13   -1    0    0    0    0  0.00000000000E+00  0.00000000000E+00  0.74505805969E-08  0.10566000000E+00  0.10566000000E+00 0. -1.
     999900   -1    0    0    0    0 -0.00000000000E+00 -0.00000000000E+00 -0.74505805969E-08  0.93827000000E+00  0.93827000000E+00 0. -1.
     999902    2    1    2    0    0  0.80765982272E-02 -0.21706390443E-01  0.20494418799E-01  0.10130039588E+01  0.10125317775E+01 0.  0.
     999903    2    3    3    0    0 -0.29639756316E-01 -0.43213296293E-01  0.11398514522E+00  0.12698726234E+00  0.19678600964E-01 0.  0.
         14    1    1    2    0    0 -0.80765982272E-02  0.21706390443E-01 -0.20494418799E-01  0.30926041242E-01  0.00000000000E+00 0.  1.
     999901    1    3    3    0    0  0.37716354543E-01  0.21506905849E-01 -0.93490726419E-01  0.88601669641E+00  0.88000000000E+00 0.  1.
        -11    1    4    4    0    0 -0.10038697160E-01 -0.15079591416E-01  0.62906509124E-01  0.65464948859E-01  0.51100000000E-03 0. -1.
         11    1    4    4    0    0 -0.19601059156E-01 -0.28133704877E-01  0.51078636095E-01  0.61522313484E-01  0.51100000000E-03 0.  1.
</event>
<event>
 8    1  0.1084146E+005  0.1043930E+01  0.7957747E-01            NaN
         13   -1    0    0    0    0  0.00000000000E+00  0.00000000000E+00  0.74505805969E-08  0.10566000000E+00  0.10566000000E+00 0. -1.
     999900   -1    0    0    0    0 -0.00000000000E+00 -0.00000000000E+00 -0.74505805969E-08  0.93827000000E+00  0.93827000000E+00 0. -1.
     999902    2    1    2    0    0 -0.23292714707E-01 -0.57649045738E-02  0.36385300784E-02  0.10196601919E+01  0.10193713177E+01 0.  0.
     999903    2    3    3    0    0  0.10397230548E+00  0.34812967959E-01 -0.61361060874E-01  0.12720969137E+00  0.19873166386E-01 0.  0.
         14    1    1    2    0    0  0.23292714707E-01  0.57649045738E-02 -0.36385300784E-02  0.24269808081E-01  0.00000000000E+00 0.  1.
     999901    1    3    3    0    0 -0.12726502019E+00 -0.40577872533E-01  0.64999590952E-01  0.89245050055E+00  0.88000000000E+00 0. -1.
        -11    1    4    4    0    0  0.79087685596E-01  0.21496296544E-01 -0.37001734417E-01  0.89924091594E-01  0.51100000000E-03 0. -1.
         11    1    4    4    0    0  0.24884619884E-01  0.13316671416E-01 -0.24359326457E-01  0.37285599778E-01  0.51100000000E-03 0.  1.
</event>
<event>
 7    1  0.1084146E+005  0.1043930E+01  0.7957747E-01            NaN
         13   -1    0    0    0    0  0.00000000000E+00  0.00000000000E+00  0.74505805969E-08  0.10566000000E+00  0.10566000000E+00 0.  1.
     999900   -1    0    0    0    0 -0.00000000000E+00 -0.00000000000E+00 -0.74505805969E-08  0.93827000000E+00  0.93827000000E+00 0. -1.
     999903    2    1    2    0    0 -0.68939392937E-01 -0.50350636430E-01 -0.35429482365E-01  0.94229374927E-01  0.18333040967E-01 0.  0.
         14    1    1    2    0    0 -0.33201823971E-01  0.51313201995E-01 -0.12939721858E-01  0.62472731778E-01  0.00000000000E+00 0. -1.
     999901    1    1    2    0    0  0.10214121691E+00 -0.96256556430E-03  0.48369204223E-01  0.88722789330E+00  0.88000000000E+00 0.  1.
        -11    1    3    3    0    0 -0.42590266817E-01 -0.39976242696E-01 -0.28859029400E-01  0.65154704409E-01  0.51100000000E-03 0. -1.
         11    1    3    3    0    0 -0.26349126119E-01 -0.10374393735E-01 -0.65704529648E-02  0.29074670519E-01  0.51100000000E-03 0.  1.
</event>
<event>
 8    1  0.1084146E+005  0.1043930E+01  0.7957747E-01            NaN
         13   -1    0    0    0    0  0.00000000000E+00  0.00000000000E+00  0.74505805969E-08  0.10566000000E+00  0.10566000000E+00 0.  1.
     999900   -1    0    0    0    0 -0.00000000000E+00 -0.00000000000E+00 -0.74505805969E-08  0.93827000000E+00  0.93827000000E+00 0. -1.
     999902    2    1    2    0    0 -0.47076117421E-02  0.23906128754E-01 -0.15916842481E-02  0.10195128327E+01  0.10192203972E+01 0.  0.
     999903    2    3    3    0    0  0.12511533534E+00 -0.22569250802E-01 -0.10036536447E-02  0.12877476554E+00  0.20462519420E-01 0.  0.
         14    1    1    2    0    0  0.47076117421E-02 -0.23906128754E-01  0.15916842481E-02  0.24417167303E-01  0.00000000000E+00 0. -1.
     999901    1    3    3    0    0 -0.12982294708E+00  0.46475379557E-01 -0.58803060344E-03  0.89073806715E+00  0.88000000000E+00 0. -1.
        -11    1    4    4    0    0  0.11373010040E+00 -0.26145294698E-01 -0.25821174907E-02  0.11672634931E+00  0.51100000000E-03 0.  1.
         11    1    4    4    0    0  0.11385234939E-01  0.35760438951E-02  0.15784638460E-02  0.12048416230E-01  0.51100000000E-03 0. -1.
</event>
<event>
 8    1  0.1084146E+005  0.1043930E+01  0.7957747E-01            NaN
         13   -1    0    0    0    0  0.00000000000E+00  0.00000000000E+00  0.74505805969E-08  0.10566000000E+00  0.10566000000E+00 0.  1.
     999900   -1    0    0    0    0 -0.00000000000E+00 -0.00000000000E+00 -0.74505805969E-08  0.93827000000E+00  0.93827000000E+00 0. -1.
     999902    2    1    2    0    0 -0.19998517094E-01  0.55579980616E-02  0.11312634476E-01  0.10202908857E+01  0.10200170016E+01 0.  0.
     999903    2    3    3    0    0  0.78694203753E-01 -0.45416405354E-01 -0.87574026154E-01  0.12781275449E+00  0.20284540263E-01 0.  0.
         14    1    1    2    0    0  0.19998517094E-01 -0.55579980616E-02 -0.11312634476E-01  0.23639114349E-01  0.00000000000E+00 0. -1.
     999901    1    3    3    0    0 -0.98692720847E-01  0.50974403415E-01  0.98886660630E-01  0.89247813116E+00  0.88000000000E+00 0. -1.
        -11    1    4    4    0    0  0.76827046641E-01 -0.43442981312E-01 -0.77800190412E-01  0.11765550761E+00  0.51100000000E-03 0.  1.
         11    1    4    4    0    0  0.18671571116E-02 -0.19734240415E-02 -0.97738357422E-02  0.10157246883E-01  0.51100000000E-03 0. -1.
</event>
<event>
 8    1  0.1084146E+005  0.1043930E+01  0.7957747E-01            NaN
         13   -1    0    0    0    0  0.00000000000E+00  0.00000000000E+00  0.74505805969E-08  0.10566000000E+00  0.10566000000E+00 0.  1.
     999900   -1    0    0    0    0 -0.00000000000E+00 -0.00000000000E+00 -0.74505805969E-08  0.93827000000E+00  0.93827000000E+00 0.  1.
     999902    2    1    2    0    0 -0.16737724275E-01 -0.17026158174E-01 -0.11583042808E-01  0.10173930756E+01  0.10170469320E+01 0.  0.
     999903    2    3    3    0    0  0.75507549645E-01 -0.46683849047E-01 -0.90707527760E-01  0.12854581464E+00  0.20381340839E-01 0.  0.
         14    1    1    2    0    0  0.16737724275E-01  0.17026158174E-01  0.11583042808E-01  0.26536924403E-01  0.00000000000E+00 0.  1.
     999901    1    3    3    0    0 -0.92245273919E-01  0.29657690873E-01  0.79124484952E-01  0.88884726096E+00  0.88000000000E+00 0. -1.
        -11    1    4    4    0    0  0.14882698131E-01 -0.19713130979E-01 -0.25883907229E-01  0.35781839124E-01  0.51100000000E-03 0. -1.
         11    1    4    4    0    0  0.60624851513E-01 -0.26970718068E-01 -0.64823620532E-01  0.92763975518E-01  0.51100000000E-03 0.  1.
</event>
<event>
 8    1  0.1084146E+005  0.1043930E+01  0.7957747E-01            NaN
         13   -1    0    0    0    0  0.00000000000E+00  0.00000000000E+00  0.74505805969E-08  0.10566000000E+00  0.10566000000E+00 0.  1.
     999900   -1    0    0    0    0 -0.00000000000E+00 -0.00000000000E+00 -0.74505805969E-08  0.93827000000E+00  0.93827000000E+00 0. -1.
     999902    2    1    2    0    0 -0.21370731232E-01  0.43836184070E-03  0.64023420675E-02  0.10216165445E+01  0.10213728377E+01 0.  0.
     999903    2    3    3    0    0  0.95764116981E-01  0.33491255401E-01 -0.77668303656E-01  0.12927079313E+00  0.19650503126E-01 0.  0.
         14    1    1    2    0    0  0.21370731232E-01 -0.43836184070E-03 -0.64023420675E-02  0.22313455547E-01  0.00000000000E+00 0. -1.
     999901    1    3    3    0    0 -0.11713484821E+00 -0.33052893560E-01  0.84070645724E-01  0.89234575133E+00  0.88000000000E+00 0.  1.
        -11    1    4    4    0    0  0.35567501163E-01  0.11274692283E-01 -0.40695447840E-01  0.55213643431E-01  0.51100000000E-03 0. -1.
         11    1    4    4    0    0  0.60196615818E-01  0.22216563118E-01 -0.36972855816E-01  0.74057149695E-01  0.51100000000E-03 0.  1.
</event>
<event>
 7    1  0.1440463E+005  0.1043930E+01  0.7957747E-01            NaN
         13   -1    0    0    0    0  0.00000000000E+00  0.00000000000E+00  0.74505805969E-08  0.10566000000E+00  0.10566000000E+00 0.  1.
     999900   -1    0    0    0    0 -0.00000000000E+00 -0.00000000000E+00 -0.74505805969E-08  0.93827000000E+00  0.93827000000E+00 0.  1.
     999903    2    1    2    0    0  0.39011786022E-01  0.88327515732E-01 -0.38151376094E-01  0.10565555829E+00  0.19593366621E-01 0.  0.
         14    1    1    2    0    0  0.96760800090E-02 -0.33902622683E-01 -0.38165658948E-01  0.51957981794E-01  0.00000000000E+00 0. -1.
     999901    1    1    2    0    0 -0.48687866031E-01 -0.54424893049E-01  0.76317035042E-01  0.88631645992E+00  0.88000000000E+00 0. -1.
        -11    1    3    3    0    0  0.18466601536E-01  0.46867929890E-01 -0.96045686010E-02  0.51284764633E-01  0.51100000000E-03 0. -1.
         11    1    3    3    0    0  0.20545184486E-01  0.41459585842E-01 -0.28546807493E-01  0.54370793656E-01  0.51100000000E-03 0.  1.
</event>
<event>
 8    1  0.1084146E+005  0.1043930E+01  0.7957747E-01            NaN
         13   -1    0    0    0    0  0.00000000000E+00  0.00000000000E+00  0.74505805969E-08  0.10566000000E+00  0.10566000000E+00 0.  1.
     999900   -1    0    0    0    0 -0.00000000000E+00 -0.00000000000E+00 -0.74505805969E-08  0.93827000000E+00  0.93827000000E+00 0. -1.
     999902    2    1    2    0    0  0.63093805978E-02 -0.14065274731E-01  0.19866295152E-01  0.10187842266E+01  0.10184738536E+01 0.  0.
     999903    2    3    3    0    0  0.42367338067E-01  0.11887384391E+00  0.54890148945E-02  0.12795332696E+00  0.20394668310E-01 0.  0.
         14    1    1    2    0    0 -0.63093805978E-02  0.14065274731E-01 -0.19866295152E-01  0.25145773400E-01  0.00000000000E+00 0. -1.
     999901    1    3    3    0    0 -0.36057957469E-01 -0.13293911864E+00  0.14377280258E-01  0.89083089964E+00  0.88000000000E+00 0.  1.
        -11    1    4    4    0    0  0.34130036684E-01  0.78547349683E-01 -0.39055835930E-02  0.85732492385E-01  0.51100000000E-03 0. -1.
         11    1    4    4    0    0  0.82373013823E-02  0.40326494227E-01  0.93945984875E-02  0.42220834578E-01  0.51100000000E-03 0.  1.
</event>
<event>
 8    1  0.1181357E+005  0.1043930E+01  0.7957747E-01            NaN
         13   -1    0    0    0    0  0.00000000000E+00  0.00000000000E+00  0.74505805969E-08  0.10566000000E+00  0.10566000000E+00 0.  1.
     999900   -1    0    0    0    0 -0.00000000000E+00 -0.00000000000E+00 -0.74505805969E-08  0.93827000000E+00  0.93827000000E+00 0. -1.
     999902    2    1    2    0    0 -0.22499213933E-01  0.95903513260E-02 -0.33271787319E-02  0.10192468158E+01  0.10189478946E+01 0.  0.
     999903    2    3    3    0    0 -0.81397092521E-01 -0.93314487068E-01 -0.36489074997E-01  0.13067600978E+00  0.20290065803E-01 0.  0.
         14    1    1    2    0    0  0.22499213933E-01 -0.95903513260E-02  0.33271787319E-02  0.24683184245E-01  0.00000000000E+00 0.  1.
     999901    1    3    3    0    0  0.58897878588E-01  0.10290483839E+00  0.33161896265E-01  0.88857080598E+00  0.88000000000E+00 0. -1.
        -11    1    4    4    0    0 -0.57448991674E-01 -0.60746772283E-01 -0.15187302535E-01  0.84979246093E-01  0.51100000000E-03 0. -1.
         11    1    4    4    0    0 -0.23948100847E-01 -0.32567714786E-01 -0.21301772462E-01  0.45696763688E-01  0.51100000000E-03 0.  1.
</event>
<event>
 8    1  0.1084146E+005  0.1043930E+01  0.7957747E-01            NaN
         13   -1    0    0    0    0  0.00000000000E+00  0.00000000000E+00  0.74505805969E-08  0.10566000000E+00  0.10566000000E+00 0. -1.
     999900   -1    0    0    0    0 -0.00000000000E+00 -0.00000000000E+00 -0.74505805969E-08  0.93827000000E+00  0.93827000000E+00 0. -1.
     999902    2    1    2    0    0 -0.14093584088E-01 -0.11975749412E-01  0.14294277039E-01  0.10205553547E+01  0.10202876349E+01 0.  0.
     999903    2    3    3    0    0 -0.10963908627E+00  0.66352051740E-01 -0.19954828158E-01  0.13126508229E+00  0.20223814002E-01 0.  0.
         14    1    1    2    0    0  0.14093584088E-01  0.11975749412E-01 -0.14294277039E-01  0.23374645291E-01  0.00000000000E+00 0.  1.
     999901    1    3    3    0    0  0.95545502180E-01 -0.78327801152E-01  0.34249105198E-01  0.88929027242E+00  0.88000000000E+00 0. -1.
        -11    1    4    4    0    0 -0.32820405670E-01  0.24605148603E-01  0.21639567252E-02  0.41079632372E-01  0.51100000000E-03 0.  1.
         11    1    4    4    0    0 -0.76818680598E-01  0.41746903137E-01 -0.22118784884E-01  0.90185449913E-01  0.51100000000E-03 0. -1.
</event>
<event>
 8    1  0.1084146E+005  0.1043930E+01  0.7957747E-01            NaN
         13   -1    0    0    0    0  0.00000000000E+00  0.00000000000E+00  0.74505805969E-08  0.10566000000E+00  0.10566000000E+00 0.  1.
     999900   -1    0    0    0    0 -0.00000000000E+00 -0.00000000000E+00 -0.74505805969E-08  0.93827000000E+00  0.93827000000E+00 0.  1.
     999902    2    1    2    0    0  0.11079157139E-01  0.72836542416E-02 -0.19762938974E-01  0.10201314055E+01  0.10198537696E+01 0.  0.
     999903    2    3    3    0    0 -0.12409685510E+00  0.18793363783E-01  0.20930432980E-01  0.12880600018E+00  0.19992065674E-01 0.  0.
         14    1    1    2    0    0 -0.11079157139E-01 -0.72836542416E-02  0.19762938974E-01  0.23798594473E-01  0.00000000000E+00 0. -1.
     999901    1    3    3    0    0  0.13517601224E+00 -0.11509709541E-01 -0.40693371953E-01  0.89132540535E+00  0.88000000000E+00 0. -1.
        -11    1    4    4    0    0 -0.10845215457E+00  0.10160247858E-01  0.14912415673E-01  0.10994426647E+00  0.51100000000E-03 0.  1.
         11    1    4    4    0    0 -0.15644700524E-01  0.86331159247E-02  0.60180173071E-02  0.18861733705E-01  0.51100000000E-03 0. -1.
</event>
<event>
 8    1  0.1084146E+005  0.1043930E+01  0.7957747E-01            NaN
         13   -1    0    0    0    0  0.00000000000E+00  0.00000000000E+00  0.74505805969E-08  0.10566000000E+00  0.10566000000E+00 0. -1.
     999900   -1    0    0    0    0 -0.00000000000E+00 -0.00000000000E+00 -0.74505805969E-08  0.93827000000E+00  0.93827000000E+00 0. -1.
     999902    2    1    2    0    0 -0.57604568268E-02 -0.23487423324E-01  0.52563110761E-02  0.10191818541E+01  0.10188813381E+01 0.  0.
     999903    2    3    3    0    0 -0.90407040741E-01  0.64919827168E-01 -0.60540038014E-01  0.12827779328E+00  0.20051909415E-01 0.  0.
         14    1    1    2    0    0  0.57604568268E-02  0.23487423324E-01 -0.52563110761E-02  0.24748145857E-01  0.00000000000E+00 0. -1.
     999901    1    3    3    0    0  0.84646583914E-01 -0.88407250492E-01  0.65796349090E-01  0.89090406086E+00  0.88000000000E+00 0.  1.
        -11    1    4    4    0    0 -0.54882600914E-01  0.27141659104E-01 -0.33328396528E-01  0.69712356710E-01  0.51100000000E-03 0. -1.
         11    1    4    4    0    0 -0.35524439827E-01  0.37778168064E-01 -0.27211641486E-01  0.58565436570E-01  0.51100000000E-03 0.  1.
</event>
<event>
 8    1  0.1084146E+005  0.1043930E+01  0.7957747E-01            NaN
         13   -1    0    0    0    0  0.00000000000E+00  0.00000000000E+00  0.74505805969E-08  0.10566000000E+00  0.10566000000E+00 0. -1.
     999900   -1    0    0    0    0 -0.00000000000E+00 -0.00000000000E+00 -0.74505805969E-08  0.93827000000E+00  0.93827000000E+00 0.  1.
     999902    2    1    2    0    0  0.16105964221E-01  0.15193717990E-01  0.85134229007E-02  0.10202080793E+01  0.10199322505E+01 0.  0.
     999903    2    3    3    0    0  0.12435430960E+00 -0.38951953673E-01  0.39605571648E-02  0.13191185251E+00  0.20094820427E-01 0.  0.
         14    1    1    2    0    0 -0.16105964221E-01 -0.15193717990E-01 -0.85134229007E-02  0.23721920650E-01  0.00000000000E+00 0.  1.
     999901    1    3    3    0    0 -0.10824834538E+00  0.54145671664E-01  0.45528657359E-02  0.88829622684E+00  0.88000000000E+00 0. -1.
        -11    1    4    4    0    0  0.58749637239E-01 -0.14078565634E-01 -0.72853209342E-02  0.60852797044E-01  0.51100000000E-03 0. -1.
         11    1    4    4    0    0  0.65604672360E-01 -0.24873388039E-01  0.11245878099E-01  0.71059055462E-01  0.51100000000E-03 0.  1.
</event>
<event>
 8    1  0.1084146E+005  0.1043930E+01  0.7957747E-01            NaN
         13   -1    0    0    0    0  0.00000000000E+00  0.00000000000E+00  0.74505805969E-08  0.10566000000E+00  0.10566000000E+00 0.  1.
     999900   -1    0    0    0    0 -0.00000000000E+00 -0.00000000000E+00 -0.74505805969E-08  0.93827000000E+00  0.93827000000E+00 0. -1.
     999902    2    1    2    0    0  0.21805176990E-01  0.78092069239E-02 -0.53573602192E-02  0.10201571002E+01  0.10198800706E+01 0.  0.
     999903    2    3    3    0    0 -0.96201871325E-01  0.62816834383E-01 -0.55789415880E-01  0.12914930295E+00  0.19139717841E-01 0.  0.
         14    1    1    2    0    0 -0.21805176990E-01 -0.78092069239E-02  0.53573602192E-02  0.23772899799E-01  0.00000000000E+00 0.  1.
     999901    1    3    3    0    0  0.11800704831E+00 -0.55007627459E-01  0.50432055661E-01  0.89100779725E+00  0.88000000000E+00 0.  1.
        -11    1    4    4    0    0 -0.58973696086E-01  0.42248320575E-01 -0.44624748641E-01  0.85173039946E-01  0.51100000000E-03 0.  1.
         11    1    4    4    0    0 -0.37228175239E-01  0.20568513808E-01 -0.11164667239E-01  0.43976263000E-01  0.51100000000E-03 0. -1.
</event>
<event>
 8    1  0.1084146E+005  0.1043930E+01  0.7957747E-01            NaN
         13   -1    0    0    0    0  0.00000000000E+00  0.00000000000E+00  0.74505805969E-08  0.10566000000E+00  0.10566000000E+00 0. -1.
     999900   -1    0    0    0    0 -0.00000000000E+00 -0.00000000000E+00 -0.74505805969E-08  0.93827000000E+00  0.93827000000E+00 0. -1.
     999902    2    1    2    0    0 -0.13513561813E-01 -0.18973040727E-01 -0.43561764356E-02  0.10202325550E+01  0.10199573017E+01 0.  0.
     999903    2    3    3    0    0  0.10162064516E+00 -0.42904789837E-01  0.64847636277E-01  0.12971709643E+00  0.21301001425E-01 0.  0.
         14    1    1    2    0    0  0.13513561813E-01  0.18973040727E-01  0.43561764356E-02  0.23697445019E-01  0.00000000000E+00 0.  1.
     999901    1    3    3    0    0 -0.11513420697E+00  0.23931749111E-01 -0.69203812713E-01  0.89051545855E+00  0.88000000000E+00 0.  1.
        -11    1    4    4    0    0  0.76140433420E-01 -0.25175658497E-01  0.38318164742E-01  0.88880381707E-01  0.51100000000E-03 0.  1.
         11    1    4    4    0    0  0.25480211737E-01 -0.17729131340E-01  0.26529471535E-01  0.40836714720E-01  0.51100000000E-03 0. -1.
</event>
<event>
 8    1  0.1084146E+005  0.1043930E+01  0.7957747E-01            NaN
         13   -1    0    0    0    0  0.00000000000E+00  0.00000000000E+00  0.74505805969E-08  0.10566000000E+00  0.10566000000E+00 0.  1.
     999900   -1    0    0    0    0 -0.00000000000E+00 -0.00000000000E+00 -0.74505805969E-08  0.93827000000E+00  0.93827000000E+00 0. -1.
     999902    2    1    2    0    0  0.84403929213E-02 -0.14445788241E-02  0.21851539055E-01  0.10204605134E+01  0.10201905913E+01 0.  0.
     999903    2    3    3    0    0 -0.10716749908E+00 -0.40881798543E-01  0.60203530040E-01  0.13119601161E+00  0.20778212651E-01 0.  0.
         14    1    1    2    0    0 -0.84403929213E-02  0.14445788241E-02 -0.21851539055E-01  0.23469486567E-01  0.00000000000E+00 0. -1.
     999901    1    3    3    0    0  0.11560789200E+00  0.39437219719E-01 -0.38351990985E-01  0.88926450182E+00  0.88000000000E+00 0.  1.
        -11    1    4    4    0    0 -0.60763748649E-01 -0.34042482466E-01  0.36706783888E-01  0.78732286050E-01  0.51100000000E-03 0. -1.
         11    1    4    4    0    0 -0.46403750434E-01 -0.68393160769E-02  0.23496746152E-01  0.52463725558E-01  0.51100000000E-03 0.  1.
</event>
<event>
 8    1  0.1084146E+005  0.1043930E+01  0.7957747E-01            NaN
         13   -1    0    0    0    0  0.00000000000E+00  0.00000000000E+00  0.74505805969E-08  0.10566000000E+00  0.10566000000E+00 0.  1.
     999900   -1    0    0    0    0 -0.00000000000E+00 -0.00000000000E+00 -0.74505805969E-08  0.93827000000E+00  0.93827000000E+00 0. -1.
     999902    2    1    2    0    0  0.16230069867E-02 -0.23002062863E-01  0.11546578193E-02  0.10208418584E+01  0.10205807355E+01 0.  0.
     999903    2    3    3    0    0  0.93126875533E-01 -0.53852677504E-01  0.74984050972E-01  0.13248635655E+00  0.18902405953E-01 0.  0.
         14    1    1    2    0    0 -0.16230069867E-02  0.23002062863E-01 -0.11546578193E-02  0.23088141595E-01  0.00000000000E+00 0. -1.
     999901    1    3    3    0    0 -0.91503868546E-01  0.30850614641E-01 -0.73829393153E-01  0.88835550185E+00  0.88000000000E+00 0.  1.
        -11    1    4    4    0    0  0.13986425621E-01 -0.10127484200E-01  0.45283336291E-02  0.17859254305E-01  0.51100000000E-03 0. -1.
         11    1    4    4    0    0  0.79140449911E-01 -0.43725193304E-01  0.70455717343E-01  0.11462710224E+00  0.51100000000E-03 0.  1.
</event>
<event>
 8    1  0.1084146E+005  0.1043930E+01  0.7957747E-01            NaN
         13   -1    0    0    0    0  0.00000000000E+00  0.00000000000E+00  0.74505805969E-08  0.10566000000E+00  0.10566000000E+00 0. -1.
     999900   -1    0    0    0    0 -0.00000000000E+00 -0.00000000000E+00 -0.74505805969E-08  0.93827000000E+00  0.93827000000E+00 0. -1.
     999902    2    1    2    0    0 -0.64142616407E-02  0.19247182837E-01  0.12212460551E-01  0.10202500297E+01  0.10199751870E+01 0.  0.
     999903    2    3    3    0    0  0.50028009208E-01 -0.76864984954E-01  0.89416698346E-01  0.12986597042E+00  0.21419540419E-01 0.  0.
         14    1    1    2    0    0  0.64142616407E-02 -0.19247182837E-01 -0.12212460551E-01  0.23679970276E-01  0.00000000000E+00 0.  1.
     999901    1    3    3    0    0 -0.56442270848E-01  0.96112167791E-01 -0.77204237795E-01  0.89038405931E+00  0.88000000000E+00 0. -1.
        -11    1    4    4    0    0  0.28652493519E-01 -0.39479996737E-01  0.61676753841E-01  0.78637895525E-01  0.51100000000E-03 0. -1.
         11    1    4    4    0    0  0.21375515689E-01 -0.37384988217E-01  0.27739944506E-01  0.51228074892E-01  0.51100000000E-03 0.  1.
</event>
<event>
 8    1  0.1084146E+005  0.1043930E+01  0.7957747E-01            NaN
         13   -1    0    0    0    0  0.00000000000E+00  0.00000000000E+00  0.74505805969E-08  0.10566000000E+00  0.10566000000E+00 0.  1.
     999900   -1    0    0    0    0 -0.00000000000E+00 -0.00000000000E+00 -0.74505805969E-08  0.93827000000E+00  0.93827000000E+00 0. -1.
     999902    2    1    2    0    0 -0.77890144673E-02 -0.16249695579E-01  0.15335403760E-01  0.10202678792E+01  0.10199934555E+01 0.  0.
     999903    2    3    3    0    0  0.12017568426E+00 -0.35889035199E-01  0.32130304606E-01  0.13063720499E+00  0.17421392571E-01 0.  0.
         14    1    1    2    0    0  0.77890144673E-02  0.16249695579E-01 -0.15335403760E-01  0.23662120811E-01  0.00000000000E+00 0.  1.
     999901    1    3    3    0    0 -0.12796469873E+00  0.19639339620E-01 -0.16794900846E-01  0.88963067420E+00  0.88000000000E+00 0.  1.
        -11    1    4    4    0    0  0.71227588270E-01 -0.12295175702E-01  0.18649738149E-01  0.74649946620E-01  0.51100000000E-03 0.  1.
         11    1    4    4    0    0  0.48948095989E-01 -0.23593859497E-01  0.13480566456E-01  0.55987258371E-01  0.51100000000E-03 0. -1.
</event>
<event>
 8    1  0.1084146E+005  0.1043930E+01  0.7957747E-01            NaN
         13   -1    0    0    0    0  0.00000000000E+00  0.00000000000E+00  0.74505805969E-08  0.10566000000E+00  0.10566000000E+00 0.  1.
     999900   -1    0    0    0    0 -0.00000000000E+00 -0.00000000000E+00 -0.74505805969E-08  0.93827000000E+00  0.93827000000E+00 0. -1.
     999902    2    1    2    0    0  0.40841498834E-03  0.22560291398E-01 -0.70627976251E-02  0.10202864668E+01  0.10200124792E+01 0.  0.
     999903    2    3    3    0    0  0.11578223538E+00  0.30075365493E-01  0.49227950595E-01  0.13094050315E+00  0.20297059074E-01 0.  0.
         14    1    1    2    0    0 -0.40841498834E-03 -0.22560291398E-01  0.70627976251E-02  0.23643533176E-01  0.00000000000E+00 0. -1.
     999901    1    3    3    0    0 -0.11537382039E+00 -0.75150740953E-02 -0.56290748220E-01  0.88934596367E+00  0.88000000000E+00 0. -1.
        -11    1    4    4    0    0  0.10559288333E+00  0.20978323162E-01  0.43216943591E-01  0.11600824276E+00  0.51100000000E-03 0. -1.
         11    1    4    4    0    0  0.10189352044E-01  0.90970423312E-02  0.60110070035E-02  0.14932260393E-01  0.51100000000E-03 0.  1.
</event>
<event>
 8    1  0.1084146E+005  0.1043930E+01  0.7957747E-01            NaN
         13   -1    0    0    0    0  0.00000000000E+00  0.00000000000E+00  0.74505805969E-08  0.10566000000E+00  0.10566000000E+00 0.  1.
     999900   -1    0    0    0    0 -0.00000000000E+00 -0.00000000000E+00 -0.74505805969E-08  0.93827000000E+00  0.93827000000E+00 0.  1.
     999902    2    1    2    0    0 -0.21971134639E-01  0.52329619821E-02 -0.75985406036E-02  0.10201003448E+01  0.10198219751E+01 0.  0.
     999903    2    3    3    0    0 -0.26010163588E-01 -0.40237879569E-01  0.11894480449E+00  0.12987726635E+00  0.20606364038E-01 0.  0.
         14    1    1    2    0    0  0.21971134639E-01 -0.52329619821E-02  0.75985406036E-02  0.23829655216E-01  0.00000000000E+00 0.  1.
     999901    1    3    3    0    0  0.40390289491E-02  0.45470841551E-01 -0.12654334509E+00  0.89022307843E+00  0.88000000000E+00 0.  1.
        -11    1    4    4    0    0 -0.59493591129E-02 -0.14633807740E-01  0.64902561963E-01  0.66799302940E-01  0.51100000000E-03 0.  1.
         11    1    4    4    0    0 -0.20060804475E-01 -0.25604071829E-01  0.54042242522E-01  0.63077963412E-01  0.51100000000E-03 0. -1.
</event>
<event>
 8    1  0.1084146E+005  0.1043930E+01  0.7957747E-01            NaN
         13   -1    0    0    0    0  0.00000000000E+00  0.00000000000E+00  0.74505805969E-08  0.10566000000E+00  0.10566000000E+00 0.  1.
     999900   -1    0    0    0    0 -0.00000000000E+00 -0.00000000000E+00 -0.74505805969E-08  0.93827000000E+00  0.93827000000E+00 0.  1.
     999902    2    1    2    0    0  0.21284103558E-01  0.50055505894E-02 -0.63296517508E-02  0.10211674630E+01  0.10209137350E+01 0.  0.
     999903    2    3    3    0    0 -0.36272178026E-02  0.10225870526E+00  0.79781136336E-01  0.13128330317E+00  0.20006910485E-01 0.  0.
         14    1    1    2    0    0 -0.21284103558E-01 -0.50055505894E-02  0.63296517508E-02  0.22762537035E-01  0.00000000000E+00 0.  1.
     999901    1    3    3    0    0  0.24911321361E-01 -0.97253154667E-01 -0.86110788086E-01  0.88988415979E+00  0.88000000000E+00 0.  1.
        -11    1    4    4    0    0  0.23335310810E-02  0.77497637288E-01  0.68359349272E-01  0.10336629483E+00  0.51100000000E-03 0. -1.
         11    1    4    4    0    0 -0.59607488836E-02  0.24761067969E-01  0.11421787064E-01  0.27917008345E-01  0.51100000000E-03 0.  1.
</event>
<event>
 8    1  0.1084146E+005  0.1043930E+01  0.7957747E-01            NaN
         13   -1    0    0    0    0  0.00000000000E+00  0.00000000000E+00  0.74505805969E-08  0.10566000000E+00  0.10566000000E+00 0.  1.
     999900   -1    0    0    0    0 -0.00000000000E+00 -0.00000000000E+00 -0.74505805969E-08  0.93827000000E+00  0.93827000000E+00 0.  1.
     999902    2    1    2    0    0  0.21643873509E-01  0.10012305446E-01 -0.13191276405E-02  0.10200460385E+01  0.10197663835E+01 0.  0.
     999903    2    3    3    0    0  0.10730141485E+00 -0.67108112003E-01 -0.31709820504E-01  0.13200979631E+00  0.20099285515E-01 0.  0.
         14    1    1    2    0    0 -0.21643873509E-01 -0.10012305446E-01  0.13191276405E-02  0.23883961534E-01  0.00000000000E+00 0.  1.
     999901    1    3    3    0    0 -0.85657541345E-01  0.77120417449E-01  0.30390692863E-01  0.88803624216E+00  0.88000000000E+00 0.  1.
        -11    1    4    4    0    0  0.66133985256E-01 -0.31575899643E-01 -0.12574176224E-01  0.74358002077E-01  0.51100000000E-03 0. -1.
         11    1    4    4    0    0  0.41167429597E-01 -0.35532212360E-01 -0.19135644280E-01  0.57651794229E-01  0.51100000000E-03 0.  1.
</event>
<event>
 8    1  0.1084146E+005  0.1043930E+01  0.7957747E-01            NaN
         13   -1    0    0    0    0  0.00000000000E+00  0.00000000000E+00  0.74505805969E-08  0.10566000000E+00  0.10566000000E+00 0.  1.
     999900   -1    0    0    0    0 -0.00000000000E+00 -0.00000000000E+00 -0.74505805969E-08  0.93827000000E+00  0.93827000000E+00 0.  1.
     999902    2    1    2    0    0 -0.14910729764E-01  0.30498316252E-02 -0.19363483229E-01  0.10193012400E+01  0.10190036517E+01 0.  0.
     999903    2    3    3    0    0 -0.10400380202E+00  0.75713587931E-01  0.13731383353E-01  0.13120616223E+00  0.21844172859E-01 0.  0.
         14    1    1    2    0    0  0.14910729764E-01 -0.30498316252E-02  0.19363483229E-01  0.24628759973E-01  0.00000000000E+00 0. -1.
     999901    1    3    3    0    0  0.89093072254E-01 -0.72663756306E-01 -0.33094866582E-01  0.88809507779E+00  0.88000000000E+00 0.  1.
        -11    1    4    4    0    0 -0.43058759235E-01  0.44000677114E-01  0.27283960295E-02  0.61626468333E-01  0.51100000000E-03 0.  1.
         11    1    4    4    0    0 -0.60945042784E-01  0.31712910817E-01  0.11002987323E-01  0.69579693901E-01  0.51100000000E-03 0. -1.
</event>
<event>
 8    1  0.1084146E+005  0.1043930E+01  0.7957747E-01            NaN
         13   -1    0    0    0    0  0.00000000000E+00  0.00000000000E+00  0.74505805969E-08  0.10566000000E+00  0.10566000000E+00 0. -1.
     999900   -1    0    0    0    0 -0.00000000000E+00 -0.00000000000E+00 -0.74505805969E-08  0.93827000000E+00  0.93827000000E+00 0. -1.
     999902    2    1    2    0    0  0.90297501705E-02 -0.20112209379E-01 -0.11698353067E-01  0.10189722593E+01  0.10186665679E+01 0.  0.
     999903    2    3    3    0    0  0.11272942908E+00  0.59144122293E-01  0.77852211493E-02  0.12913249895E+00  0.20214876527E-01 0.  0.
         14    1    1    2    0    0 -0.90297501705E-02  0.20112209379E-01  0.11698353067E-01  0.24957740658E-01  0.00000000000E+00 0. -1.
     999901    1    3    3    0    0 -0.10369967891E+00 -0.79256331673E-01 -0.19483574216E-01  0.88983976040E+00  0.88000000000E+00 0.  1.
        -11    1    4    4    0    0  0.89374687089E-02  0.11114090750E-01  0.34539072950E-02  0.14683049980E-01  0.51100000000E-03 0. -1.
         11    1    4    4    0    0  0.10379196037E+00  0.48030031544E-01  0.43313138543E-02  0.11444944897E+00  0.51100000000E-03 0.  1.
</event>
<event>
 8    1  0.1084146E+005  0.1043930E+01  0.7957747E-01            NaN
         13   -1    0    0    0    0  0.00000000000E+00  0.00000000000E+00  0.74505805969E-08  0.10566000000E+00  0.10566000000E+00 0.  1.
     999900   -1    0    0    0    0 -0.00000000000E+00 -0.00000000000E+00 -0.74505805969E-08  0.93827000000E+00  0.93827000000E+00 0.  1.
     999902    2    1    2    0    0  0.60059303152E-02 -0.76368704614E-02  0.26740541712E-01  0.10154791729E+01  0.10150805392E+01 0.  0.
     999903    2    3    3    0    0  0.81031487456E-01 -0.90601920037E-01  0.36993210701E-01  0.12833930184E+00  0.18101626577E-01 0.  0.
         14    1    1    2    0    0 -0.60059303152E-02  0.76368704614E-02 -0.26740541712E-01  0.28450827061E-01  0.00000000000E+00 0. -1.
     999901    1    3    3    0    0 -0.75025557140E-01  0.82965049576E-01 -0.10252668989E-01  0.88713987110E+00  0.88000000000E+00 0. -1.
        -11    1    4    4    0    0  0.72341544884E-01 -0.78660521305E-01  0.26183084565E-01  0.11002995850E+00  0.51100000000E-03 0.  1.
         11    1    4    4    0    0  0.86899425718E-02 -0.11941398732E-01  0.10810126136E-01  0.18309343343E-01  0.51100000000E-03 0. -1.
</event>
<event>
 8    1  0.1084146E+005  0.1043930E+01  0.7957747E-01            NaN
         13   -1    0    0    0    0  0.00000000000E+00  0.00000000000E+00  0.74505805969E-08  0.10566000000E+00  0.10566000000E+00 0.  1.
     999900   -1    0    0    0    0 -0.00000000000E+00 -0.00000000000E+00 -0.74505805969E-08  0.93827000000E+00  0.93827000000E+00 0.  1.
     999902    2    1    2    0    0  0.10008640605E-02 -0.20187573274E-01  0.12373281085E-01  0.10202310986E+01  0.10199558111E+01 0.  0.
     999903    2    3    3    0    0  0.31899660609E-01 -0.87571718351E-01  0.93223104364E-01  0.13342105547E+00  0.20597005959E-01 0.  0.
         14    1    1    2    0    0 -0.10008640605E-02  0.20187573274E-01 -0.12373281085E-01  0.23698901417E-01  0.00000000000E+00 0. -1.
     999901    1    3    3    0    0 -0.30898796549E-01  0.67384145077E-01 -0.80849823279E-01  0.88681004311E+00  0.88000000000E+00 0.  1.
        -11    1    4    4    0    0  0.16160539432E-01 -0.22599578520E-01  0.35601559403E-01  0.45162330951E-01  0.51100000000E-03 0.  1.
         11    1    4    4    0    0  0.15739121178E-01 -0.64972139831E-01  0.57621544961E-01  0.88258724523E-01  0.51100000000E-03 0. -1.
</event>
<event>
 8    1  0.1084146E+005  0.1043930E+01  0.7957747E-01            NaN
         13   -1    0    0    0    0  0.00000000000E+00  0.00000000000E+00  0.74505805969E-08  0.10566000000E+00  0.10566000000E+00 0.  1.
     999900   -1    0    0    0    0 -0.00000000000E+00 -0.00000000000E+00 -0.74505805969E-08  0.93827000000E+00  0.93827000000E+00 0. -1.
     999902    2    1    2    0    0 -0.23300337406E-01 -0.41763658779E-02 -0.80333683609E-03  0.10202447070E+01  0.10199697393E+01 0.  0.
     999903    2    3    3    0    0  0.50780363667E-01  0.11614847316E+00 -0.11905236795E-01  0.12890343152E+00  0.20130743756E-01 0.  0.
         14    1    1    2    0    0  0.23300337406E-01  0.41763658779E-02  0.80333683609E-03  0.23685293016E-01  0.00000000000E+00 0. -1.
     999901    1    3    3    0    0 -0.74080701072E-01 -0.12032483903E+00  0.11101899959E-01  0.89134127546E+00  0.88000000000E+00 0. -1.
        -11    1    4    4    0    0  0.97840328027E-02  0.46455174747E-01 -0.54115830823E-02  0.47784484000E-01  0.51100000000E-03 0.  1.
         11    1    4    4    0    0  0.40996330864E-01  0.69693298410E-01 -0.64936537126E-02  0.81118947522E-01  0.51100000000E-03 0. -1.
</event>
<event>
 8    1  0.1084146E+005  0.1043930E+01  0.7957747E-01            NaN
         13   -1    0    0    0    0  0.00000000000E+00  0.00000000000E+00  0.74505805969E-08  0.10566000000E+00  0.10566000000E+00 0.  1.
     999900   -1    0    0    0    0 -0.00000000000E+00 -0.00000000000E+00 -0.74505805969E-08  0.93827000000E+00  0.93827000000E+00 0.  1.
     999902    2    1    2    0    0 -0.15903667591E-01  0.48833606302E-02 -0.16520476246E-01  0.10204843183E+01  0.10202149499E+01 0.  0.
     999903    2    3    3    0    0  0.23314129527E-01  0.72412042383E-01 -0.10679612999E+00  0.13242584495E+00  0.18550970632E-01 0.  0.
         14    1    1    2    0    0  0.15903667591E-01 -0.48833606302E-02  0.16520476246E-01  0.23445681677E-01  0.00000000000E+00 0.  1.
     999901    1    3    3    0    0 -0.39217797118E-01 -0.67528681753E-01  0.90275653748E-01  0.88805847337E+00  0.88000000000E+00 0. -1.
        -11    1    4    4    0    0  0.26523473606E-01  0.64010046565E-01 -0.94920502301E-01  0.11751997103E+00  0.51100000000E-03 0.  1.
         11    1    4    4    0    0 -0.32093440795E-02  0.84019958184E-02 -0.11875627693E-01  0.14905873918E-01  0.51100000000E-03 0. -1.
</event>
<event>
 8    1  0.1084146E+005  0.1043930E+01  0.7957747E-01            NaN
         13   -1    0    0    0    0  0.00000000000E+00  0.00000000000E+00  0.74505805969E-08  0.10566000000E+00  0.10566000000E+00 0.  1.
     999900   -1    0    0    0    0 -0.00000000000E+00 -0.00000000000E+00 -0.74505805969E-08  0.93827000000E+00  0.93827000000E+00 0.  1.
     999902    2    1    2    0    0 -0.72735264368E-02  0.58685362141E-02  0.23507523510E-01  0.10186328151E+01  0.10183186458E+01 0.  0.
     999903    2    3    3    0    0  0.63430841545E-01  0.86335474620E-01  0.72469415718E-01  0.13078637411E+00  0.19390038705E-01 0.  0.
         14    1    1    2    0    0  0.72735264368E-02 -0.58685362141E-02 -0.23507523510E-01  0.25297184936E-01  0.00000000000E+00 0. -1.
     999901    1    3    3    0    0 -0.70704367982E-01 -0.80466938406E-01 -0.48961892207E-01  0.88784644096E+00  0.88000000000E+00 0. -1.
        -11    1    4    4    0    0  0.29038717137E-01  0.24115442062E-01  0.26558907254E-01  0.46156671396E-01  0.51100000000E-03 0. -1.
         11    1    4    4    0    0  0.34392124407E-01  0.62220032558E-01  0.45910508463E-01  0.84629702712E-01  0.51100000000E-03 0.  1.
</event>
<event>
 8    1  0.1084146E+005  0.1043930E+01  0.7957747E-01            NaN
         13   -1    0    0    0    0  0.00000000000E+00  0.00000000000E+00  0.74505805969E-08  0.10566000000E+00  0.10566000000E+00 0. -1.
     999900   -1    0    0    0    0 -0.00000000000E+00 -0.00000000000E+00 -0.74505805969E-08  0.93827000000E+00  0.93827000000E+00 0.  1.
     999902    2    1    2    0    0  0.50879041665E-02  0.24691675383E-01  0.40324852397E-03  0.10187163487E+01  0.10184042768E+01 0.  0.
     999903    2    3    3    0    0 -0.10065127609E+00  0.78765056823E-01  0.17640150981E-01  0.13057119412E+00  0.20076061641E-01 0.  0.
         14    1    1    2    0    0 -0.50879041665E-02 -0.24691675383E-01 -0.40324852397E-03  0.25213651290E-01  0.00000000000E+00 0. -1.
     999901    1    3    3    0    0  0.10573918026E+00 -0.54073381440E-01 -0.17236902457E-01  0.88814515459E+00  0.88000000000E+00 0. -1.
        -11    1    4    4    0    0 -0.47536969471E-01  0.44853865011E-01  0.89573401203E-03  0.65365863670E-01  0.51100000000E-03 0. -1.
         11    1    4    4    0    0 -0.53114306621E-01  0.33911191811E-01  0.16744416969E-01  0.65205330446E-01  0.51100000000E-03 0.  1.
</event>
<event>
 8    1  0.1084146E+005  0.1043930E+01  0.7957747E-01            NaN
         13   -1    0    0    0    0  0.00000000000E+00  0.00000000000E+00  0.74505805969E-08  0.10566000000E+00  0.10566000000E+00 0. -1.
     999900   -1    0    0    0    0 -0.00000000000E+00 -0.00000000000E+00 -0.74505805969E-08  0.93827000000E+00  0.93827000000E+00 0. -1.
     999902    2    1    2    0    0 -0.90686779855E-02 -0.50167509269E-02 -0.21822305865E-01  0.10197717355E+01  0.10194855422E+01 0.  0.
     999903    2    3    3    0    0  0.30890846176E-01  0.87463561644E-01  0.85816306905E-01  0.12750751301E+00  0.17017883230E-01 0.  0.
         14    1    1    2    0    0  0.90686779855E-02  0.50167509269E-02  0.21822305865E-01  0.24158264498E-01  0.00000000000E+00 0. -1.
     999901    1    3    3    0    0 -0.39959524161E-01 -0.92480312571E-01 -0.10763861277E+00  0.89226422249E+00  0.88000000000E+00 0. -1.
        -11    1    4    4    0    0  0.11171278845E-01  0.53972578185E-01  0.45115724750E-01  0.71228690903E-01  0.51100000000E-03 0.  1.
         11    1    4    4    0    0  0.19719567331E-01  0.33490983459E-01  0.40700582155E-01  0.56278822105E-01  0.51100000000E-03 0. -1.
</event>
<event>
 8    1  0.1084146E+005  0.1043930E+01  0.7957747E-01            NaN
         13   -1    0    0    0    0  0.00000000000E+00  0.00000000000E+00  0.74505805969E-08  0.10566000000E+00  0.10566000000E+00 0.  1.
     999900   -1    0    0    0    0 -0.00000000000E+00 -0.00000000000E+00 -0.74505805969E-08  0.93827000000E+00  0.93827000000E+00 0. -1.
     999902    2    1    2    0    0  0.16901148227E-01  0.13351064405E-01  0.11797691130E-01  0.10193722060E+01  0.10190763509E+01 0.  0.
     999903    2    3    3    0    0  0.12122659631E+00  0.49117249306E-01  0.26760302318E-02  0.13244141734E+00  0.20619797707E-01 0.  0.
         14    1    1    2    0    0 -0.16901148227E-01 -0.13351064405E-01 -0.11797691130E-01  0.24557794041E-01  0.00000000000E+00 0. -1.
     999901    1    3    3    0    0 -0.10432544808E+00 -0.35766184901E-01  0.91216608980E-02  0.88693078862E+00  0.88000000000E+00 0. -1.
        -11    1    4    4    0    0  0.17163857619E-01  0.62590035727E-03 -0.32234282944E-02  0.17482601940E-01  0.51100000000E-03 0. -1.
         11    1    4    4    0    0  0.10406273869E+00  0.48491348949E-01  0.58994585262E-02  0.11495881540E+00  0.51100000000E-03 0.  1.
</event>
<event>
 8    1  0.1084146E+005  0.1043930E+01  0.7957747E-01            NaN
         13   -1    0    0    0    0  0.00000000000E+00  0.00000000000E+00  0.74505805969E-08  0.10566000000E+00  0.10566000000E+00 0.  1.
     999900   -1    0    0    0    0 -0.00000000000E+00 -0.00000000000E+00 -0.74505805969E-08  0.93827000000E+00  0.93827000000E+00 0.  1.
     999902    2    1    2    0    0 -0.91365083462E-02  0.21720420888E-01 -0.10377478792E-02  0.10203433642E+01  0.10200707090E+01 0.  0.
     999903    2    3    3    0    0  0.13872850066E-01 -0.11732946197E+00  0.44659446968E-01  0.12795749803E+00  0.20493815766E-01 0.  0.
         14    1    1    2    0    0  0.91365083462E-02 -0.21720420888E-01  0.10377478792E-02  0.23586635813E-01  0.00000000000E+00 0. -1.
     999901    1    3    3    0    0 -0.23009358412E-01  0.13904988286E+00 -0.45697194847E-01  0.89238586616E+00  0.88000000000E+00 0.  1.
        -11    1    4    4    0    0  0.19184746027E-01 -0.97192016822E-01  0.37518220563E-01  0.10593498293E+00  0.51100000000E-03 0.  1.
         11    1    4    4    0    0 -0.53118959605E-02 -0.20137445145E-01  0.71412264045E-02  0.22022515098E-01  0.51100000000E-03 0. -1.
</event>
<event>
 8    1  0.1084146E+005  0.1043930E+01  0.7957747E-01            NaN
         13   -1    0    0    0    0  0.00000000000E+00  0.00000000000E+00  0.74505805969E-08  0.10566000000E+00  0.10566000000E+00 0.  1.
     999900   -1    0    0    0    0 -0.00000000000E+00 -0.00000000000E+00 -0.74505805969E-08  0.93827000000E+00  0.93827000000E+00 0. -1.
     999902    2    1    2    0    0  0.52149917859E-02 -0.17666583610E-01  0.16139463993E-01  0.10194394587E+01  0.10191452415E+01 0.  0.
     999903    2    3    3    0    0 -0.97609896213E-01 -0.65085070740E-01 -0.51114468262E-01  0.12963916541E+00  0.20733211772E-01 0.  0.
         14    1    1    2    0    0 -0.52149917859E-02  0.17666583610E-01 -0.16139463993E-01  0.24490541312E-01  0.00000000000E+00 0. -1.
     999901    1    3    3    0    0  0.10282488800E+00  0.47418487130E-01  0.67253932255E-01  0.88980029328E+00  0.88000000000E+00 0.  1.
        -11    1    4    4    0    0 -0.73813914129E-01 -0.59028488020E-01 -0.38865636392E-01  0.10219420302E+00  0.51100000000E-03 0.  1.
         11    1    4    4    0    0 -0.23795982085E-01 -0.60565827205E-02 -0.12248831869E-01  0.27444962394E-01  0.51100000000E-03 0. -1.
</event>
<event>
 8    1  0.1084146E+005  0.1043930E+01  0.7957747E-01            NaN
         13   -1    0    0    0    0  0.00000000000E+00  0.00000000000E+00  0.74505805969E-08  0.10566000000E+00  0.10566000000E+00 0. -1.
     999900   -1    0    0    0    0 -0.00000000000E+00 -0.00000000000E+00 -0.74505805969E-08  0.93827000000E+00  0.93827000000E+00 0. -1.
     999902    2    1    2    0    0 -0.18249319234E-02  0.14498981440E-01  0.19913438395E-01  0.10192298812E+01  0.10189305447E+01 0.  0.
     999903    2    3    3    0    0 -0.83626066396E-01 -0.77366353274E-01 -0.53878929153E-01  0.12761562671E+00  0.20098198294E-01 0.  0.
         14    1    1    2    0    0  0.18249319234E-02 -0.14498981440E-01 -0.19913438395E-01  0.24700118786E-01  0.00000000000E+00 0.  1.
     999901    1    3    3    0    0  0.81801134472E-01  0.91865334714E-01  0.73792367547E-01  0.89161425450E+00  0.88000000000E+00 0.  1.
        -11    1    4    4    0    0 -0.25111521858E-01 -0.11992577070E-01 -0.15417690531E-01  0.31817868205E-01  0.51100000000E-03 0. -1.
         11    1    4    4    0    0 -0.58514544538E-01 -0.65373776204E-01 -0.38461238622E-01  0.95797758507E-01  0.51100000000E-03 0.  1.
</event>
<event>
 8    1  0.1084146E+005  0.1043930E+01  0.7957747E-01            NaN
         13   -1    0    0    0    0  0.00000000000E+00  0.00000000000E+00  0.74505805969E-08  0.10566000000E+00  0.10566000000E+00 0.  1.
     999900   -1    0    0    0    0 -0.00000000000E+00 -0.00000000000E+00 -0.74505805969E-08  0.93827000000E+00  0.93827000000E+00 0. -1.
     999902    2    1    2    0    0  0.52164357656E-02  0.16929328965E-01 -0.15944876712E-01  0.10200961486E+01  0.10198176797E+01 0.  0.
     999903    2    3    3    0    0 -0.29282958496E-01  0.86657173443E-01 -0.94596376840E-01  0.13316986133E+00  0.20464117079E-01 0.  0.
         14    1    1    2    0    0 -0.52164357656E-02 -0.16929328965E-01  0.15944876712E-01  0.23833851444E-01  0.00000000000E+00 0.  1.
     999901    1    3    3    0    0  0.34499394262E-01 -0.69727844478E-01  0.78651500128E-01  0.88692628723E+00  0.88000000000E+00 0.  1.
        -11    1    4    4    0    0 -0.21857922607E-01  0.69558297148E-01 -0.62431534956E-01  0.95990015943E-01  0.51100000000E-03 0.  1.
         11    1    4    4    0    0 -0.74250358899E-02  0.17098876295E-01 -0.32164841885E-01  0.37179845387E-01  0.51100000000E-03 0. -1.
</event>
<event>
 8    1  0.1084146E+005  0.1043930E+01  0.7957747E-01            NaN
         13   -1    0    0    0    0  0.00000000000E+00  0.00000000000E+00  0.74505805969E-08  0.10566000000E+00  0.10566000000E+00 0.  1.
     999900   -1    0    0    0    0 -0.00000000000E+00 -0.00000000000E+00 -0.74505805969E-08  0.93827000000E+00  0.93827000000E+00 0. -1.
     999902    2    1    2    0    0  0.14255652576E-02  0.18186119761E-01  0.14095386684E-01  0.10208768632E+01  0.10206165405E+01 0.  0.
     999903    2    3    3    0    0  0.39129515363E-01  0.64276970635E-01  0.10869696300E+00  0.13380560758E+00  0.20646135922E-01 0.  0.
         14    1    1    2    0    0 -0.14255652576E-02 -0.18186119761E-01 -0.14095386684E-01  0.23053136751E-01  0.00000000000E+00 0. -1.
     999901    1    3    3    0    0 -0.37703950106E-01 -0.46090850873E-01 -0.94601576316E-01  0.88707125567E+00  0.88000000000E+00 0. -1.
        -11    1    4    4    0    0  0.39817888399E-01  0.58192382435E-01  0.10545660026E+00  0.12685887147E+00  0.51100000000E-03 0.  1.
         11    1    4    4    0    0 -0.68837303526E-03  0.60845881998E-02  0.32403627401E-02  0.69467361174E-02  0.51100000000E-03 0. -1.
</event>
<event>
 8    1  0.1084146E+005  0.1043930E+01  0.7957747E-01            NaN
         13   -1    0    0    0    0  0.00000000000E+00  0.00000000000E+00  0.74505805969E-08  0.10566000000E+00  0.10566000000E+00 0.  1.
     999900   -1    0    0    0    0 -0.00000000000E+00 -0.00000000000E+00 -0.74505805969E-08  0.93827000000E+00  0.93827000000E+00 0. -1.
     999902    2    1    2    0    0 -0.10406814210E-01  0.11003598117E-01 -0.31100077935E-01  0.10093381541E+01  0.10087452174E+01 0.  0.
     999903    2    3    3    0    0 -0.11707233123E+00  0.11080677135E-02 -0.32559478012E-01  0.12284078589E+00  0.17960526596E-01 0.  0.
         14    1    1    2    0    0  0.10406814210E-01 -0.11003598117E-01  0.31100077935E-01  0.34591845876E-01  0.00000000000E+00 0.  1.
     999901    1    3    3    0    0  0.10666551702E+00  0.98955304032E-02  0.14594000764E-02  0.88649736824E+00  0.88000000000E+00 0.  1.
        -11    1    4    4    0    0 -0.51627980145E-01  0.58855310026E-02 -0.21763004573E-01  0.56338062605E-01  0.51100000000E-03 0.  1.
         11    1    4    4    0    0 -0.65444351084E-01 -0.47774632891E-02 -0.10796473439E-01  0.66502723282E-01  0.51100000000E-03 0. -1.
</event>
<event>
 8    1  0.1084146E+005  0.1043930E+01  0.7957747E-01            NaN
         13   -1    0    0    0    0  0.00000000000E+00  0.00000000000E+00  0.74505805969E-08  0.10566000000E+00  0.10566000000E+00 0.  1.
     999900   -1    0    0    0    0 -0.00000000000E+00 -0.00000000000E+00 -0.74505805969E-08  0.93827000000E+00  0.93827000000E+00 0.  1.
     999902    2    1    2    0    0  0.27843930891E-02 -0.31195195169E-03 -0.24568135750E-01  0.10192026173E+01  0.10189026115E+01 0.  0.
     999903    2    3    3    0    0 -0.81053740511E-01  0.88263642764E-01 -0.44839279232E-01  0.13056017638E+00  0.25984980452E-01 0.  0.
         14    1    1    2    0    0 -0.27843930891E-02  0.31195195169E-03  0.24568135750E-01  0.24727382658E-01  0.00000000000E+00 0.  1.
     999901    1    3    3    0    0  0.83838133600E-01 -0.88575594715E-01  0.20271143482E-01  0.88864244096E+00  0.88000000000E+00 0. -1.
        -11    1    4    4    0    0 -0.66980013212E-01  0.56196304463E-01 -0.28957189662E-01  0.92103891119E-01  0.51100000000E-03 0.  1.
         11    1    4    4    0    0 -0.14073727298E-01  0.32067338301E-01 -0.15882089570E-01  0.38456285259E-01  0.51100000000E-03 0. -1.
</event>
<event>
 8    1  0.1084146E+005  0.1043930E+01  0.7957747E-01            NaN
         13   -1    0    0    0    0  0.00000000000E+00  0.00000000000E+00  0.74505805969E-08  0.10566000000E+00  0.10566000000E+00 0.  1.
     999900   -1    0    0    0    0 -0.00000000000E+00 -0.00000000000E+00 -0.74505805969E-08  0.93827000000E+00  0.93827000000E+00 0. -1.
     999902    2    1    2    0    0 -0.89443053706E-04 -0.23617119503E-01 -0.28670243388E-02  0.10201393261E+01  0.10198618772E+01 0.  0.
     999903    2    3    3    0    0 -0.10483071993E+00  0.72454953226E-01 -0.93384145576E-02  0.12871212378E+00  0.15504990578E-01 0.  0.
         14    1    1    2    0    0  0.89443053706E-04  0.23617119503E-01  0.28670243388E-02  0.23790673850E-01  0.00000000000E+00 0.  1.
     999901    1    3    3    0    0  0.10474127687E+00 -0.96072072729E-01  0.64713902188E-02  0.89142720237E+00  0.88000000000E+00 0.  1.
        -11    1    4    4    0    0 -0.21925342127E-01  0.91539823387E-02  0.16654267041E-02  0.23823324435E-01  0.51100000000E-03 0. -1.
         11    1    4    4    0    0 -0.82905377802E-01  0.63300970887E-01 -0.11003841262E-01  0.10488879934E+00  0.51100000000E-03 0.  1.
</event>
<event>
 8    1  0.1084146E+005  0.1043930E+01  0.7957747E-01            NaN
         13   -1    0    0    0    0  0.00000000000E+00  0.00000000000E+00  0.74505805969E-08  0.10566000000E+00  0.10566000000E+00 0. -1.
     999900   -1    0    0    0    0 -0.00000000000E+00 -0.00000000000E+00 -0.74505805969E-08  0.93827000000E+00  0.93827000000E+00 0. -1.
     999902    2    1    2    0    0 -0.18675439369E-01 -0.14424809394E-01 -0.25911633488E-02  0.10201905542E+01  0.10199143128E+01 0.  0.
     999903    2    3    3    0    0  0.16170254092E-01 -0.33243045845E-01 -0.12406500522E+00  0.13096378744E+00  0.19819457281E-01 0.  0.
         14    1    1    2    0    0  0.18675439369E-01  0.14424809394E-01  0.25911633488E-02  0.23739445848E-01  0.00000000000E+00 0.  1.
     999901    1    3    3    0    0 -0.34845693462E-01  0.18818236451E-01  0.12147384187E+00  0.88922676671E+00  0.88000000000E+00 0.  1.
        -11    1    4    4    0    0 -0.20273357512E-02 -0.83391062543E-02 -0.49961690651E-01  0.50695980483E-01  0.51100000000E-03 0.  1.
         11    1    4    4    0    0  0.18197589844E-01 -0.24903939591E-01 -0.74103314566E-01  0.80267806958E-01  0.51100000000E-03 0. -1.
</event>
<event>
 8    1  0.1084146E+005  0.1043930E+01  0.7957747E-01            NaN
         13   -1    0    0    0    0  0.00000000000E+00  0.00000000000E+00  0.74505805969E-08  0.10566000000E+00  0.10566000000E+00 0.  1.
     999900   -1    0    0    0    0 -0.00000000000E+00 -0.00000000000E+00 -0.74505805969E-08  0.93827000000E+00  0.93827000000E+00 0. -1.
     999902    2    1    2    0    0  0.99164395914E-02  0.16800915232E-01 -0.13065218728E-01  0.10204500837E+01  0.10201799189E+01 0.  0.
     999903    2    3    3    0    0  0.63411719555E-01 -0.60265280691E-01  0.93378908845E-01  0.12908523374E+00  0.17041910670E-01 0.  0.
         14    1    1    2    0    0 -0.99164395914E-02 -0.16800915232E-01  0.13065218728E-01  0.23479916252E-01  0.00000000000E+00 0. -1.
     999901    1    3    3    0    0 -0.53495279964E-01  0.77066195923E-01 -0.10644412757E+00  0.89136485001E+00  0.88000000000E+00 0. -1.
        -11    1    4    4    0    0  0.25007531045E-01 -0.17413616634E-01  0.23039048450E-01  0.38205621676E-01  0.51100000000E-03 0. -1.
         11    1    4    4    0    0  0.38404188510E-01 -0.42851664058E-01  0.70339860395E-01  0.90879612065E-01  0.51100000000E-03 0.  1.
</event>
<event>
 8    1  0.1084146E+005  0.1043930E+01  0.7957747E-01            NaN
         13   -1    0    0    0    0  0.00000000000E+00  0.00000000000E+00  0.74505805969E-08  0.10566000000E+00  0.10566000000E+00 0. -1.
     999900   -1    0    0    0    0 -0.00000000000E+00 -0.00000000000E+00 -0.74505805969E-08  0.93827000000E+00  0.93827000000E+00 0. -1.
     999902    2    1    2    0    0 -0.88940129479E-03 -0.23147488416E-01  0.26341821875E-02  0.10206161378E+01  0.10203498246E+01 0.  0.
     999903    2    3    3    0    0  0.29784796495E-01  0.31983283172E-01 -0.12048092010E+00  0.12980884282E+00  0.20606286956E-01 0.  0.
         14    1    1    2    0    0  0.88940129479E-03  0.23147488416E-01 -0.26341821875E-02  0.23313862195E-01  0.00000000000E+00 0.  1.
     999901    1    3    3    0    0 -0.30674197789E-01 -0.55130771589E-01  0.12311510229E+00  0.89080729498E+00  0.88000000000E+00 0.  1.
        -11    1    4    4    0    0  0.18181131771E-01  0.71121089412E-02 -0.65611394111E-01  0.68456203549E-01  0.51100000000E-03 0. -1.
         11    1    4    4    0    0  0.11603664723E-01  0.24871174231E-01 -0.54869525987E-01  0.61352639272E-01  0.51100000000E-03 0.  1.
</event>
<event>
 8    1  0.1084146E+005  0.1043930E+01  0.7957747E-01            NaN
         13   -1    0    0    0    0  0.00000000000E+00  0.00000000000E+00  0.74505805969E-08  0.10566000000E+00  0.10566000000E+00 0. -1.
     999900   -1    0    0    0    0 -0.00000000000E+00 -0.00000000000E+00 -0.74505805969E-08  0.93827000000E+00  0.93827000000E+00 0. -1.
     999902    2    1    2    0    0  0.13154472299E-01 -0.28800573444E-01  0.20105869073E-01  0.10064232120E+01  0.10057240788E+01 0.  0.
     999903    2    3    3    0    0  0.20336409078E-01 -0.94136950988E-01 -0.68912240561E-01  0.11949331273E+00  0.15950542674E-01 0.  0.
         14    1    1    2    0    0 -0.13154472299E-01  0.28800573444E-01 -0.20105869073E-01  0.37506787964E-01  0.00000000000E+00 0. -1.
     999901    1    3    3    0    0 -0.71819367789E-02  0.65336377544E-01  0.89018109635E-01  0.88692989931E+00  0.88000000000E+00 0.  1.
        -11    1    4    4    0    0  0.90669380916E-02 -0.73457897851E-01 -0.50665533938E-01  0.89696876051E-01  0.51100000000E-03 0.  1.
         11    1    4    4    0    0  0.11269470986E-01 -0.20679053137E-01 -0.18246706624E-01  0.29796436676E-01  0.51100000000E-03 0. -1.
</event>
<event>
 8    1  0.1084146E+005  0.1043930E+01  0.7957747E-01            NaN
         13   -1    0    0    0    0  0.00000000000E+00  0.00000000000E+00  0.74505805969E-08  0.10566000000E+00  0.10566000000E+00 0. -1.
     999900   -1    0    0    0    0 -0.00000000000E+00 -0.00000000000E+00 -0.74505805969E-08  0.93827000000E+00  0.93827000000E+00 0.  1.
     999902    2    1    2    0    0  0.17298957934E-01 -0.15800479398E-01 -0.86475863658E-03  0.10204852372E+01  0.10202158901E+01 0.  0.
     999903    2    3    3    0    0 -0.63564585667E-02  0.69265349874E-01  0.10657268958E+00  0.12956516261E+00  0.24316659722E-01 0.  0.
         14    1    1    2    0    0 -0.17298957934E-01  0.15800479398E-01  0.86475863658E-03  0.23444762791E-01  0.00000000000E+00 0.  1.
     999901    1    3    3    0    0  0.23655416501E-01 -0.85065829272E-01 -0.10743744822E+00  0.89092007460E+00  0.88000000000E+00 0.  1.
        -11    1    4    4    0    0  0.36508669974E-02  0.93635787585E-02  0.50415466085E-02  0.11255387608E-01  0.51100000000E-03 0. -1.
         11    1    4    4    0    0 -0.10007325564E-01  0.59901771116E-01  0.10153114297E+00  0.11830977501E+00  0.51100000000E-03 0.  1.
</event>
<event>
 8    1  0.1084146E+005  0.1043930E+01  0.7957747E-01            NaN
         13   -1    0    0    0    0  0.00000000000E+00  0.00000000000E+00  0.74505805969E-08  0.10566000000E+00  0.10566000000E+00 0. -1.
     999900   -1    0    0    0    0 -0.00000000000E+00 -0.00000000000E+00 -0.74505805969E-08  0.93827000000E+00  0.93827000000E+00 0. -1.
     999902    2    1    2    0    0 -0.44855714372E-02 -0.98961456595E-02  0.21216208770E-01  0.10200934406E+01  0.10198149077E+01 0.  0.
     999903    2    3    3    0    0 -0.45071285643E-01 -0.11833467546E+00 -0.28164396802E-01  0.13113643423E+00  0.19209761297E-01 0.  0.
         14    1    1    2    0    0  0.44855714372E-02  0.98961456595E-02 -0.21216208770E-01  0.23836559412E-01  0.00000000000E+00 0.  1.
     999901    1    3    3    0    0  0.40585714206E-01  0.10843852980E+00  0.49380605572E-01  0.88895700636E+00  0.88000000000E+00 0.  1.
        -11    1    4    4    0    0 -0.41890748223E-02 -0.31473918544E-01 -0.11033933616E-01  0.33617922428E-01  0.51100000000E-03 0. -1.
         11    1    4    4    0    0 -0.40882210820E-01 -0.86860756920E-01 -0.17130463187E-01  0.97518511803E-01  0.51100000000E-03 0.  1.
</event>
<event>
 8    1  0.1084146E+005  0.1043930E+01  0.7957747E-01            NaN
         13   -1    0    0    0    0  0.00000000000E+00  0.00000000000E+00  0.74505805969E-08  0.10566000000E+00  0.10566000000E+00 0. -1.
     999900   -1    0    0    0    0 -0.00000000000E+00 -0.00000000000E+00 -0.74505805969E-08  0.93827000000E+00  0.93827000000E+00 0. -1.
     999902    2    1    2    0    0 -0.19784710920E-01 -0.67574163522E-02 -0.94347920855E-02  0.10209928519E+01  0.10207351717E+01 0.  0.
     999903    2    3    3    0    0 -0.94081119903E-01 -0.78442330626E-01 -0.50966481073E-01  0.13398464194E+00  0.18704163338E-01 0.  0.
         14    1    1    2    0    0  0.19784710920E-01  0.67574163522E-02  0.94347920855E-02  0.22937148115E-01  0.00000000000E+00 0. -1.
     999901    1    3    3    0    0  0.74296408984E-01  0.71684914274E-01  0.41531688988E-01  0.88700820995E+00  0.88000000000E+00 0.  1.
        -11    1    4    4    0    0 -0.34785143757E-01 -0.28107866400E-01 -0.90607279693E-02  0.45633499669E-01  0.51100000000E-03 0.  1.
         11    1    4    4    0    0 -0.59295976146E-01 -0.50334464226E-01 -0.41905753104E-01  0.88351142269E-01  0.51100000000E-03 0. -1.
</event>
<event>
 8    1  0.1084146E+005  0.1043930E+01  0.7957747E-01            NaN
         13   -1    0    0    0    0  0.00000000000E+00  0.00000000000E+00  0.74505805969E-08  0.10566000000E+00  0.10566000000E+00 0. -1.
     999900   -1    0    0    0    0 -0.00000000000E+00 -0.00000000000E+00 -0.74505805969E-08  0.93827000000E+00  0.93827000000E+00 0.  1.
     999902    2    1    2    0    0 -0.52444227127E-02  0.11730176324E-01 -0.20545938005E-01  0.10196970354E+01  0.10194090481E+01 0.  0.
     999903    2    3    3    0    0 -0.61728953493E-01  0.11313746223E+00  0.14915872814E-01  0.13136630874E+00  0.20593075328E-01 0.  0.
         14    1    1    2    0    0  0.52444227127E-02 -0.11730176324E-01  0.20545938005E-01  0.24232964629E-01  0.00000000000E+00 0. -1.
     999901    1    3    3    0    0  0.56484530781E-01 -0.10140728590E+00 -0.35461810819E-01  0.88833072663E+00  0.88000000000E+00 0. -1.
        -11    1    4    4    0    0 -0.31733592777E-01  0.59921124133E-01  0.18139195095E-01  0.70191548975E-01  0.51100000000E-03 0. -1.
         11    1    4    4    0    0 -0.29995360716E-01  0.53216338095E-01 -0.32233222809E-02  0.61174759764E-01  0.51100000000E-03 0.  1.
</event>
<event>
 8    1  0.1084146E+005  0.1043930E+01  0.7957747E-01            NaN
         13   -1    0    0    0    0  0.00000000000E+00  0.00000000000E+00  0.74505805969E-08  0.10566000000E+00  0.10566000000E+00 0. -1.
     999900   -1    0    0    0    0 -0.00000000000E+00 -0.00000000000E+00 -0.74505805969E-08  0.93827000000E+00  0.93827000000E+00 0.  1.
     999902    2    1    2    0    0  0.41582686822E-02 -0.23123396970E-01  0.36171168599E-02  0.10201588784E+01  0.10198818907E+01 0.  0.
     999903    2    3    3    0    0 -0.87746210350E-01 -0.91823447172E-01  0.32111521083E-01  0.13225231734E+00  0.18126852324E-01 0.  0.
         14    1    1    2    0    0 -0.41582686822E-02  0.23123396970E-01 -0.36171168599E-02  0.23771121561E-01  0.00000000000E+00 0. -1.
     999901    1    3    3    0    0  0.91904479033E-01  0.68700050201E-01 -0.28494404224E-01  0.88790656110E+00  0.88000000000E+00 0.  1.
        -11    1    4    4    0    0 -0.59851047081E-01 -0.50713182647E-01  0.22890533882E-01  0.81720330355E-01  0.51100000000E-03 0.  1.
         11    1    4    4    0    0 -0.27895163270E-01 -0.41110264524E-01  0.92209872016E-02  0.50531986989E-01  0.51100000000E-03 0. -1.
</event>
<event>
 8    1  0.1084146E+005  0.1043930E+01  0.7957747E-01            NaN
         13   -1    0    0    0    0  0.00000000000E+00  0.00000000000E+00  0.74505805969E-08  0.10566000000E+00  0.10566000000E+00 0.  1.
     999900   -1    0    0    0    0 -0.00000000000E+00 -0.00000000000E+00 -0.74505805969E-08  0.93827000000E+00  0.93827000000E+00 0. -1.
     999902    2    1    2    0    0 -0.64965616844E-02  0.12702686763E-01 -0.20412194116E-01  0.10190257587E+01  0.10187213926E+01 0.  0.
     999903    2    3    3    0    0  0.14898976121E-01 -0.28693777118E-01 -0.12589974994E+00  0.13150164035E+00  0.19915372125E-01 0.  0.
         14    1    1    2    0    0  0.64965616844E-02 -0.12702686763E-01  0.20412194116E-01  0.24904241273E-01  0.00000000000E+00 0. -1.
     999901    1    3    3    0    0 -0.21395537806E-01  0.41396463881E-01  0.10548755582E+00  0.88752411837E+00  0.88000000000E+00 0.  1.
        -11    1    4    4    0    0  0.42917826225E-02  0.24077380061E-02 -0.20963091738E-01  0.21539009647E-01  0.51100000000E-03 0. -1.
         11    1    4    4    0    0  0.10607193499E-01 -0.31101515124E-01 -0.10493665820E+00  0.10996263071E+00  0.51100000000E-03 0.  1.
</event>
<event>
 8    1  0.1084146E+005  0.1043930E+01  0.7957747E-01            NaN
         13   -1    0    0    0    0  0.00000000000E+00  0.00000000000E+00  0.74505805969E-08  0.10566000000E+00  0.10566000000E+00 0. -1.
     999900   -1    0    0    0    0 -0.00000000000E+00 -0.00000000000E+00 -0.74505805969E-08  0.93827000000E+00  0.93827000000E+00 0. -1.
     999902    2    1    2    0    0 -0.11690249559E-01 -0.18521071881E-01 -0.85568609491E-02  0.10204159211E+01  0.10201449603E+01 0.  0.
     999903    2    3    3    0    0  0.10257406408E+00  0.16934451031E-01  0.72889751229E-01  0.12859364163E+00  0.20376324003E-01 0.  0.
         14    1    1    2    0    0  0.11690249559E-01  0.18521071881E-01  0.85568609491E-02  0.23514078925E-01  0.00000000000E+00 0. -1.
     999901    1    3    3    0    0 -0.11426431364E+00 -0.35455522912E-01 -0.81446612178E-01  0.89182227944E+00  0.88000000000E+00 0. -1.
        -11    1    4    4    0    0  0.68351298059E-01  0.15688860876E-01  0.58952755785E-01  0.91617295516E-01  0.51100000000E-03 0. -1.
         11    1    4    4    0    0  0.34222766022E-01  0.12455901552E-02  0.13936995444E-01  0.36976346115E-01  0.51100000000E-03 0.  1.
</event>
<event>
 8    1  0.1084146E+005  0.1043930E+01  0.7957747E-01            NaN
         13   -1    0    0    0    0  0.00000000000E+00  0.00000000000E+00  0.74505805969E-08  0.10566000000E+00  0.10566000000E+00 0. -1.
     999900   -1    0    0    0    0 -0.00000000000E+00 -0.00000000000E+00 -0.74505805969E-08  0.93827000000E+00  0.93827000000E+00 0. -1.
     999902    2    1    2    0    0  0.14651528317E-01  0.18077487716E-01 -0.46887147873E-02  0.10201929637E+01  0.10199167791E+01 0.  0.
     999903    2    3    3    0    0  0.68793430372E-02 -0.12661388840E+00 -0.25459616776E-02  0.12834062586E+00  0.19657879587E-01 0.  0.
         14    1    1    2    0    0 -0.14651528317E-01 -0.18077487716E-01  0.46887147873E-02  0.23737036262E-01  0.00000000000E+00 0. -1.
     999901    1    3    3    0    0  0.77721852795E-02  0.14469137611E+00 -0.21427531097E-02  0.89185233788E+00  0.88000000000E+00 0.  1.
        -11    1    4    4    0    0 -0.27536745445E-02 -0.94529124943E-01  0.15812114303E-02  0.94583822805E-01  0.51100000000E-03 0.  1.
         11    1    4    4    0    0  0.96330175818E-02 -0.32084763455E-01 -0.41271731079E-02  0.33756803056E-01  0.51100000000E-03 0. -1.
</event>
<event>
 8    1  0.1084146E+005  0.1043930E+01  0.7957747E-01            NaN
         13   -1    0    0    0    0  0.00000000000E+00  0.00000000000E+00  0.74505805969E-08  0.10566000000E+00  0.10566000000E+00 0. -1.
     999900   -1    0    0    0    0 -0.00000000000E+00 -0.00000000000E+00 -0.74505805969E-08  0.93827000000E+00  0.93827000000E+00 0.  1.
     999902    2    1    2    0    0  0.16869884569E-01 -0.16231798967E-01 -0.16370285661E-02  0.10204620609E+01  0.10201921748E+01 0.  0.
     999903    2    3    3    0    0  0.79695523382E-01 -0.56343876714E-01  0.87899126491E-01  0.13278376178E+00  0.19474651813E-01 0.  0.
         14    1    1    2    0    0 -0.16869884569E-01  0.16231798967E-01  0.16370285661E-02  0.23467939100E-01  0.00000000000E+00 0.  1.
     999901    1    3    3    0    0 -0.62825638813E-01  0.40112077746E-01 -0.89536155057E-01  0.88767829912E+00  0.88000000000E+00 0.  1.
        -11    1    4    4    0    0  0.21031820152E-01 -0.74362505822E-02  0.27473098931E-01  0.35393044055E-01  0.51100000000E-03 0.  1.
         11    1    4    4    0    0  0.58663703230E-01 -0.48907626131E-01  0.60426027560E-01  0.97390717721E-01  0.51100000000E-03 0. -1.
</event>
<event>
 8    1  0.1084146E+005  0.1043930E+01  0.7957747E-01            NaN
         13   -1    0    0    0    0  0.00000000000E+00  0.00000000000E+00  0.74505805969E-08  0.10566000000E+00  0.10566000000E+00 0.  1.
     999900   -1    0    0    0    0 -0.00000000000E+00 -0.00000000000E+00 -0.74505805969E-08  0.93827000000E+00  0.93827000000E+00 0. -1.
     999902    2    1    2    0    0 -0.26071283687E-02  0.17922883543E-01 -0.10987948165E-01  0.10227459995E+01  0.10225265853E+01 0.  0.
     999903    2    3    3    0    0 -0.10101296561E-01  0.45167707441E-01  0.12247604375E+00  0.13223430382E+00  0.18530294853E-01 0.  0.
         14    1    1    2    0    0  0.26071283687E-02 -0.17922883543E-01  0.10987948165E-01  0.21184000512E-01  0.00000000000E+00 0.  1.
     999901    1    3    3    0    0  0.74941681926E-02 -0.27244823898E-01 -0.13346399191E+00  0.89051169567E+00  0.88000000000E+00 0. -1.
        -11    1    4    4    0    0 -0.49544939044E-02  0.26298905091E-01  0.45298933944E-01  0.52615909726E-01  0.51100000000E-03 0.  1.
         11    1    4    4    0    0 -0.51468026569E-02  0.18868802350E-01  0.77177109801E-01  0.79618394093E-01  0.51100000000E-03 0. -1.
</event>
<event>
 8    1  0.1084146E+005  0.1043930E+01  0.7957747E-01            NaN
         13   -1    0    0    0    0  0.00000000000E+00  0.00000000000E+00  0.74505805969E-08  0.10566000000E+00  0.10566000000E+00 0.  1.
     999900   -1    0    0    0    0 -0.00000000000E+00 -0.00000000000E+00 -0.74505805969E-08  0.93827000000E+00  0.93827000000E+00 0.  1.
     999902    2    1    2    0    0  0.59912634934E-02  0.21049318738E-01 -0.97216081519E-02  0.10199825842E+01  0.10197014236E+01 0.  0.
     999903    2    3    3    0    0  0.56732934530E-01  0.34664918353E-01  0.11021361082E+00  0.13029468474E+00  0.20233201301E-01 0.  0.
         14    1    1    2    0    0 -0.59912634934E-02 -0.21049318738E-01  0.97216081519E-02  0.23947415782E-01  0.00000000000E+00 0.  1.
     999901    1    3    3    0    0 -0.50741671036E-01 -0.13615599616E-01 -0.11993521898E+00  0.88968789948E+00  0.88000000000E+00 0.  1.
        -11    1    4    4    0    0  0.13779624712E-01  0.17129969427E-01  0.25212928712E-01  0.33455445073E-01  0.51100000000E-03 0.  1.
         11    1    4    4    0    0  0.42953309817E-01  0.17534948926E-01  0.85000682113E-01  0.96839239664E-01  0.51100000000E-03 0. -1.
</event>
<event>
 8    1  0.1084146E+005  0.1043930E+01  0.7957747E-01            NaN
         13   -1    0    0    0    0  0.00000000000E+00  0.00000000000E+00  0.74505805969E-08  0.10566000000E+00  0.10566000000E+00 0. -1.
     999900   -1    0    0    0    0 -0.00000000000E+00 -0.00000000000E+00 -0.74505805969E-08  0.93827000000E+00  0.93827000000E+00 0.  1.
     999902    2    1    2    0    0  0.22014241466E-01 -0.11284184039E-02  0.11294095644E-01  0.10191619409E+01  0.10188609351E+01 0.  0.
     999903    2    3    3    0    0 -0.74029035759E-01 -0.56453849020E-01  0.86977068532E-01  0.12898604437E+00  0.20125953059E-01 0.  0.
         14    1    1    2    0    0 -0.22014241466E-01  0.11284184039E-02 -0.11294095644E-01  0.24768059105E-01  0.00000000000E+00 0. -1.
     999901    1    3    3    0    0  0.96043277226E-01  0.55325430616E-01 -0.75682972888E-01  0.89017589653E+00  0.88000000000E+00 0.  1.
        -11    1    4    4    0    0 -0.39538609920E-01 -0.17847213632E-01  0.36805107249E-01  0.56892018328E-01  0.51100000000E-03 0. -1.
         11    1    4    4    0    0 -0.34490425839E-01 -0.38606635388E-01  0.50171961283E-01  0.72094026039E-01  0.51100000000E-03 0.  1.
</event>
<event>
 7    1  0.1170480E+005  0.1043930E+01  0.7957747E-01            NaN
         13   -1    0    0    0    0  0.00000000000E+00  0.00000000000E+00  0.74505805969E-08  0.10566000000E+00  0.10566000000E+00 0. -1.
     999900   -1    0    0    0    0 -0.00000000000E+00 -0.00000000000E+00 -0.74505805969E-08  0.93827000000E+00  0.93827000000E+00 0.  1.
     999903    2    1    2    0    0 -0.19366697825E-01 -0.13638287939E-01  0.11333562094E+00  0.11763475832E+00  0.20782240243E-01 0.  0.
         14    1    1    2    0    0  0.20559477799E-01 -0.17487381247E-01 -0.32197179225E-01  0.42013795119E-01  0.00000000000E+00 0. -1.
     999901    1    1    2    0    0 -0.11927799744E-02  0.31125669186E-01 -0.81138441711E-01  0.88428144656E+00  0.88000000000E+00 0.  1.
        -11    1    3    3    0    0 -0.11894972015E-02 -0.10674299769E-01  0.65442537460E-01  0.66320000071E-01  0.51100000000E-03 0. -1.
         11    1    3    3    0    0 -0.18177200623E-01 -0.29639881702E-02  0.47893083477E-01  0.51314758250E-01  0.51100000000E-03 0.  1.
</event>
<event>
 8    1  0.1084146E+005  0.1043930E+01  0.7957747E-01            NaN
         13   -1    0    0    0    0  0.00000000000E+00  0.00000000000E+00  0.74505805969E-08  0.10566000000E+00  0.10566000000E+00 0.  1.
     999900   -1    0    0    0    0 -0.00000000000E+00 -0.00000000000E+00 -0.74505805969E-08  0.93827000000E+00  0.93827000000E+00 0. -1.
     999902    2    1    2    0    0 -0.63071830972E-02  0.21335643298E-01 -0.15079652306E-01  0.10170527578E+01  0.10166975588E+01 0.  0.
     999903    2    3    3    0    0 -0.93295113028E-01 -0.18933180820E-01  0.81115055649E-01  0.12663605762E+00  0.19864425152E-01 0.  0.
         14    1    1    2    0    0  0.63071830972E-02 -0.21335643298E-01  0.15079652306E-01  0.26877242180E-01  0.00000000000E+00 0.  1.
     999901    1    3    3    0    0  0.86987929930E-01  0.40268824118E-01 -0.96194707955E-01  0.89041670020E+00  0.88000000000E+00 0. -1.
        -11    1    4    4    0    0 -0.56916578855E-02  0.32442853672E-02  0.31667180671E-02  0.72944897934E-02  0.51100000000E-03 0. -1.
         11    1    4    4    0    0 -0.87603455142E-01 -0.22177466187E-01  0.77948337582E-01  0.11934156783E+00  0.51100000000E-03 0.  1.
</event>
<event>
 8    1  0.1084146E+005  0.1043930E+01  0.7957747E-01            NaN
         13   -1    0    0    0    0  0.00000000000E+00  0.00000000000E+00  0.74505805969E-08  0.10566000000E+00  0.10566000000E+00 0. -1.
     999900   -1    0    0    0    0 -0.00000000000E+00 -0.00000000000E+00 -0.74505805969E-08  0.93827000000E+00  0.93827000000E+00 0.  1.
     999902    2    1    2    0    0  0.74920545568E-02 -0.22357853388E-01 -0.17929988305E-03  0.10203495709E+01  0.10200770609E+01 0.  0.
     999903    2    3    3    0    0 -0.93440604955E-01  0.83921966312E-01 -0.15542582038E-01  0.12809465647E+00  0.19814794360E-01 0.  0.
         14    1    1    2    0    0 -0.74920545568E-02  0.22357853388E-01  0.17929988305E-03  0.23580429132E-01  0.00000000000E+00 0.  1.
     999901    1    3    3    0    0  0.10093265951E+00 -0.10627981970E+00  0.15363282155E-01  0.89225491440E+00  0.88000000000E+00 0. -1.
        -11    1    4    4    0    0 -0.81245432741E-01  0.71431912126E-01 -0.20126132316E-01  0.11003935993E+00  0.51100000000E-03 0. -1.
         11    1    4    4    0    0 -0.12195172214E-01  0.12490054185E-01  0.45835502776E-02  0.18055296537E-01  0.51100000000E-03 0.  1.
</event>
<event>
 7    1  0.1084146E+005  0.1043930E+01  0.7957747E-01            NaN
         13   -1    0    0    0    0  0.00000000000E+00  0.00000000000E+00  0.74505805969E-08  0.10566000000E+00  0.10566000000E+00 0.  1.
     999900   -1    0    0    0    0 -0.00000000000E+00 -0.00000000000E+00 -0.74505805969E-08  0.93827000000E+00  0.93827000000E+00 0.  1.
     999903    2    1    2    0    0  0.31935915917E-01 -0.93771417829E-01 -0.42694184236E-01  0.10959765803E+00  0.19387412196E-01 0.  0.
         14    1    1    2    0    0  0.10239971411E-02  0.12427351425E-01 -0.43994731356E-01  0.45727716110E-01  0.00000000000E+00 0. -1.
     999901    1    1    2    0    0 -0.32959913058E-01  0.81344066404E-01  0.86688915592E-01  0.88860462586E+00  0.88000000000E+00 0. -1.
        -11    1    3    3    0    0  0.24863493517E-01 -0.43890977748E-01 -0.18789335696E-01  0.53832253292E-01  0.51100000000E-03 0.  1.
         11    1    3    3    0    0  0.70724224003E-02 -0.49880440080E-01 -0.23904848540E-01  0.55765404741E-01  0.51100000000E-03 0. -1.
</event>
<event>
 8    1  0.1084146E+005  0.1043930E+01  0.7957747E-01            NaN
         13   -1    0    0    0    0  0.00000000000E+00  0.00000000000E+00  0.74505805969E-08  0.10566000000E+00  0.10566000000E+00 0. -1.
     999900   -1    0    0    0    0 -0.00000000000E+00 -0.00000000000E+00 -0.74505805969E-08  0.93827000000E+00  0.93827000000E+00 0.  1.
     999902    2    1    2    0    0 -0.81734380648E-02 -0.50842151108E-02 -0.23805039997E-01  0.10182524950E+01  0.10179286858E+01 0.  0.
     999903    2    3    3    0    0  0.70028981342E-01  0.76235386603E-01  0.69240104202E-01  0.12618417090E+00  0.20306662897E-01 0.  0.
         14    1    1    2    0    0  0.81734380648E-02  0.50842151108E-02  0.23805039997E-01  0.25677504986E-01  0.00000000000E+00 0. -1.
     999901    1    3    3    0    0 -0.78202419407E-01 -0.81319601714E-01 -0.93045144199E-01  0.89206832411E+00  0.88000000000E+00 0.  1.
        -11    1    4    4    0    0  0.11727456137E-01  0.25689582970E-01  0.20789557102E-01  0.35070710089E-01  0.51100000000E-03 0. -1.
         11    1    4    4    0    0  0.58301525204E-01  0.50545803633E-01  0.48450547100E-01  0.91113460813E-01  0.51100000000E-03 0.  1.
</event>
<event>
 8    1  0.1084146E+005  0.1043930E+01  0.7957747E-01            NaN
         13   -1    0    0    0    0  0.00000000000E+00  0.00000000000E+00  0.74505805969E-08  0.10566000000E+00  0.10566000000E+00 0.  1.
     999900   -1    0    0    0    0 -0.00000000000E+00 -0.00000000000E+00 -0.74505805969E-08  0.93827000000E+00  0.93827000000E+00 0. -1.
     999902    2    1    2    0    0  0.21119783157E-01 -0.65552136191E-02  0.94762346746E-02  0.10198714238E+01  0.10195876156E+01 0.  0.
     999903    2    3    3    0    0 -0.48471141689E-01  0.34001473540E-02  0.11925235879E+00  0.13026881392E+00  0.19693304060E-01 0.  0.
         14    1    1    2    0    0 -0.21119783157E-01  0.65552136191E-02 -0.94762346746E-02  0.24058576221E-01  0.00000000000E+00 0.  1.
     999901    1    3    3    0    0  0.69590924846E-01 -0.99553609731E-02 -0.10977612412E+00  0.88960260985E+00  0.88000000000E+00 0. -1.
        -11    1    4    4    0    0 -0.28087168349E-01 -0.77805657994E-02  0.64313120985E-01  0.70610657000E-01  0.51100000000E-03 0.  1.
         11    1    4    4    0    0 -0.20383973340E-01  0.11180713153E-01  0.54939237808E-01  0.59658156925E-01  0.51100000000E-03 0. -1.
</event>
<event>
 8    1  0.1084146E+005  0.1043930E+01  0.7957747E-01            NaN
         13   -1    0    0    0    0  0.00000000000E+00  0.00000000000E+00  0.74505805969E-08  0.10566000000E+00  0.10566000000E+00 0.  1.
     999900   -1    0    0    0    0 -0.00000000000E+00 -0.00000000000E+00 -0.74505805969E-08  0.93827000000E+00  0.93827000000E+00 0.  1.
     999902    2    1    2    0    0  0.75534851844E-02  0.20252257764E-01  0.13361950024E-01  0.10185183729E+01  0.10182013186E+01 0.  0.
     999903    2    3    3    0    0 -0.59170621588E-01  0.11353613918E+00  0.19549570469E-01  0.13105441555E+00  0.20036386179E-01 0.  0.
         14    1    1    2    0    0 -0.75534851844E-02 -0.20252257764E-01 -0.13361950024E-01  0.25411627091E-01  0.00000000000E+00 0.  1.
     999901    1    3    3    0    0  0.66724106772E-01 -0.93283881418E-01 -0.61876204449E-02  0.88746395735E+00  0.88000000000E+00 0.  1.
        -11    1    4    4    0    0 -0.28094900599E-01  0.33702802811E-01  0.51187463121E-02  0.44177653194E-01  0.51100000000E-03 0. -1.
         11    1    4    4    0    0 -0.31075720989E-01  0.79833336372E-01  0.14430824157E-01  0.86876762360E-01  0.51100000000E-03 0.  1.
</event>
<event>
 8    1  0.1084146E+005  0.1043930E+01  0.7957747E-01            NaN
         13   -1    0    0    0    0  0.00000000000E+00  0.00000000000E+00  0.74505805969E-08  0.10566000000E+00  0.10566000000E+00 0. -1.
     999900   -1    0    0    0    0 -0.00000000000E+00 -0.00000000000E+00 -0.74505805969E-08  0.93827000000E+00  0.93827000000E+00 0. -1.
     999902    2    1    2    0    0 -0.83088112359E-02 -0.18093781118E-01 -0.11414771080E-01  0.10209796567E+01  0.10207216766E+01 0.  0.
     999903    2    3    3    0    0  0.46883102656E-01 -0.63288730257E-01  0.10233170842E+00  0.13079597206E+00  0.20792283822E-01 0.  0.
         14    1    1    2    0    0  0.83088112359E-02  0.18093781118E-01  0.11414771080E-01  0.22950343311E-01  0.00000000000E+00 0. -1.
     999901    1    3    3    0    0 -0.55191913892E-01  0.45194949139E-01 -0.11374647950E+00  0.89018368463E+00  0.88000000000E+00 0. -1.
        -11    1    4    4    0    0  0.31769045699E-01 -0.56632635141E-01  0.81318455374E-01  0.10406478719E+00  0.51100000000E-03 0.  1.
         11    1    4    4    0    0  0.15114056957E-01 -0.66560951160E-02  0.21013253044E-01  0.26731184867E-01  0.51100000000E-03 0. -1.
</event>
<event>
 8    1  0.1084146E+005  0.1043930E+01  0.7957747E-01            NaN
         13   -1    0    0    0    0  0.00000000000E+00  0.00000000000E+00  0.74505805969E-08  0.10566000000E+00  0.10566000000E+00 0.  1.
     999900   -1    0    0    0    0 -0.00000000000E+00 -0.00000000000E+00 -0.74505805969E-08  0.93827000000E+00  0.93827000000E+00 0. -1.
     999902    2    1    2    0    0 -0.61843468695E-02 -0.79834851581E-02 -0.22531537002E-01  0.10192388611E+01  0.10189397448E+01 0.  0.
     999903    2    3    3    0    0 -0.74701418662E-02 -0.37997438835E-02  0.12519039017E+00  0.12691553138E+00  0.19096524328E-01 0.  0.
         14    1    1    2    0    0  0.61843468695E-02  0.79834851581E-02  0.22531537002E-01  0.24691138919E-01  0.00000000000E+00 0.  1.
     999901    1    3    3    0    0  0.12857949968E-02 -0.41837412746E-02 -0.14772192717E+00  0.89232332970E+00  0.88000000000E+00 0. -1.
        -11    1    4    4    0    0 -0.78653984666E-03  0.75835101982E-02  0.44816111996E-01  0.45462878124E-01  0.51100000000E-03 0. -1.
         11    1    4    4    0    0 -0.66836020196E-02 -0.11383254082E-01  0.80374278175E-01  0.81452653257E-01  0.51100000000E-03 0.  1.
</event>
<event>
 8    1  0.1084146E+005  0.1043930E+01  0.7957747E-01            NaN
         13   -1    0    0    0    0  0.00000000000E+00  0.00000000000E+00  0.74505805969E-08  0.10566000000E+00  0.10566000000E+00 0.  1.
     999900   -1    0    0    0    0 -0.00000000000E+00 -0.00000000000E+00 -0.74505805969E-08  0.93827000000E+00  0.93827000000E+00 0.  1.
     999902    2    1    2    0    0 -0.12900199168E-01  0.18011709422E-01 -0.83571033153E-02  0.10202513600E+01  0.10199765486E+01 0.  0.
     999903    2    3    3    0    0  0.10428848630E+00  0.36289887861E-01  0.63969151942E-01  0.12935385358E+00  0.21150004719E-01 0.  0.
         14    1    1    2    0    0  0.12900199168E-01 -0.18011709422E-01  0.83571033153E-02  0.23678639968E-01  0.00000000000E+00 0. -1.
     999901    1    3    3    0    0 -0.11718868547E+00 -0.18278178438E-01 -0.72326255258E-01  0.89089750646E+00  0.88000000000E+00 0. -1.
        -11    1    4    4    0    0  0.42209552268E-01  0.17626494534E-01  0.15104155352E-01  0.48174020406E-01  0.51100000000E-03 0.  1.
         11    1    4    4    0    0  0.62078934031E-01  0.18663393327E-01  0.48864996590E-01  0.81179833171E-01  0.51100000000E-03 0. -1.
</event>
<event>
 8    1  0.1084146E+005  0.1043930E+01  0.7957747E-01            NaN
         13   -1    0    0    0    0  0.00000000000E+00  0.00000000000E+00  0.74505805969E-08  0.10566000000E+00  0.10566000000E+00 0.  1.
     999900   -1    0    0    0    0 -0.00000000000E+00 -0.00000000000E+00 -0.74505805969E-08  0.93827000000E+00  0.93827000000E+00 0.  1.
     999902    2    1    2    0    0 -0.10872377048E-02 -0.22019071314E-01 -0.88651485482E-02  0.10201684250E+01  0.10198916624E+01 0.  0.
     999903    2    3    3    0    0  0.69219450438E-01  0.15024696718E-01  0.10603688243E+00  0.12914780355E+00  0.20451427706E-01 0.  0.
         14    1    1    2    0    0  0.10872377048E-02  0.22019071314E-01  0.88651485482E-02  0.23761574993E-01  0.00000000000E+00 0.  1.
     999901    1    3    3    0    0 -0.70306688143E-01 -0.37043768033E-01 -0.11490203098E+00  0.89102062146E+00  0.88000000000E+00 0.  1.
        -11    1    4    4    0    0  0.24588114165E-01  0.91696838545E-02  0.23971977769E-01  0.35546804348E-01  0.51100000000E-03 0.  1.
         11    1    4    4    0    0  0.44631336273E-01  0.58550128640E-02  0.82064904658E-01  0.93600999197E-01  0.51100000000E-03 0. -1.
</event>
<event>
 8    1  0.1084146E+005  0.1043930E+01  0.7957747E-01            NaN
         13   -1    0    0    0    0  0.00000000000E+00  0.00000000000E+00  0.74505805969E-08  0.10566000000E+00  0.10566000000E+00 0. -1.
     999900   -1    0    0    0    0 -0.00000000000E+00 -0.00000000000E+00 -0.74505805969E-08  0.93827000000E+00  0.93827000000E+00 0. -1.
     999902    2    1    2    0    0  0.23588661294E-01  0.72312348240E-02 -0.43035261694E-02  0.10188853192E+01  0.10185774677E+01 0.  0.
     999903    2    3    3    0    0  0.98924244346E-01 -0.70302888166E-01 -0.45551911699E-01  0.13131086057E+00  0.20953835957E-01 0.  0.
         14    1    1    2    0    0 -0.23588661294E-01 -0.72312348240E-02  0.43035261694E-02  0.25044680797E-01  0.00000000000E+00 0. -1.
     999901    1    3    3    0    0 -0.75335583052E-01  0.77534122990E-01  0.41248385530E-01  0.88757445863E+00  0.88000000000E+00 0.  1.
        -11    1    4    4    0    0  0.37886348848E-01 -0.38534381590E-01 -0.15485747568E-01  0.56216932434E-01  0.51100000000E-03 0.  1.
         11    1    4    4    0    0  0.61037895498E-01 -0.31768506575E-01 -0.30066164131E-01  0.75093928140E-01  0.51100000000E-03 0. -1.
</event>
<event>
 8    1  0.1084146E+005  0.1043930E+01  0.7957747E-01            NaN
         13   -1    0    0    0    0  0.00000000000E+00  0.00000000000E+00  0.74505805969E-08  0.10566000000E+00  0.10566000000E+00 0.  1.
     999900   -1    0    0    0    0 -0.00000000000E+00 -0.00000000000E+00 -0.74505805969E-08  0.93827000000E+00  0.93827000000E+00 0.  1.
     999902    2    1    2    0    0 -0.23336650829E-01  0.22923388648E-01 -0.90886081265E-02  0.10099788024E+01  0.10094079936E+01 0.  0.
     999903    2    3    3    0    0  0.88743545599E-01  0.71078259802E-01  0.34784109854E-01  0.12048137273E+00  0.19449703737E-01 0.  0.
         14    1    1    2    0    0  0.23336650829E-01 -0.22923388648E-01  0.90886081265E-02  0.33951197574E-01  0.00000000000E+00 0.  1.
     999901    1    3    3    0    0 -0.11208019643E+00 -0.48154871154E-01 -0.43872717980E-01  0.88949742969E+00  0.88000000000E+00 0.  1.
        -11    1    4    4    0    0  0.51884479183E-01  0.46090366599E-01  0.11907998169E-01  0.70415783847E-01  0.51100000000E-03 0.  1.
         11    1    4    4    0    0  0.36859066416E-01  0.24987893203E-01  0.22876111685E-01  0.50065588887E-01  0.51100000000E-03 0. -1.
</event>
<event>
 8    1  0.1084146E+005  0.1043930E+01  0.7957747E-01            NaN
         13   -1    0    0    0    0  0.00000000000E+00  0.00000000000E+00  0.74505805969E-08  0.10566000000E+00  0.10566000000E+00 0. -1.
     999900   -1    0    0    0    0 -0.00000000000E+00 -0.00000000000E+00 -0.74505805969E-08  0.93827000000E+00  0.93827000000E+00 0.  1.
     999902    2    1    2    0    0 -0.19374256310E-01  0.13485297114E-01  0.61527522067E-03  0.10203165799E+01  0.10200432979E+01 0.  0.
     999903    2    3    3    0    0  0.33719580234E-01 -0.11225557590E+00 -0.48697499104E-01  0.12843011159E+00  0.19609251166E-01 0.  0.
         14    1    1    2    0    0  0.19374256310E-01 -0.13485297114E-01 -0.61527522067E-03  0.23613420113E-01  0.00000000000E+00 0.  1.
     999901    1    3    3    0    0 -0.53093836544E-01  0.12574087301E+00  0.49312774325E-01  0.89188646830E+00  0.88000000000E+00 0. -1.
        -11    1    4    4    0    0  0.90328601661E-02 -0.47759464585E-01 -0.11346655926E-01  0.49915596179E-01  0.51100000000E-03 0. -1.
         11    1    4    4    0    0  0.24686720068E-01 -0.64496111315E-01 -0.37350843179E-01  0.78514515407E-01  0.51100000000E-03 0.  1.
</event>
<event>
 8    1  0.1084146E+005  0.1043930E+01  0.7957747E-01            NaN
         13   -1    0    0    0    0  0.00000000000E+00  0.00000000000E+00  0.74505805969E-08  0.10566000000E+00  0.10566000000E+00 0. -1.
     999900   -1    0    0    0    0 -0.00000000000E+00 -0.00000000000E+00 -0.74505805969E-08  0.93827000000E+00  0.93827000000E+00 0.  1.
     999902    2    1    2    0    0 -0.10419829216E-01  0.19929700263E-01  0.73955441303E-02  0.10202559664E+01  0.10199812631E+01 0.  0.
     999903    2    3    3    0    0 -0.61493500682E-01  0.54299102924E-01 -0.10062472823E+00  0.13151632231E+00  0.21008662452E-01 0.  0.
         14    1    1    2    0    0  0.10419829216E-01 -0.19929700263E-01 -0.73955441303E-02  0.23674033590E-01  0.00000000000E+00 0.  1.
     999901    1    3    3    0    0  0.51073671466E-01 -0.34369402662E-01  0.10802027236E+00  0.88873964410E+00  0.88000000000E+00 0. -1.
        -11    1    4    4    0    0 -0.18265069219E-01  0.68948179635E-02 -0.32656867203E-01  0.38051062598E-01  0.51100000000E-03 0.  1.
         11    1    4    4    0    0 -0.43228431464E-01  0.47404284961E-01 -0.67967861025E-01  0.93465259711E-01  0.51100000000E-03 0. -1.
</event>
<event>
 8    1  0.1084146E+005  0.1043930E+01  0.7957747E-01            NaN
         13   -1    0    0    0    0  0.00000000000E+00  0.00000000000E+00  0.74505805969E-08  0.10566000000E+00  0.10566000000E+00 0. -1.
     999900   -1    0    0    0    0 -0.00000000000E+00 -0.00000000000E+00 -0.74505805969E-08  0.93827000000E+00  0.93827000000E+00 0. -1.
     999902    2    1    2    0    0 -0.18968614853E-02 -0.20924443497E-01  0.14750550965E-01  0.10182588260E+01  0.10179351785E+01 0.  0.
     999903    2    3    3    0    0 -0.94023706614E-01 -0.88562966566E-01  0.12018630177E-02  0.13076466135E+00  0.20349342278E-01 0.  0.
         14    1    1    2    0    0  0.18968614853E-02  0.20924443497E-01 -0.14750550965E-01  0.25671173969E-01  0.00000000000E+00 0.  1.
     999901    1    3    3    0    0  0.92126845129E-01  0.67638523069E-01  0.13548687948E-01  0.88749416468E+00  0.88000000000E+00 0.  1.
        -11    1    4    4    0    0 -0.41495608739E-01 -0.52434602038E-01  0.35785200688E-02  0.66965214570E-01  0.51100000000E-03 0. -1.
         11    1    4    4    0    0 -0.52528097876E-01 -0.36128364527E-01 -0.23766570511E-02  0.63799446781E-01  0.51100000000E-03 0.  1.
</event>
<event>
 8    1  0.1084146E+005  0.1043930E+01  0.7957747E-01            NaN
         13   -1    0    0    0    0  0.00000000000E+00  0.00000000000E+00  0.74505805969E-08  0.10566000000E+00  0.10566000000E+00 0. -1.
     999900   -1    0    0    0    0 -0.00000000000E+00 -0.00000000000E+00 -0.74505805969E-08  0.93827000000E+00  0.93827000000E+00 0.  1.
     999902    2    1    2    0    0  0.13853052039E-01 -0.37728109626E-02 -0.19022422088E-01  0.10200973817E+01  0.10198189420E+01 0.  0.
     999903    2    3    3    0    0 -0.72711673713E-01  0.54746146275E-01  0.87192478025E-01  0.12757313826E+00  0.19704044155E-01 0.  0.
         14    1    1    2    0    0 -0.13853052039E-01  0.37728109626E-02  0.19022422088E-01  0.23832618309E-01  0.00000000000E+00 0. -1.
     999901    1    3    3    0    0  0.86564725752E-01 -0.58518957238E-01 -0.10621490011E+00  0.89252424343E+00  0.88000000000E+00 0.  1.
        -11    1    4    4    0    0 -0.27105833360E-01  0.11124148429E-01  0.35216417733E-01  0.45814081670E-01  0.51100000000E-03 0. -1.
         11    1    4    4    0    0 -0.45605840353E-01  0.43621997846E-01  0.51976060293E-01  0.81759056593E-01  0.51100000000E-03 0.  1.
</event>
<event>
 8    1  0.1084146E+005  0.1043930E+01  0.7957747E-01            NaN
         13   -1    0    0    0    0  0.00000000000E+00  0.00000000000E+00  0.74505805969E-08  0.10566000000E+00  0.10566000000E+00 0.  1.
     999900   -1    0    0    0    0 -0.00000000000E+00 -0.00000000000E+00 -0.74505805969E-08  0.93827000000E+00  0.93827000000E+00 0. -1.
     999902    2    1    2    0    0  0.20322935421E-01 -0.11877194190E-01  0.30401361919E-02  0.10201953866E+01  0.10199192590E+01 0.  0.
     999903    2    3    3    0    0 -0.26639828998E-01  0.88287593533E-01 -0.87409394748E-01  0.12866882860E+00  0.20270310860E-01 0.  0.
         14    1    1    2    0    0 -0.20322935421E-01  0.11877194190E-01 -0.30401361919E-02  0.23734613417E-01  0.00000000000E+00 0. -1.
     999901    1    3    3    0    0  0.46962764419E-01 -0.10016478772E+00  0.90449530940E-01  0.89152655798E+00  0.88000000000E+00 0. -1.
        -11    1    4    4    0    0 -0.67569405607E-02  0.13282723665E-01 -0.24910112429E-01  0.29032082528E-01  0.51100000000E-03 0.  1.
         11    1    4    4    0    0 -0.19882888437E-01  0.75004869868E-01 -0.62499282319E-01  0.99636746073E-01  0.51100000000E-03 0. -1.
</event>
<event>
 8    1  0.1084146E+005  0.1043930E+01  0.7957747E-01            NaN
         13   -1    0    0    0    0  0.00000000000E+00  0.00000000000E+00  0.74505805969E-08  0.10566000000E+00  0.10566000000E+00 0. -1.
     999900   -1    0    0    0    0 -0.00000000000E+00 -0.00000000000E+00 -0.74505805969E-08  0.93827000000E+00  0.93827000000E+00 0.  1.
     999902    2    1    2    0    0 -0.10371179636E-01  0.14119410075E-01  0.14957607368E-01  0.10208941773E+01  0.10206342500E+01 0.  0.
     999903    2    3    3    0    0  0.38401312792E-01  0.21960251178E-01 -0.11977772443E+00  0.12926990420E+00  0.20176506245E-01 0.  0.
         14    1    1    2    0    0  0.10371179636E-01 -0.14119410075E-01 -0.14957607368E-01  0.23035822670E-01  0.00000000000E+00 0.  1.
     999901    1    3    3    0    0 -0.48772492428E-01 -0.78408411030E-02  0.13473533180E+00  0.89162427313E+00  0.88000000000E+00 0. -1.
        -11    1    4    4    0    0  0.28445875939E-01  0.54121537420E-02 -0.64184578893E-01  0.70415769219E-01  0.51100000000E-03 0. -1.
         11    1    4    4    0    0  0.99554368527E-02  0.16548097436E-01 -0.55593145541E-01  0.58854134977E-01  0.51100000000E-03 0.  1.
</event>
<event>
 8    1  0.1084146E+005  0.1043930E+01  0.7957747E-01            NaN
         13   -1    0    0    0    0  0.00000000000E+00  0.00000000000E+00  0.74505805969E-08  0.10566000000E+00  0.10566000000E+00 0. -1.
     999900   -1    0    0    0    0 -0.00000000000E+00 -0.00000000000E+00 -0.74505805969E-08  0.93827000000E+00  0.93827000000E+00 0. -1.
     999902    2    1    2    0    0  0.10181354967E-01  0.15688734559E-02 -0.20776086260E-01  0.10207401938E+01  0.10204767396E+01 0.  0.
     999903    2    3    3    0    0  0.93954647843E-01  0.57100550639E-01  0.67391345132E-01  0.13064175667E+00  0.20921913187E-01 0.  0.
         14    1    1    2    0    0 -0.10181354967E-01 -0.15688734559E-02  0.20776086260E-01  0.23189806234E-01  0.00000000000E+00 0. -1.
     999901    1    3    3    0    0 -0.83773292877E-01 -0.55531677183E-01 -0.88167431392E-01  0.89009843710E+00  0.88000000000E+00 0.  1.
        -11    1    4    4    0    0  0.66921215832E-01  0.29288215523E-01  0.41687944767E-01  0.84109420143E-01  0.51100000000E-03 0.  1.
         11    1    4    4    0    0  0.27033432011E-01  0.27812335116E-01  0.25703400366E-01  0.46532336523E-01  0.51100000000E-03 0. -1.
</event>
<event>
 8    1  0.1084146E+005  0.1043930E+01  0.7957747E-01            NaN
         13   -1    0    0    0    0  0.00000000000E+00  0.00000000000E+00  0.74505805969E-08  0.10566000000E+00  0.10566000000E+00 0.  1.
     999900   -1    0    0    0    0 -0.00000000000E+00 -0.00000000000E+00 -0.74505805969E-08  0.93827000000E+00  0.93827000000E+00 0. -1.
     999902    2    1    2    0    0  0.19662502048E-01  0.22243624282E-02  0.51891879613E-02  0.10234729854E+01  0.10232685192E+01 0.  0.
     999903    2    3    3    0    0 -0.22039383358E-01  0.12976333082E+00 -0.59772789233E-02  0.13323148687E+00  0.19764735941E-01 0.  0.
         14    1    1    2    0    0 -0.19662502048E-01 -0.22243624282E-02 -0.51891879613E-02  0.20457014609E-01  0.00000000000E+00 0.  1.
     999901    1    3    3    0    0  0.41701885406E-01 -0.12753896839E+00  0.11166466885E-01  0.89024149852E+00  0.88000000000E+00 0. -1.
        -11    1    4    4    0    0 -0.17751384862E-01  0.50263146211E-01  0.91845267202E-03  0.53316040812E-01  0.51100000000E-03 0. -1.
         11    1    4    4    0    0 -0.42879984961E-02  0.79500184607E-01 -0.68957315953E-02  0.79915446059E-01  0.51100000000E-03 0.  1.
</event>
<event>
 8    1  0.1084146E+005  0.1043930E+01  0.7957747E-01            NaN
         13   -1    0    0    0    0  0.00000000000E+00  0.00000000000E+00  0.74505805969E-08  0.10566000000E+00  0.10566000000E+00 0.  1.
     999900   -1    0    0    0    0 -0.00000000000E+00 -0.00000000000E+00 -0.74505805969E-08  0.93827000000E+00  0.93827000000E+00 0.  1.
     999902    2    1    2    0    0 -0.12231075124E-01 -0.10469388288E-01 -0.43853407380E-02  0.10272435233E+01  0.10271079874E+01 0.  0.
     999903    2    3    3    0    0 -0.85949298463E-01 -0.36691499037E-01  0.99306295588E-01  0.13770772812E+00  0.19186714986E-01 0.  0.
         14    1    1    2    0    0  0.12231075124E-01  0.10469388288E-01  0.43853407380E-02  0.16686476657E-01  0.00000000000E+00 0.  1.
     999901    1    3    3    0    0  0.73718223338E-01  0.26222110749E-01 -0.10369163633E+00  0.88953579523E+00  0.88000000000E+00 0.  1.
        -11    1    4    4    0    0 -0.54495140634E-01 -0.31700718420E-01  0.72483002913E-01  0.96066137288E-01  0.51100000000E-03 0. -1.
         11    1    4    4    0    0 -0.31454157829E-01 -0.49907806165E-02  0.26823292675E-01  0.41641590830E-01  0.51100000000E-03 0.  1.
</event>
<event>
 8    1  0.1084146E+005  0.1043930E+01  0.7957747E-01            NaN
         13   -1    0    0    0    0  0.00000000000E+00  0.00000000000E+00  0.74505805969E-08  0.10566000000E+00  0.10566000000E+00 0. -1.
     999900   -1    0    0    0    0 -0.00000000000E+00 -0.00000000000E+00 -0.74505805969E-08  0.93827000000E+00  0.93827000000E+00 0.  1.
     999902    2    1    2    0    0  0.23056164507E-01  0.12516166182E-01  0.47591732864E-02  0.10172674632E+01  0.10169179912E+01 0.  0.
     999903    2    3    3    0    0 -0.42441122003E-01  0.80393825126E-01 -0.86499568714E-01  0.12753411601E+00  0.22767507646E-01 0.  0.
         14    1    1    2    0    0 -0.23056164507E-01 -0.12516166182E-01 -0.47591732864E-02  0.26662536789E-01  0.00000000000E+00 0.  1.
     999901    1    3    3    0    0  0.65497286510E-01 -0.67877658944E-01  0.91258742000E-01  0.88973334720E+00  0.88000000000E+00 0. -1.
        -11    1    4    4    0    0 -0.26209822619E-01  0.69181215861E-01 -0.68069922906E-01  0.10053243733E+00  0.51100000000E-03 0.  1.
         11    1    4    4    0    0 -0.16231299384E-01  0.11212609265E-01 -0.18429645808E-01  0.27001678686E-01  0.51100000000E-03 0. -1.
</event>
<event>
 8    1  0.1084146E+005  0.1043930E+01  0.7957747E-01            NaN
         13   -1    0    0    0    0  0.00000000000E+00  0.00000000000E+00  0.74505805969E-08  0.10566000000E+00  0.10566000000E+00 0. -1.
     999900   -1    0    0    0    0 -0.00000000000E+00 -0.00000000000E+00 -0.74505805969E-08  0.93827000000E+00  0.93827000000E+00 0.  1.
     999902    2    1    2    0    0 -0.90507089211E-02 -0.15190823812E-01 -0.13209713391E-01  0.10218580044E+01  0.10216196006E+01 0.  0.
     999903    2    3    3    0    0 -0.20450226634E-01  0.41315744117E-01  0.11975800304E+00  0.13000411796E+00  0.20830000282E-01 0.  0.
         14    1    1    2    0    0  0.90507089211E-02  0.15190823812E-01  0.13209713391E-01  0.22071995558E-01  0.00000000000E+00 0. -1.
     999901    1    3    3    0    0  0.11399517713E-01 -0.56506567929E-01 -0.13296771643E+00  0.89185388648E+00  0.88000000000E+00 0.  1.
        -11    1    4    4    0    0 -0.21000316260E-01  0.20409112597E-01  0.77542767297E-01  0.82889607558E-01  0.51100000000E-03 0. -1.
         11    1    4    4    0    0  0.55008962624E-03  0.20906631520E-01  0.42215235746E-01  0.47114510400E-01  0.51100000000E-03 0.  1.
</event>
<event>
 8    1  0.1084146E+005  0.1043930E+01  0.7957747E-01            NaN
         13   -1    0    0    0    0  0.00000000000E+00  0.00000000000E+00  0.74505805969E-08  0.10566000000E+00  0.10566000000E+00 0. -1.
     999900   -1    0    0    0    0 -0.00000000000E+00 -0.00000000000E+00 -0.74505805969E-08  0.93827000000E+00  0.93827000000E+00 0.  1.
     999902    2    1    2    0    0  0.14774922748E-03  0.20382349311E-01 -0.52256505918E-02  0.10228879132E+01  0.10226714592E+01 0.  0.
     999903    2    3    3    0    0 -0.91512837236E-01  0.67011206206E-01 -0.69981846531E-01  0.13453591183E+00  0.18367133464E-01 0.  0.
         14    1    1    2    0    0 -0.14774922748E-03 -0.20382349311E-01  0.52256505918E-02  0.21042086812E-01  0.00000000000E+00 0. -1.
     999901    1    3    3    0    0  0.91660586464E-01 -0.46628856895E-01  0.64756195939E-01  0.88835200136E+00  0.88000000000E+00 0. -1.
        -11    1    4    4    0    0 -0.59999130371E-01  0.39795238873E-01 -0.53718761410E-01  0.89830524493E-01  0.51100000000E-03 0.  1.
         11    1    4    4    0    0 -0.31513706865E-01  0.27215967333E-01 -0.16263085121E-01  0.44705387337E-01  0.51100000000E-03 0. -1.
</event>
<event>
 7    1  0.1084146E+005  0.1043930E+01  0.7957747E-01            NaN
         13   -1    0    0    0    0  0.00000000000E+00  0.00000000000E+00  0.74505805969E-08  0.10566000000E+00  0.10566000000E+00 0. -1.
     999900   -1    0    0    0    0 -0.00000000000E+00 -0.00000000000E+00 -0.74505805969E-08  0.93827000000E+00  0.93827000000E+00 0.  1.
     999903    2    1    2    0    0  0.60095158881E-01  0.14107749097E-01 -0.97596607156E-01  0.11717936564E+00  0.19885907040E-01 0.  0.
         14    1    1    2    0    0 -0.28101547413E-01  0.41275742512E-02  0.33109151529E-01  0.43622812279E-01  0.00000000000E+00 0. -1.
     999901    1    1    2    0    0 -0.31993611468E-01 -0.18235323348E-01  0.64487455627E-01  0.88312782208E+00  0.88000000000E+00 0. -1.
        -11    1    3    3    0    0  0.46514621184E-01  0.10849230569E-01 -0.88308516839E-01  0.10039905903E+00  0.51100000000E-03 0. -1.
         11    1    3    3    0    0  0.13580537698E-01  0.32585185278E-02 -0.92880903172E-02  0.16780306609E-01  0.51100000000E-03 0.  1.
</event>
<event>
 8    1  0.1084146E+005  0.1043930E+01  0.7957747E-01            NaN
         13   -1    0    0    0    0  0.00000000000E+00  0.00000000000E+00  0.74505805969E-08  0.10566000000E+00  0.10566000000E+00 0.  1.
     999900   -1    0    0    0    0 -0.00000000000E+00 -0.00000000000E+00 -0.74505805969E-08  0.93827000000E+00  0.93827000000E+00 0. -1.
     999902    2    1    2    0    0  0.24965934596E-01 -0.12872338028E-02  0.75160490422E-03  0.10189196067E+01  0.10186126080E+01 0.  0.
     999903    2    3    3    0    0  0.63746403235E-01 -0.26776226623E-01  0.10962631360E+00  0.13099657196E+00  0.19015861633E-01 0.  0.
         14    1    1    2    0    0 -0.24965934596E-01  0.12872338028E-02 -0.75160490422E-03  0.25010393260E-01  0.00000000000E+00 0. -1.
     999901    1    3    3    0    0 -0.38780468639E-01  0.25488992820E-01 -0.10887470870E+00  0.88792303478E+00  0.88000000000E+00 0. -1.
        -11    1    4    4    0    0  0.46977434318E-01 -0.10151357309E-01  0.71842371262E-01  0.86437936231E-01  0.51100000000E-03 0. -1.
         11    1    4    4    0    0  0.16768968917E-01 -0.16624869315E-01  0.37783942338E-01  0.44558635727E-01  0.51100000000E-03 0.  1.
</event>
<event>
 8    1  0.1084146E+005  0.1043930E+01  0.7957747E-01            NaN
         13   -1    0    0    0    0  0.00000000000E+00  0.00000000000E+00  0.74505805969E-08  0.10566000000E+00  0.10566000000E+00 0. -1.
     999900   -1    0    0    0    0 -0.00000000000E+00 -0.00000000000E+00 -0.74505805969E-08  0.93827000000E+00  0.93827000000E+00 0.  1.
     999902    2    1    2    0    0  0.18507786555E-01 -0.14205554064E-01 -0.35778095945E-02  0.10203262577E+01  0.10200532023E+01 0.  0.
     999903    2    3    3    0    0 -0.17712947521E-01 -0.98944434187E-01  0.82245553167E-01  0.13136154018E+00  0.19691969353E-01 0.  0.
         14    1    1    2    0    0 -0.18507786555E-01  0.14205554064E-01  0.35778095945E-02  0.23603742307E-01  0.00000000000E+00 0. -1.
     999901    1    3    3    0    0  0.36220734076E-01  0.84738880123E-01 -0.85823362762E-01  0.88896471751E+00  0.88000000000E+00 0. -1.
        -11    1    4    4    0    0 -0.11760889480E-01 -0.51808359976E-01  0.31144403669E-01  0.61584573439E-01  0.51100000000E-03 0.  1.
         11    1    4    4    0    0 -0.59520580409E-02 -0.47136074211E-01  0.51101149498E-01  0.69776966744E-01  0.51100000000E-03 0. -1.
</event>
<event>
 8    1  0.1084146E+005  0.1043930E+01  0.7957747E-01            NaN
         13   -1    0    0    0    0  0.00000000000E+00  0.00000000000E+00  0.74505805969E-08  0.10566000000E+00  0.10566000000E+00 0.  1.
     999900   -1    0    0    0    0 -0.00000000000E+00 -0.00000000000E+00 -0.74505805969E-08  0.93827000000E+00  0.93827000000E+00 0.  1.
     999902    2    1    2    0    0  0.76448161846E-02 -0.26386353401E-02 -0.22646836824E-01  0.10198824465E+01  0.10195989015E+01 0.  0.
     999903    2    3    3    0    0 -0.10790845333E+00  0.20811659490E-01  0.62390211990E-01  0.12795544608E+00  0.20067340602E-01 0.  0.
         14    1    1    2    0    0 -0.76448161846E-02  0.26386353401E-02  0.22646836824E-01  0.24047553494E-01  0.00000000000E+00 0.  1.
     999901    1    3    3    0    0  0.11555326951E+00 -0.23450294830E-01 -0.85037048813E-01  0.89192700043E+00  0.88000000000E+00 0. -1.
        -11    1    4    4    0    0 -0.79115631103E-01  0.10406110980E-01  0.53492743536E-01  0.96069271687E-01  0.51100000000E-03 0.  1.
         11    1    4    4    0    0 -0.28792822223E-01  0.10405548509E-01  0.88974684538E-02  0.31886174390E-01  0.51100000000E-03 0. -1.
</event>
<event>
 8    1  0.1084146E+005  0.1043930E+01  0.7957747E-01            NaN
         13   -1    0    0    0    0  0.00000000000E+00  0.00000000000E+00  0.74505805969E-08  0.10566000000E+00  0.10566000000E+00 0.  1.
     999900   -1    0    0    0    0 -0.00000000000E+00 -0.00000000000E+00 -0.74505805969E-08  0.93827000000E+00  0.93827000000E+00 0.  1.
     999902    2    1    2    0    0  0.74425699163E-03 -0.37314917013E-02  0.24711650454E-01  0.10189271278E+01  0.10186203160E+01 0.  0.
     999903    2    3    3    0    0  0.81482061510E-01  0.11465668660E-01  0.10088017295E+00  0.13182443333E+00  0.20738467249E-01 0.  0.
         14    1    1    2    0    0 -0.74425699163E-03  0.37314917013E-02 -0.24711650454E-01  0.25002872174E-01  0.00000000000E+00 0. -1.
     999901    1    3    3    0    0 -0.80737804518E-01 -0.15197160362E-01 -0.76168522491E-01  0.88710269449E+00  0.88000000000E+00 0.  1.
        -11    1    4    4    0    0  0.72833092065E-01  0.34957898022E-02  0.89580407732E-01  0.11550666828E+00  0.51100000000E-03 0. -1.
         11    1    4    4    0    0  0.86489694450E-02  0.79698788583E-02  0.11299765213E-01  0.16317765054E-01  0.51100000000E-03 0.  1.
</event>
<event>
 7    1  0.1084146E+005  0.1043930E+01  0.7957747E-01            NaN
         13   -1    0    0    0    0  0.00000000000E+00  0.00000000000E+00  0.74505805969E-08  0.10566000000E+00  0.10566000000E+00 0.  1.
     999900   -1    0    0    0    0 -0.00000000000E+00 -0.00000000000E+00 -0.74505805969E-08  0.93827000000E+00  0.93827000000E+00 0.  1.
     999903    2    1    2    0    0 -0.58945503901E-01 -0.51460711357E-01  0.72612137915E-01  0.10858686235E+00  0.19894895301E-01 0.  0.
         14    1    1    2    0    0  0.44898036574E-02 -0.35896950075E-01  0.25010987065E-01  0.43980664337E-01  0.00000000000E+00 0. -1.
     999901    1    1    2    0    0  0.54455700243E-01  0.87357661432E-01 -0.97623124979E-01  0.89136247331E+00  0.88000000000E+00 0.  1.
        -11    1    3    3    0    0 -0.18701256038E-01 -0.27998542513E-01  0.24715022993E-01  0.41770190840E-01  0.51100000000E-03 0. -1.
         11    1    3    3    0    0 -0.40244247862E-01 -0.23462168844E-01  0.47897114922E-01  0.66816671510E-01  0.51100000000E-03 0.  1.
</event>
<event>
 8    1  0.1788343E+005  0.1043930E+01  0.7957747E-01            NaN
         13   -1    0    0    0    0  0.00000000000E+00  0.00000000000E+00  0.74505805969E-08  0.10566000000E+00  0.10566000000E+00 0.  1.
     999900   -1    0    0    0    0 -0.00000000000E+00 -0.00000000000E+00 -0.74505805969E-08  0.93827000000E+00  0.93827000000E+00 0. -1.
     999902    2    1    2    0    0  0.20845706722E-02  0.23219017151E-01 -0.30891570409E-02  0.10204138123E+01  0.10201428024E+01 0.  0.
     999903    2    3    3    0    0  0.86246011664E-01  0.44152234629E-01 -0.88938002495E-01  0.13199309440E+00  0.11154117206E-01 0.  0.
         14    1    1    2    0    0 -0.20845706722E-02 -0.23219017151E-01  0.30891570409E-02  0.23516187692E-01  0.00000000000E+00 0.  1.
     999901    1    3    3    0    0 -0.84161440992E-01 -0.20933217478E-01  0.85848845454E-01  0.88842071791E+00  0.88000000000E+00 0.  1.
        -11    1    4    4    0    0  0.58665093329E-01  0.35690846305E-01 -0.63261758035E-01  0.93368842961E-01  0.51100000000E-03 0.  1.
         11    1    4    4    0    0  0.27580918335E-01  0.84613883237E-02 -0.25676244460E-01  0.38624251438E-01  0.51100000000E-03 0. -1.
</event>
<event>
 8    1  0.1084146E+005  0.1043930E+01  0.7957747E-01            NaN
         13   -1    0    0    0    0  0.00000000000E+00  0.00000000000E+00  0.74505805969E-08  0.10566000000E+00  0.10566000000E+00 0.  1.
     999900   -1    0    0    0    0 -0.00000000000E+00 -0.00000000000E+00 -0.74505805969E-08  0.93827000000E+00  0.93827000000E+00 0. -1.
     999902    2    1    2    0    0  0.14986728518E-02 -0.20686854540E-01  0.10946882267E-01  0.10204773626E+01  0.10202078324E+01 0.  0.
     999903    2    3    3    0    0  0.54889744088E-03  0.20823585137E-01  0.12847146582E+00  0.13169389827E+00  0.20110751507E-01 0.  0.
         14    1    1    2    0    0 -0.14986728518E-02  0.20686854540E-01 -0.10946882267E-01  0.23452637431E-01  0.00000000000E+00 0.  1.
     999901    1    3    3    0    0  0.94977541096E-03 -0.41510439677E-01 -0.11752458355E+00  0.88878346430E+00  0.88000000000E+00 0. -1.
        -11    1    4    4    0    0 -0.78142793383E-02  0.23572933881E-02  0.26803875396E-01  0.28023715866E-01  0.51100000000E-03 0. -1.
         11    1    4    4    0    0  0.83631767792E-02  0.18466291749E-01  0.10166759042E+00  0.10367018240E+00  0.51100000000E-03 0.  1.
</event>
<event>
 8    1  0.1084146E+005  0.1043930E+01  0.7957747E-01            NaN
         13   -1    0    0    0    0  0.00000000000E+00  0.00000000000E+00  0.74505805969E-08  0.10566000000E+00  0.10566000000E+00 0. -1.
     999900   -1    0    0    0    0 -0.00000000000E+00 -0.00000000000E+00 -0.74505805969E-08  0.93827000000E+00  0.93827000000E+00 0. -1.
     999902    2    1    2    0    0  0.22247652247E-01 -0.92026679311E-02 -0.22065795428E-02  0.10197532318E+01  0.10194665947E+01 0.  0.
     999903    2    3    3    0    0 -0.72686208942E-01  0.74921077702E-01  0.70884087240E-01  0.12765935324E+00  0.19388238505E-01 0.  0.
         14    1    1    2    0    0 -0.22247652247E-01  0.92026679311E-02  0.22065795428E-02  0.24176768204E-01  0.00000000000E+00 0.  1.
     999901    1    3    3    0    0  0.94933861189E-01 -0.84123745633E-01 -0.73090666782E-01  0.89209387855E+00  0.88000000000E+00 0. -1.
        -11    1    4    4    0    0 -0.94456105938E-02  0.69159249133E-02  0.15845403543E-01  0.19707549603E-01  0.51100000000E-03 0. -1.
         11    1    4    4    0    0 -0.63240598349E-01  0.68005152788E-01  0.55038683696E-01  0.10795180364E+00  0.51100000000E-03 0.  1.
</event>
<event>
 8    1  0.1084146E+005  0.1043930E+01  0.7957747E-01            NaN
         13   -1    0    0    0    0  0.00000000000E+00  0.00000000000E+00  0.74505805969E-08  0.10566000000E+00  0.10566000000E+00 0.  1.
     999900   -1    0    0    0    0 -0.00000000000E+00 -0.00000000000E+00 -0.74505805969E-08  0.93827000000E+00  0.93827000000E+00 0. -1.
     999902    2    1    2    0    0  0.44286839123E-02 -0.78993102757E-02  0.21605592235E-01  0.10205032213E+01  0.10202342921E+01 0.  0.
     999903    2    3    3    0    0 -0.12734845304E+00 -0.44323671445E-02 -0.15780351988E-01  0.12989952586E+00  0.19687380226E-01 0.  0.
         14    1    1    2    0    0 -0.44286839123E-02  0.78993102757E-02 -0.21605592235E-01  0.23426778691E-01  0.00000000000E+00 0. -1.
     999901    1    3    3    0    0  0.13177713695E+00 -0.34669431312E-02  0.37385944223E-01  0.89060369545E+00  0.88000000000E+00 0.  1.
        -11    1    4    4    0    0 -0.55993003006E-01 -0.16659836034E-02  0.28692757406E-02  0.56093544648E-01  0.51100000000E-03 0.  1.
         11    1    4    4    0    0 -0.71355450034E-01 -0.27663835411E-02 -0.18649627728E-01  0.73805981213E-01  0.51100000000E-03 0. -1.
</event>
<event>
 8    1  0.1084146E+005  0.1043930E+01  0.7957747E-01            NaN
         13   -1    0    0    0    0  0.00000000000E+00  0.00000000000E+00  0.74505805969E-08  0.10566000000E+00  0.10566000000E+00 0. -1.
     999900   -1    0    0    0    0 -0.00000000000E+00 -0.00000000000E+00 -0.74505805969E-08  0.93827000000E+00  0.93827000000E+00 0. -1.
     999902    2    1    2    0    0 -0.18260220448E-01  0.14876670499E-01 -0.50638563469E-02  0.10198386402E+01  0.10195540488E+01 0.  0.
     999903    2    3    3    0    0 -0.44333437590E-01  0.12081564118E+00  0.21825601652E-01  0.13269382614E+00  0.23862559930E-01 0.  0.
         14    1    1    2    0    0  0.18260220448E-01 -0.14876670499E-01  0.50638563469E-02  0.24091359800E-01  0.00000000000E+00 0. -1.
     999901    1    3    3    0    0  0.26073217142E-01 -0.10593897068E+00 -0.26889457999E-01  0.88714481406E+00  0.88000000000E+00 0. -1.
        -11    1    4    4    0    0 -0.41965265724E-01  0.98556190827E-01  0.10590046136E-01  0.10764207577E+00  0.51100000000E-03 0. -1.
         11    1    4    4    0    0 -0.23681718656E-02  0.22259450352E-01  0.11235555516E-01  0.25051750372E-01  0.51100000000E-03 0.  1.
</event>
<event>
 8    1  0.1084146E+005  0.1043930E+01  0.7957747E-01            NaN
         13   -1    0    0    0    0  0.00000000000E+00  0.00000000000E+00  0.74505805969E-08  0.10566000000E+00  0.10566000000E+00 0. -1.
     999900   -1    0    0    0    0 -0.00000000000E+00 -0.00000000000E+00 -0.74505805969E-08  0.93827000000E+00  0.93827000000E+00 0. -1.
     999902    2    1    2    0    0 -0.98990594536E-02 -0.12565182856E-01  0.18055454987E-01  0.10198079219E+01  0.10195225956E+01 0.  0.
     999903    2    3    3    0    0  0.15115258926E-02  0.12335153331E+00 -0.28106002958E-01  0.12810481243E+00  0.20075111122E-01 0.  0.
         14    1    1    2    0    0  0.98990594536E-02  0.12565182856E-01 -0.18055454987E-01  0.24122078125E-01  0.00000000000E+00 0.  1.
     999901    1    3    3    0    0 -0.11410585346E-01 -0.13591671616E+00  0.46161457944E-01  0.89170310944E+00  0.88000000000E+00 0. -1.
        -11    1    4    4    0    0  0.61938860035E-02  0.76696242039E-01 -0.90105120598E-02  0.77473403277E-01  0.51100000000E-03 0.  1.
         11    1    4    4    0    0 -0.46823601109E-02  0.46655291267E-01 -0.19095490898E-01  0.50631409155E-01  0.51100000000E-03 0. -1.
</event>
<event>
 8    1  0.1084146E+005  0.1043930E+01  0.7957747E-01            NaN
         13   -1    0    0    0    0  0.00000000000E+00  0.00000000000E+00  0.74505805969E-08  0.10566000000E+00  0.10566000000E+00 0. -1.
     999900   -1    0    0    0    0 -0.00000000000E+00 -0.00000000000E+00 -0.74505805969E-08  0.93827000000E+00  0.93827000000E+00 0. -1.
     999902    2    1    2    0    0 -0.19857531782E-02 -0.15439842441E-01  0.17491730220E-01  0.10205143519E+01  0.10202456811E+01 0.  0.
     999903    2    3    3    0    0 -0.10876442514E-01 -0.13086163381E+00  0.40345785840E-02  0.13283066430E+00  0.19612326468E-01 0.  0.
         14    1    1    2    0    0  0.19857531782E-02  0.15439842441E-01 -0.17491730220E-01  0.23415648109E-01  0.00000000000E+00 0.  1.
     999901    1    3    3    0    0  0.88906893355E-02  0.11542179137E+00  0.13457151636E-01  0.88768368759E+00  0.88000000000E+00 0.  1.
        -11    1    4    4    0    0  0.53265410093E-02 -0.47578138990E-01 -0.19969803079E-03  0.47878516573E-01  0.51100000000E-03 0. -1.
         11    1    4    4    0    0 -0.16202983523E-01 -0.83283494820E-01  0.42342766148E-02  0.84952147730E-01  0.51100000000E-03 0.  1.
</event>
<event>
 8    1  0.1084146E+005  0.1043930E+01  0.7957747E-01            NaN
         13   -1    0    0    0    0  0.00000000000E+00  0.00000000000E+00  0.74505805969E-08  0.10566000000E+00  0.10566000000E+00 0.  1.
     999900   -1    0    0    0    0 -0.00000000000E+00 -0.00000000000E+00 -0.74505805969E-08  0.93827000000E+00  0.93827000000E+00 0. -1.
     999902    2    1    2    0    0  0.13775782397E-01 -0.14168775589E-01 -0.44717678020E-02  0.10236686306E+01  0.10234680954E+01 0.  0.
     999903    2    3    3    0    0  0.97599400646E-01 -0.16177740907E-01 -0.90423177363E-01  0.13551431985E+00  0.20010436580E-01 0.  0.
         14    1    1    2    0    0 -0.13775782397E-01  0.14168775589E-01  0.44717678020E-02  0.20261369391E-01  0.00000000000E+00 0.  1.
     999901    1    3    3    0    0 -0.83823618249E-01  0.20089653184E-02  0.85951409561E-01  0.88815431076E+00  0.88000000000E+00 0.  1.
        -11    1    4    4    0    0  0.60376034778E-01 -0.19230660348E-01 -0.52559404591E-01  0.82327613866E-01  0.51100000000E-03 0.  1.
         11    1    4    4    0    0  0.37223365868E-01  0.30529194414E-02 -0.37863772772E-01  0.53186705982E-01  0.51100000000E-03 0. -1.
</event>
<event>
 8    1  0.1084146E+005  0.1043930E+01  0.7957747E-01            NaN
         13   -1    0    0    0    0  0.00000000000E+00  0.00000000000E+00  0.74505805969E-08  0.10566000000E+00  0.10566000000E+00 0. -1.
     999900   -1    0    0    0    0 -0.00000000000E+00 -0.00000000000E+00 -0.74505805969E-08  0.93827000000E+00  0.93827000000E+00 0. -1.
     999902    2    1    2    0    0 -0.15209251711E-01  0.80216721754E-02  0.15433485006E-01  0.10208245673E+01  0.10205630486E+01 0.  0.
     999903    2    3    3    0    0 -0.28221996484E-01 -0.69611556022E-01 -0.10333048469E+00  0.12936445591E+00  0.20389300387E-01 0.  0.
         14    1    1    2    0    0  0.15209251711E-01 -0.80216721754E-02 -0.15433485006E-01  0.23105432728E-01  0.00000000000E+00 0.  1.
     999901    1    3    3    0    0  0.13012744773E-01  0.77633228197E-01  0.11876396970E+00  0.89146011136E+00  0.88000000000E+00 0.  1.
        -11    1    4    4    0    0 -0.26644753009E-01 -0.39455149382E-01 -0.61828965027E-01  0.78036745915E-01  0.51100000000E-03 0. -1.
         11    1    4    4    0    0 -0.15772434753E-02 -0.30156406640E-01 -0.41501519662E-01  0.51327709998E-01  0.51100000000E-03 0.  1.
</event>
<event>
 8    1  0.1084146E+005  0.1043930E+01  0.7957747E-01            NaN
         13   -1    0    0    0    0  0.00000000000E+00  0.00000000000E+00  0.74505805969E-08  0.10566000000E+00  0.10566000000E+00 0.  1.
     999900   -1    0    0    0    0 -0.00000000000E+00 -0.00000000000E+00 -0.74505805969E-08  0.93827000000E+00  0.93827000000E+00 0.  1.
     999902    2    1    2    0    0 -0.11023535721E-01 -0.19426278651E-01 -0.62761804838E-02  0.10207289422E+01  0.10204652294E+01 0.  0.
     999903    2    3    3    0    0  0.15291869270E-01 -0.71359182849E-01 -0.10855167396E+00  0.13289460874E+00  0.23484822136E-01 0.  0.
         14    1    1    2    0    0  0.11023535721E-01  0.19426278651E-01  0.62761804838E-02  0.23201057810E-01  0.00000000000E+00 0.  1.
     999901    1    3    3    0    0 -0.26315404991E-01  0.51932904197E-01  0.10227549348E+00  0.88783433345E+00  0.88000000000E+00 0. -1.
        -11    1    4    4    0    0  0.22447447193E-03 -0.32158915794E-01 -0.64236981203E-01  0.71839384247E-01  0.51100000000E-03 0. -1.
         11    1    4    4    0    0  0.15067394798E-01 -0.39200267055E-01 -0.44314692759E-01  0.61055224498E-01  0.51100000000E-03 0.  1.
</event>
<event>
 8    1  0.1084146E+005  0.1043930E+01  0.7957747E-01            NaN
         13   -1    0    0    0    0  0.00000000000E+00  0.00000000000E+00  0.74505805969E-08  0.10566000000E+00  0.10566000000E+00 0.  1.
     999900   -1    0    0    0    0 -0.00000000000E+00 -0.00000000000E+00 -0.74505805969E-08  0.93827000000E+00  0.93827000000E+00 0.  1.
     999902    2    1    2    0    0 -0.18918493028E-01 -0.53627761480E-02  0.12852382771E-01  0.10204384592E+01  0.10201680237E+01 0.  0.
     999903    2    3    3    0    0 -0.94207353170E-01  0.73211411532E-01 -0.51454276671E-01  0.13140659144E+00  0.19626857036E-01 0.  0.
         14    1    1    2    0    0  0.18918493028E-01  0.53627761480E-02 -0.12852382771E-01  0.23491540804E-01  0.00000000000E+00 0. -1.
     999901    1    3    3    0    0  0.75288860143E-01 -0.78574187680E-01  0.64306659442E-01  0.88903186775E+00  0.88000000000E+00 0. -1.
        -11    1    4    4    0    0 -0.56102180153E-01  0.34173888162E-01 -0.21225177925E-01  0.69036791271E-01  0.51100000000E-03 0. -1.
         11    1    4    4    0    0 -0.38105173017E-01  0.39037523370E-01 -0.30229098746E-01  0.62369800172E-01  0.51100000000E-03 0.  1.
</event>
<event>
 8    1  0.1084146E+005  0.1043930E+01  0.7957747E-01            NaN
         13   -1    0    0    0    0  0.00000000000E+00  0.00000000000E+00  0.74505805969E-08  0.10566000000E+00  0.10566000000E+00 0. -1.
     999900   -1    0    0    0    0 -0.00000000000E+00 -0.00000000000E+00 -0.74505805969E-08  0.93827000000E+00  0.93827000000E+00 0.  1.
     999902    2    1    2    0    0  0.71232605228E-02 -0.22620616422E-01  0.27208842263E-02  0.10200587550E+01  0.10197794013E+01 0.  0.
     999903    2    3    3    0    0  0.70149317714E-01 -0.82092856879E-01 -0.73975718320E-01  0.13248250467E+00  0.20470545107E-01 0.  0.
         14    1    1    2    0    0 -0.71232605228E-02  0.22620616422E-01 -0.27208842263E-02  0.23871245019E-01  0.00000000000E+00 0. -1.
     999901    1    3    3    0    0 -0.63026057191E-01  0.59472240457E-01  0.76696602546E-01  0.88757625031E+00  0.88000000000E+00 0. -1.
        -11    1    4    4    0    0  0.19639816322E-01 -0.14843599547E-01 -0.25307401563E-01  0.35309779489E-01  0.51100000000E-03 0. -1.
         11    1    4    4    0    0  0.50509501392E-01 -0.67249257333E-01 -0.48668316756E-01  0.97172725183E-01  0.51100000000E-03 0.  1.
</event>
<event>
 8    1  0.1084146E+005  0.1043930E+01  0.7957747E-01            NaN
         13   -1    0    0    0    0  0.00000000000E+00  0.00000000000E+00  0.74505805969E-08  0.10566000000E+00  0.10566000000E+00 0. -1.
     999900   -1    0    0    0    0 -0.00000000000E+00 -0.00000000000E+00 -0.74505805969E-08  0.93827000000E+00  0.93827000000E+00 0. -1.
     999902    2    1    2    0    0  0.13892408622E-01 -0.19984584370E-01  0.32508633756E-02  0.10193749447E+01  0.10190791564E+01 0.  0.
     999903    2    3    3    0    0 -0.10839504304E+00  0.36259328149E-01  0.53562489083E-01  0.12771982176E+00  0.19472760463E-01 0.  0.
         14    1    1    2    0    0 -0.13892408622E-01  0.19984584370E-01 -0.32508633756E-02  0.24555055334E-01  0.00000000000E+00 0.  1.
     999901    1    3    3    0    0  0.12228745166E+00 -0.56243912519E-01 -0.50311625707E-01  0.89165512291E+00  0.88000000000E+00 0. -1.
        -11    1    4    4    0    0 -0.14186806726E-01 -0.17973515065E-02  0.56592136300E-02  0.15387780133E-01  0.51100000000E-03 0. -1.
         11    1    4    4    0    0 -0.94208236311E-01  0.38056679656E-01  0.47903275453E-01  0.11233204162E+00  0.51100000000E-03 0.  1.
</event>
<event>
 8    1  0.1084146E+005  0.1043930E+01  0.7957747E-01            NaN
         13   -1    0    0    0    0  0.00000000000E+00  0.00000000000E+00  0.74505805969E-08  0.10566000000E+00  0.10566000000E+00 0. -1.
     999900   -1    0    0    0    0 -0.00000000000E+00 -0.00000000000E+00 -0.74505805969E-08  0.93827000000E+00  0.93827000000E+00 0.  1.
     999902    2    1    2    0    0 -0.36781311471E-02 -0.13636473559E-01  0.19591985049E-01  0.10197778171E+01  0.10194917696E+01 0.  0.
     999903    2    3    3    0    0 -0.49928510831E-01  0.55370012286E-01  0.10655755416E+00  0.13159765357E+00  0.20118042208E-01 0.  0.
         14    1    1    2    0    0  0.36781311471E-02  0.13636473559E-01 -0.19591985049E-01  0.24152182883E-01  0.00000000000E+00 0. -1.
     999901    1    3    3    0    0  0.46250379684E-01 -0.69006485844E-01 -0.86965569110E-01  0.88818016355E+00  0.88000000000E+00 0.  1.
        -11    1    4    4    0    0 -0.36078490541E-01  0.44328864117E-01  0.93499724671E-01  0.10958633723E+00  0.51100000000E-03 0.  1.
         11    1    4    4    0    0 -0.13850020290E-01  0.11041148169E-01  0.13057829488E-01  0.22011316337E-01  0.51100000000E-03 0. -1.
</event>
<event>
 8    1  0.1084146E+005  0.1043930E+01  0.7957747E-01            NaN
         13   -1    0    0    0    0  0.00000000000E+00  0.00000000000E+00  0.74505805969E-08  0.10566000000E+00  0.10566000000E+00 0.  1.
     999900   -1    0    0    0    0 -0.00000000000E+00 -0.00000000000E+00 -0.74505805969E-08  0.93827000000E+00  0.93827000000E+00 0. -1.
     999902    2    1    2    0    0 -0.25374235859E-01 -0.64402170223E-02  0.38609399363E-02  0.10174680443E+01  0.10171238794E+01 0.  0.
     999903    2    3    3    0    0  0.90696280392E-01  0.42965174332E-01 -0.71342203360E-01  0.12529722537E+00  0.23191878388E-01 0.  0.
         14    1    1    2    0    0  0.25374235859E-01  0.64402170223E-02 -0.38609399363E-02  0.26461955671E-01  0.00000000000E+00 0.  1.
     999901    1    3    3    0    0 -0.11607051625E+00 -0.49405391355E-01  0.75203143297E-01  0.89217081896E+00  0.88000000000E+00 0.  1.
        -11    1    4    4    0    0  0.75889502939E-01  0.25858125759E-01 -0.58773148259E-01  0.99410278147E-01  0.51100000000E-03 0.  1.
         11    1    4    4    0    0  0.14806777453E-01  0.17107048574E-01 -0.12569055101E-01  0.25886947224E-01  0.51100000000E-03 0. -1.
</event>
<event>
 8    1  0.1084146E+005  0.1043930E+01  0.7957747E-01            NaN
         13   -1    0    0    0    0  0.00000000000E+00  0.00000000000E+00  0.74505805969E-08  0.10566000000E+00  0.10566000000E+00 0.  1.
     999900   -1    0    0    0    0 -0.00000000000E+00 -0.00000000000E+00 -0.74505805969E-08  0.93827000000E+00  0.93827000000E+00 0.  1.
     999902    2    1    2    0    0  0.18663731057E-02 -0.13294493305E-01  0.19134584912E-01  0.10205556713E+01  0.10202879589E+01 0.  0.
     999903    2    3    3    0    0  0.10219909196E+00  0.41232548999E-01 -0.64613078945E-01  0.12923444752E+00  0.19542644682E-01 0.  0.
         14    1    1    2    0    0 -0.18663731057E-02  0.13294493305E-01 -0.19134584912E-01  0.23374328665E-01  0.00000000000E+00 0. -1.
     999901    1    3    3    0    0 -0.10033271886E+00 -0.54527042304E-01  0.83747663856E-01  0.89132122381E+00  0.88000000000E+00 0. -1.
        -11    1    4    4    0    0  0.59814113141E-01  0.34293509625E-01 -0.38593828876E-01  0.79015933087E-01  0.51100000000E-03 0.  1.
         11    1    4    4    0    0  0.42384978821E-01  0.69390393733E-02 -0.26019250068E-01  0.50218514436E-01  0.51100000000E-03 0. -1.
</event>
<event>
 8    1  0.1084146E+005  0.1043930E+01  0.7957747E-01            NaN
         13   -1    0    0    0    0  0.00000000000E+00  0.00000000000E+00  0.74505805969E-08  0.10566000000E+00  0.10566000000E+00 0. -1.
     999900   -1    0    0    0    0 -0.00000000000E+00 -0.00000000000E+00 -0.74505805969E-08  0.93827000000E+00  0.93827000000E+00 0. -1.
     999902    2    1    2    0    0 -0.18321033407E-01 -0.12849173689E-01  0.78660803905E-02  0.10202100348E+01  0.10199342520E+01 0.  0.
     999903    2    3    3    0    0  0.71698143040E-01 -0.48591414070E-01 -0.93487659571E-01  0.12911321597E+00  0.20700985723E-01 0.  0.
         14    1    1    2    0    0  0.18321033407E-01  0.12849173689E-01 -0.78660803905E-02  0.23719965226E-01  0.00000000000E+00 0.  1.
     999901    1    3    3    0    0 -0.90019176447E-01  0.35742240382E-01  0.10135373996E+00  0.89109681880E+00  0.88000000000E+00 0.  1.
        -11    1    4    4    0    0  0.59732770739E-01 -0.48565804228E-01 -0.78856784833E-01  0.11020569348E+00  0.51100000000E-03 0. -1.
         11    1    4    4    0    0  0.11965372301E-01 -0.25609842843E-04 -0.14630874737E-01  0.18907522490E-01  0.51100000000E-03 0.  1.
</event>
<event>
 8    1  0.1084146E+005  0.1043930E+01  0.7957747E-01            NaN
         13   -1    0    0    0    0  0.00000000000E+00  0.00000000000E+00  0.74505805969E-08  0.10566000000E+00  0.10566000000E+00 0. -1.
     999900   -1    0    0    0    0 -0.00000000000E+00 -0.00000000000E+00 -0.74505805969E-08  0.93827000000E+00  0.93827000000E+00 0.  1.
     999902    2    1    2    0    0 -0.15268528643E-01 -0.20207095576E-01 -0.77455043766E-02  0.10174451455E+01  0.10171003769E+01 0.  0.
     999903    2    3    3    0    0  0.80198755896E-01  0.86917962869E-01 -0.36070603979E-01  0.12537334806E+00  0.20756088641E-01 0.  0.
         14    1    1    2    0    0  0.15268528643E-01  0.20207095576E-01  0.77455043766E-02  0.26484854476E-01  0.00000000000E+00 0. -1.
     999901    1    3    3    0    0 -0.95467284540E-01 -0.10712505844E+00  0.28325099602E-01  0.89207179746E+00  0.88000000000E+00 0. -1.
        -11    1    4    4    0    0  0.30087976820E-01  0.42920847472E-01 -0.23792641090E-01  0.57565930791E-01  0.51100000000E-03 0. -1.
         11    1    4    4    0    0  0.50110779077E-01  0.43997115397E-01 -0.12277962889E-01  0.67807417268E-01  0.51100000000E-03 0.  1.
</event>
<event>
 7    1  0.1084146E+005  0.1043930E+01  0.7957747E-01            NaN
         13   -1    0    0    0    0  0.00000000000E+00  0.00000000000E+00  0.74505805969E-08  0.10566000000E+00  0.10566000000E+00 0. -1.
     999900   -1    0    0    0    0 -0.00000000000E+00 -0.00000000000E+00 -0.74505805969E-08  0.93827000000E+00  0.93827000000E+00 0. -1.
     999902    2    1    2    0    0 -0.17705395830E-01  0.14206363785E-01  0.67036271096E-02  0.10202606014E+01  0.10199860069E+01 0.  0.
         14    1    1    2    0    0  0.17705395830E-01 -0.14206363785E-01 -0.67036271096E-02  0.23669398596E-01  0.00000000000E+00 0. -1.
     999901    1    3    3    0    0 -0.62371516740E-01 -0.14510575605E-01  0.12439546607E+00  0.89105274529E+00  0.88000000000E+00 0.  1.
        -11    1    3    3    0    0  0.80577815436E-02  0.66434282810E-02 -0.19900400152E-01  0.22479991769E-01  0.51100000000E-03 0.  1.
         11    1    3    3    0    0  0.36608339367E-01  0.22073511110E-01 -0.97791438804E-01  0.10672786435E+00  0.51100000000E-03 0. -1.
</event>
<event>
 8    1  0.1084146E+005  0.1043930E+01  0.7957747E-01            NaN
         13   -1    0    0    0    0  0.00000000000E+00  0.00000000000E+00  0.74505805969E-08  0.10566000000E+00  0.10566000000E+00 0.  1.
     999900   -1    0    0    0    0 -0.00000000000E+00 -0.00000000000E+00 -0.74505805969E-08  0.93827000000E+00  0.93827000000E+00 0.  1.
     999902    2    1    2    0    0 -0.11443937349E-01  0.25924232353E-02 -0.20209035372E-01  0.10205614427E+01  0.10202938640E+01 0.  0.
     999903    2    3    3    0    0  0.56862856658E-01  0.92541432554E-01  0.66758758333E-01  0.12909072554E+00  0.20257897226E-01 0.  0.
         14    1    1    2    0    0  0.11443937349E-01 -0.25924232353E-02  0.20209035372E-01  0.23368557314E-01  0.00000000000E+00 0.  1.
     999901    1    3    3    0    0 -0.68306794007E-01 -0.89949009319E-01 -0.86967793705E-01  0.89147071714E+00  0.88000000000E+00 0.  1.
        -11    1    4    4    0    0  0.12554083198E-01  0.25918772041E-01  0.28053778903E-01  0.40207752744E-01  0.51100000000E-03 0. -1.
         11    1    4    4    0    0  0.44308773460E-01  0.66622660514E-01  0.38704979430E-01  0.88882972797E-01  0.51100000000E-03 0.  1.
</event>
<event>
 8    1  0.1084146E+005  0.1043930E+01  0.7957747E-01            NaN
         13   -1    0    0    0    0  0.00000000000E+00  0.00000000000E+00  0.74505805969E-08  0.10566000000E+00  0.10566000000E+00 0.  1.
     999900   -1    0    0    0    0 -0.00000000000E+00 -0.00000000000E+00 -0.74505805969E-08  0.93827000000E+00  0.93827000000E+00 0.  1.
     999902    2    1    2    0    0  0.73121780846E-02  0.17241642220E-01  0.14310574370E-01  0.10203602161E+01  0.10200879550E+01 0.  0.
     999903    2    3    3    0    0  0.39464383373E-01 -0.10179362134E+00 -0.64425367104E-01  0.12828258115E+00  0.19657410796E-01 0.  0.
         14    1    1    2    0    0 -0.73121780846E-02 -0.17241642220E-01 -0.14310574370E-01  0.23569783910E-01  0.00000000000E+00 0. -1.
     999901    1    3    3    0    0 -0.32152205288E-01  0.11903526356E+00  0.78735941475E-01  0.89207763494E+00  0.88000000000E+00 0. -1.
        -11    1    4    4    0    0  0.29421234696E-01 -0.59301128336E-01 -0.47374559745E-01  0.81405423068E-01  0.51100000000E-03 0. -1.
         11    1    4    4    0    0  0.10043148677E-01 -0.42492493008E-01 -0.17050807359E-01  0.46877158084E-01  0.51100000000E-03 0.  1.
</event>
<event>
 8    1  0.1084146E+005  0.1043930E+01  0.7957747E-01            NaN
         13   -1    0    0    0    0  0.00000000000E+00  0.00000000000E+00  0.74505805969E-08  0.10566000000E+00  0.10566000000E+00 0.  1.
     999900   -1    0    0    0    0 -0.00000000000E+00 -0.00000000000E+00 -0.74505805969E-08  0.93827000000E+00  0.93827000000E+00 0.  1.
     999902    2    1    2    0    0  0.18205280159E-01 -0.57225123819E-02  0.14388058724E-01  0.10200303011E+01  0.10197502731E+01 0.  0.
     999903    2    3    3    0    0 -0.10857417947E+00  0.63984997339E-01  0.13615169547E-01  0.12821598991E+00  0.19275240421E-01 0.  0.
         14    1    1    2    0    0 -0.18205280159E-01  0.57225123819E-02 -0.14388058724E-01  0.23899698899E-01  0.00000000000E+00 0. -1.
     999901    1    3    3    0    0  0.12677945963E+00 -0.69707509721E-01  0.77288917671E-03  0.89181431120E+00  0.88000000000E+00 0.  1.
        -11    1    4    4    0    0 -0.54887123009E-01  0.28031421391E-01 -0.22749466709E-02  0.61674900574E-01  0.51100000000E-03 0. -1.
         11    1    4    4    0    0 -0.53687056462E-01  0.35953575948E-01  0.15890116218E-01  0.66541089331E-01  0.51100000000E-03 0.  1.
</event>
<event>
 8    1  0.1084146E+005  0.1043930E+01  0.7957747E-01            NaN
         13   -1    0    0    0    0  0.00000000000E+00  0.00000000000E+00  0.74505805969E-08  0.10566000000E+00  0.10566000000E+00 0.  1.
     999900   -1    0    0    0    0 -0.00000000000E+00 -0.00000000000E+00 -0.74505805969E-08  0.93827000000E+00  0.93827000000E+00 0. -1.
     999902    2    1    2    0    0  0.54004086322E-02  0.22985864027E-01 -0.31008257631E-02  0.10201155196E+01  0.10198375085E+01 0.  0.
     999903    2    3    3    0    0  0.71416349360E-01 -0.37794592767E-01 -0.10019533042E+00  0.13023928592E+00  0.19860542763E-01 0.  0.
         14    1    1    2    0    0 -0.54004086322E-02 -0.22985864027E-01  0.31008257631E-02  0.23814480445E-01  0.00000000000E+00 0.  1.
     999901    1    3    3    0    0 -0.66015940728E-01  0.60780456794E-01  0.97094504662E-01  0.88987623364E+00  0.88000000000E+00 0.  1.
        -11    1    4    4    0    0  0.22090273262E-01 -0.21729230548E-01 -0.31909560502E-01  0.44481690676E-01  0.51100000000E-03 0. -1.
         11    1    4    4    0    0  0.49326076099E-01 -0.16065362219E-01 -0.68285769923E-01  0.85757595241E-01  0.51100000000E-03 0.  1.
</event>
<event>
 8    1  0.1084146E+005  0.1043930E+01  0.7957747E-01            NaN
         13   -1    0    0    0    0  0.00000000000E+00  0.00000000000E+00  0.74505805969E-08  0.10566000000E+00  0.10566000000E+00 0. -1.
     999900   -1    0    0    0    0 -0.00000000000E+00 -0.00000000000E+00 -0.74505805969E-08  0.93827000000E+00  0.93827000000E+00 0. -1.
     999902    2    1    2    0    0  0.21258357912E-02 -0.14276704357E-01 -0.17424397584E-01  0.10213036195E+01  0.10210529516E+01 0.  0.
     999903    2    3    3    0    0  0.42846286967E-01 -0.16195296119E-01 -0.12420568844E+00  0.13391189073E+00  0.20180424075E-01 0.  0.
         14    1    1    2    0    0 -0.21258357912E-02  0.14276704357E-01  0.17424397584E-01  0.22626380539E-01  0.00000000000E+00 0. -1.
     999901    1    3    3    0    0 -0.40720451175E-01  0.19185917616E-02  0.10678129085E+00  0.88739172873E+00  0.88000000000E+00 0.  1.
        -11    1    4    4    0    0  0.29426036927E-01 -0.20565290275E-01 -0.87151134383E-01  0.94257117284E-01  0.51100000000E-03 0. -1.
         11    1    4    4    0    0  0.13420250040E-01  0.43699941561E-02 -0.37054554056E-01  0.39654773449E-01  0.51100000000E-03 0.  1.
</event>
<event>
 8    1  0.1084146E+005  0.1043930E+01  0.7957747E-01            NaN
         13   -1    0    0    0    0  0.00000000000E+00  0.00000000000E+00  0.74505805969E-08  0.10566000000E+00  0.10566000000E+00 0. -1.
     999900   -1    0    0    0    0 -0.00000000000E+00 -0.00000000000E+00 -0.74505805969E-08  0.93827000000E+00  0.93827000000E+00 0.  1.
     999902    2    1    2    0    0 -0.13541891469E-01 -0.16613800123E-01 -0.69289460547E-02  0.10214042043E+01  0.10211557849E+01 0.  0.
     999903    2    3    3    0    0  0.12652994541E+00 -0.23710624113E-01  0.70749393007E-03  0.13026515811E+00  0.19912058884E-01 0.  0.
         14    1    1    2    0    0  0.13541891469E-01  0.16613800123E-01  0.69289460547E-02  0.22525795714E-01  0.00000000000E+00 0.  1.
     999901    1    3    3    0    0 -0.14007183688E+00  0.70968239897E-02 -0.76364399848E-02  0.89113904617E+00  0.88000000000E+00 0. -1.
        -11    1    4    4    0    0  0.10348705165E+00 -0.18740369308E-01 -0.71442387569E-02  0.10541381584E+00  0.51100000000E-03 0.  1.
         11    1    4    4    0    0  0.23042893761E-01 -0.49702548050E-02  0.78517326870E-02  0.24851342276E-01  0.51100000000E-03 0. -1.
</event>
<event>
 8    1  0.1084146E+005  0.1043930E+01  0.7957747E-01            NaN
         13   -1    0    0    0    0  0.00000000000E+00  0.00000000000E+00  0.74505805969E-08  0.10566000000E+00  0.10566000000E+00 0.  1.
     999900   -1    0    0    0    0 -0.00000000000E+00 -0.00000000000E+00 -0.74505805969E-08  0.93827000000E+00  0.93827000000E+00 0.  1.
     999902    2    1    2    0    0 -0.10236477399E-01 -0.27781464881E-02 -0.20493526530E-01  0.10208542942E+01  0.10205934557E+01 0.  0.
     999903    2    3    3    0    0 -0.48135881046E-01  0.73595327099E-01 -0.98254397351E-01  0.13332061864E+00  0.19675506114E-01 0.  0.
         14    1    1    2    0    0  0.10236477399E-01  0.27781464881E-02  0.20493526530E-01  0.23075705776E-01  0.00000000000E+00 0.  1.
     999901    1    3    3    0    0  0.37899403647E-01 -0.76373473587E-01  0.77760870821E-01  0.88753367558E+00  0.88000000000E+00 0. -1.
        -11    1    4    4    0    0 -0.29953746488E-01  0.48217848996E-01 -0.48926741077E-01  0.74941810786E-01  0.51100000000E-03 0. -1.
         11    1    4    4    0    0 -0.18182134558E-01  0.25377478103E-01 -0.49327656274E-01  0.58378807854E-01  0.51100000000E-03 0.  1.
</event>
<event>
 8    1  0.1084146E+005  0.1043930E+01  0.7957747E-01            NaN
         13   -1    0    0    0    0  0.00000000000E+00  0.00000000000E+00  0.74505805969E-08  0.10566000000E+00  0.10566000000E+00 0.  1.
     999900   -1    0    0    0    0 -0.00000000000E+00 -0.00000000000E+00 -0.74505805969E-08  0.93827000000E+00  0.93827000000E+00 0. -1.
     999902    2    1    2    0    0 -0.25090091307E-02 -0.20572538956E-01 -0.14577287326E-01  0.10185918511E+01  0.10182766506E+01 0.  0.
     999903    2    3    3    0    0 -0.11897688979E+00  0.42490836893E-01 -0.13360913638E-01  0.12867992499E+00  0.20470406916E-01 0.  0.
         14    1    1    2    0    0  0.25090091307E-02  0.20572538956E-01  0.14577287326E-01  0.25338148940E-01  0.00000000000E+00 0.  1.
     999901    1    3    3    0    0  0.11646788065E+00 -0.63063375849E-01 -0.12163736882E-02  0.88991192607E+00  0.88000000000E+00 0. -1.
        -11    1    4    4    0    0 -0.10627520836E+00  0.30940781829E-01 -0.96544261886E-02  0.11110904985E+00  0.51100000000E-03 0.  1.
         11    1    4    4    0    0 -0.12701681422E-01  0.11550055064E-01 -0.37064874490E-02  0.17570875139E-01  0.51100000000E-03 0. -1.
</event>
<event>
 8    1  0.1084146E+005  0.1043930E+01  0.7957747E-01            NaN
         13   -1    0    0    0    0  0.00000000000E+00  0.00000000000E+00  0.74505805969E-08  0.10566000000E+00  0.10566000000E+00 0.  1.
     999900   -1    0    0    0    0 -0.00000000000E+00 -0.00000000000E+00 -0.74505805969E-08  0.93827000000E+00  0.93827000000E+00 0.  1.
     999902    2    1    2    0    0  0.58503521887E-02 -0.10855074417E-01 -0.21554270502E-01  0.10190976453E+01  0.10187950554E+01 0.  0.
     999903    2    3    3    0    0 -0.28278817858E-01 -0.56383027666E-01  0.10819775898E+00  0.12776539307E+00  0.25268622228E-01 0.  0.
         14    1    1    2    0    0 -0.58503521887E-02  0.10855074417E-01  0.21554270502E-01  0.24832354664E-01  0.00000000000E+00 0.  1.
     999901    1    3    3    0    0  0.34129170047E-01  0.45527953249E-01 -0.12975202948E+00  0.89133225227E+00  0.88000000000E+00 0.  1.
        -11    1    4    4    0    0 -0.14062325678E-01 -0.24717675627E-01  0.72926536368E-01  0.78276773819E-01  0.51100000000E-03 0. -1.
         11    1    4    4    0    0 -0.14216492180E-01 -0.31665352038E-01  0.35271222613E-01  0.49488619250E-01  0.51100000000E-03 0.  1.
</event>
<event>
 8    1  0.1084146E+005  0.1043930E+01  0.7957747E-01            NaN
         13   -1    0    0    0    0  0.00000000000E+00  0.00000000000E+00  0.74505805969E-08  0.10566000000E+00  0.10566000000E+00 0. -1.
     999900   -1    0    0    0    0 -0.00000000000E+00 -0.00000000000E+00 -0.74505805969E-08  0.93827000000E+00  0.93827000000E+00 0. -1.
     999902    2    1    2    0    0 -0.18149737258E-01 -0.11960917313E-01  0.10838828122E-01  0.10196409757E+01  0.10193516384E+01 0.  0.
     999903    2    3    3    0    0 -0.10819452269E+00 -0.73269064429E-01  0.12086933884E-01  0.13292325849E+00  0.21168092333E-01 0.  0.
         14    1    1    2    0    0  0.18149737258E-01  0.11960917313E-01 -0.10838828122E-01  0.24289024282E-01  0.00000000000E+00 0.  1.
     999901    1    3    3    0    0  0.90044785433E-01  0.61308147117E-01 -0.12481057620E-02  0.88671771723E+00  0.88000000000E+00 0. -1.
        -11    1    4    4    0    0 -0.64265805024E-01 -0.55697875010E-01  0.68901163306E-02  0.85323395385E-01  0.51100000000E-03 0. -1.
         11    1    4    4    0    0 -0.43928717667E-01 -0.17571189419E-01  0.51968175534E-02  0.47599863100E-01  0.51100000000E-03 0.  1.
</event>
<event>
 8    1  0.1084146E+005  0.1043930E+01  0.7957747E-01            NaN
         13   -1    0    0    0    0  0.00000000000E+00  0.00000000000E+00  0.74505805969E-08  0.10566000000E+00  0.10566000000E+00 0. -1.
     999900   -1    0    0    0    0 -0.00000000000E+00 -0.00000000000E+00 -0.74505805969E-08  0.93827000000E+00  0.93827000000E+00 0. -1.
     999902    2    1    2    0    0 -0.22155311834E-01  0.54480273467E-03 -0.91998990723E-02  0.10199343172E+01  0.10196520085E+01 0.  0.
     999903    2    3    3    0    0 -0.71635659122E-01  0.84817194004E-01 -0.69660858936E-01  0.13246281430E+00  0.19186918691E-01 0.  0.
         14    1    1    2    0    0  0.22155311834E-01 -0.54480273467E-03  0.91998990723E-02  0.23995682850E-01  0.00000000000E+00 0. -1.
     999901    1    3    3    0    0  0.49480347288E-01 -0.84272391270E-01  0.60460959863E-01  0.88747150285E+00  0.88000000000E+00 0.  1.
        -11    1    4    4    0    0 -0.23207562108E-01  0.40098026733E-01 -0.23205793970E-01  0.51819037830E-01  0.51100000000E-03 0. -1.
         11    1    4    4    0    0 -0.48428097014E-01  0.44719167271E-01 -0.46455064965E-01  0.80643776473E-01  0.51100000000E-03 0.  1.
</event>
<event>
 8    1  0.1084146E+005  0.1043930E+01  0.7957747E-01            NaN
         13   -1    0    0    0    0  0.00000000000E+00  0.00000000000E+00  0.74505805969E-08  0.10566000000E+00  0.10566000000E+00 0. -1.
     999900   -1    0    0    0    0 -0.00000000000E+00 -0.00000000000E+00 -0.74505805969E-08  0.93827000000E+00  0.93827000000E+00 0. -1.
     999902    2    1    2    0    0  0.22998413196E-01 -0.51670940028E-02  0.14444634853E-02  0.10203140659E+01  0.10200407250E+01 0.  0.
     999903    2    3    3    0    0  0.10703346348E+00  0.63707241843E-01  0.41466160220E-01  0.13272897135E+00  0.19564315079E-01 0.  0.
         14    1    1    2    0    0 -0.22998413196E-01  0.51670940028E-02 -0.14444634853E-02  0.23615934128E-01  0.00000000000E+00 0. -1.
     999901    1    3    3    0    0 -0.84035050280E-01 -0.68874335845E-01 -0.40021696734E-01  0.88758509453E+00  0.88000000000E+00 0. -1.
        -11    1    4    4    0    0  0.57988236713E-01  0.23299447117E-01  0.22237122989E-01  0.66334384695E-01  0.51100000000E-03 0.  1.
         11    1    4    4    0    0  0.49045226763E-01  0.40407794726E-01  0.19229037231E-01  0.66394586651E-01  0.51100000000E-03 0. -1.
</event>
<event>
 8    1  0.1084146E+005  0.1043930E+01  0.7957747E-01            NaN
         13   -1    0    0    0    0  0.00000000000E+00  0.00000000000E+00  0.74505805969E-08  0.10566000000E+00  0.10566000000E+00 0. -1.
     999900   -1    0    0    0    0 -0.00000000000E+00 -0.00000000000E+00 -0.74505805969E-08  0.93827000000E+00  0.93827000000E+00 0.  1.
     999902    2    1    2    0    0 -0.11650436564E-02 -0.32021898765E-02 -0.25931884028E-01  0.10177751925E+01  0.10174390736E+01 0.  0.
     999903    2    3    3    0    0  0.11722263872E+00  0.21334575410E-01 -0.46078361477E-01  0.12928007334E+00  0.19844667580E-01 0.  0.
         14    1    1    2    0    0  0.11650436564E-02  0.32021898765E-02  0.25931884028E-01  0.26154807511E-01  0.00000000000E+00 0. -1.
     999901    1    3    3    0    0 -0.11838768238E+00 -0.24536765286E-01  0.20146477450E-01  0.88849511914E+00  0.88000000000E+00 0. -1.
        -11    1    4    4    0    0  0.65738112562E-01  0.20130084883E-01 -0.32332161112E-01  0.75975979913E-01  0.51100000000E-03 0. -1.
         11    1    4    4    0    0  0.51484526157E-01  0.12044905270E-02 -0.13746200365E-01  0.53304093431E-01  0.51100000000E-03 0.  1.
</event>
<event>
 8    1  0.1084146E+005  0.1043930E+01  0.7957747E-01            NaN
         13   -1    0    0    0    0  0.00000000000E+00  0.00000000000E+00  0.74505805969E-08  0.10566000000E+00  0.10566000000E+00 0.  1.
     999900   -1    0    0    0    0 -0.00000000000E+00 -0.00000000000E+00 -0.74505805969E-08  0.93827000000E+00  0.93827000000E+00 0.  1.
     999902    2    1    2    0    0 -0.13016201404E-01 -0.20259321330E-01 -0.23570250526E-02  0.10197346044E+01  0.10194475201E+01 0.  0.
     999903    2    3    3    0    0 -0.10999968066E+00 -0.41670373325E-01  0.56749072906E-01  0.13217741798E+00  0.20348532861E-01 0.  0.
         14    1    1    2    0    0  0.13016201404E-01  0.20259321330E-01  0.23570250526E-02  0.24195395571E-01  0.00000000000E+00 0. -1.
     999901    1    3    3    0    0  0.96983479260E-01  0.21411051996E-01 -0.59106097959E-01  0.88755718645E+00  0.88000000000E+00 0.  1.
        -11    1    4    4    0    0 -0.54028034061E-01 -0.98830652439E-02  0.23749953952E-01  0.59841665058E-01  0.51100000000E-03 0.  1.
         11    1    4    4    0    0 -0.55971646603E-01 -0.31787308081E-01  0.32999118954E-01  0.72335752925E-01  0.51100000000E-03 0. -1.
</event>
<event>
 8    1  0.1084146E+005  0.1043930E+01  0.7957747E-01            NaN
         13   -1    0    0    0    0  0.00000000000E+00  0.00000000000E+00  0.74505805969E-08  0.10566000000E+00  0.10566000000E+00 0.  1.
     999900   -1    0    0    0    0 -0.00000000000E+00 -0.00000000000E+00 -0.74505805969E-08  0.93827000000E+00  0.93827000000E+00 0. -1.
     999902    2    1    2    0    0  0.68458995063E-02  0.22373048358E-01  0.40780755398E-02  0.10201802561E+01  0.10199037723E+01 0.  0.
     999903    2    3    3    0    0 -0.10449716800E+00  0.75555969877E-01 -0.15047553762E-01  0.13136560082E+00  0.20053166882E-01 0.  0.
         14    1    1    2    0    0 -0.68458995063E-02 -0.22373048358E-01 -0.40780755398E-02  0.23749743851E-01  0.00000000000E+00 0.  1.
     999901    1    3    3    0    0  0.11134306751E+00 -0.53182921518E-01  0.19125629302E-01  0.88881465532E+00  0.88000000000E+00 0. -1.
        -11    1    4    4    0    0 -0.22391055205E-01  0.27042922652E-01 -0.50437910956E-02  0.35473651748E-01  0.51100000000E-03 0. -1.
         11    1    4    4    0    0 -0.82106112794E-01  0.48513047225E-01 -0.10003762666E-01  0.95891949077E-01  0.51100000000E-03 0.  1.
</event>
<event>
 8    1  0.1084146E+005  0.1043930E+01  0.7957747E-01            NaN
         13   -1    0    0    0    0  0.00000000000E+00  0.00000000000E+00  0.74505805969E-08  0.10566000000E+00  0.10566000000E+00 0. -1.
     999900   -1    0    0    0    0 -0.00000000000E+00 -0.00000000000E+00 -0.74505805969E-08  0.93827000000E+00  0.93827000000E+00 0. -1.
     999902    2    1    2    0    0  0.21185282656E-01 -0.16108121361E-02 -0.10539094185E-01  0.10202132670E+01  0.10199375602E+01 0.  0.
     999903    2    3    3    0    0 -0.75491291125E-01  0.85351995518E-02  0.10093401240E+00  0.12787053300E+00  0.19784177604E-01 0.  0.
         14    1    1    2    0    0 -0.21185282656E-01  0.16108121361E-02  0.10539094185E-01  0.23716732979E-01  0.00000000000E+00 0. -1.
     999901    1    3    3    0    0  0.96676573781E-01 -0.10146011688E-01 -0.11147310658E+00  0.89234273402E+00  0.88000000000E+00 0. -1.
        -11    1    4    4    0    0 -0.15215400778E-01 -0.44026320347E-02  0.29692290289E-01  0.33656868738E-01  0.51100000000E-03 0.  1.
         11    1    4    4    0    0 -0.60275890347E-01  0.12937831586E-01  0.71241722110E-01  0.94213664261E-01  0.51100000000E-03 0. -1.
</event>
<event>
 7    1  0.1084146E+005  0.1043930E+01  0.7957747E-01            NaN
         13   -1    0    0    0    0  0.00000000000E+00  0.00000000000E+00  0.74505805969E-08  0.10566000000E+00  0.10566000000E+00 0. -1.
     999900   -1    0    0    0    0 -0.00000000000E+00 -0.00000000000E+00 -0.74505805969E-08  0.93827000000E+00  0.93827000000E+00 0.  1.
     999903    2    1    2    0    0 -0.75543853404E-01  0.11771408796E-02  0.85887726872E-01  0.11615002142E+00  0.20146126225E-01 0.  0.
         14    1    1    2    0    0 -0.19393108219E-01  0.25827838874E-01 -0.23738749349E-01  0.40083639155E-01  0.00000000000E+00 0.  1.
     999901    1    1    2    0    0  0.94936961622E-01 -0.27004979753E-01 -0.62148977523E-01  0.88769633942E+00  0.88000000000E+00 0. -1.
        -11    1    3    3    0    0 -0.60602827828E-01  0.48414776624E-02  0.56610574476E-01  0.83073226193E-01  0.51100000000E-03 0. -1.
         11    1    3    3    0    0 -0.14941025576E-01 -0.36643367829E-02  0.29277152396E-01  0.33076795231E-01  0.51100000000E-03 0.  1.
</event>
<event>
 8    1  0.1084146E+005  0.1043930E+01  0.7957747E-01            NaN
         13   -1    0    0    0    0  0.00000000000E+00  0.00000000000E+00  0.74505805969E-08  0.10566000000E+00  0.10566000000E+00 0.  1.
     999900   -1    0    0    0    0 -0.00000000000E+00 -0.00000000000E+00 -0.74505805969E-08  0.93827000000E+00  0.93827000000E+00 0. -1.
     999902    2    1    2    0    0  0.59761885784E-02 -0.91380520465E-02 -0.20411934028E-01  0.10207812230E+01  0.10205187109E+01 0.  0.
     999903    2    3    3    0    0  0.31271475699E-01  0.11547398556E+00 -0.50743805100E-01  0.13112509064E+00  0.17513112395E-01 0.  0.
         14    1    1    2    0    0 -0.59761885784E-02  0.91380520465E-02  0.20411934028E-01  0.23148776984E-01  0.00000000000E+00 0.  1.
     999901    1    3    3    0    0 -0.25295287120E-01 -0.12461203761E+00  0.30331871073E-01  0.88965613237E+00  0.88000000000E+00 0. -1.
        -11    1    4    4    0    0  0.13096540506E-01  0.44679096791E-01 -0.29051649264E-01  0.54881695575E-01  0.51100000000E-03 0.  1.
         11    1    4    4    0    0  0.18174935193E-01  0.70794888772E-01 -0.21692155836E-01  0.76243395067E-01  0.51100000000E-03 0. -1.
</event>
<event>
 8    1  0.1084146E+005  0.1043930E+01  0.7957747E-01            NaN
         13   -1    0    0    0    0  0.00000000000E+00  0.00000000000E+00  0.74505805969E-08  0.10566000000E+00  0.10566000000E+00 0.  1.
     999900   -1    0    0    0    0 -0.00000000000E+00 -0.00000000000E+00 -0.74505805969E-08  0.93827000000E+00  0.93827000000E+00 0.  1.
     999902    2    1    2    0    0 -0.80068390847E-03  0.23706156178E-01  0.17559119746E-02  0.10201454218E+01  0.10198681167E+01 0.  0.
     999903    2    3    3    0    0 -0.77100539651E-01 -0.72329356882E-01  0.70990463076E-01  0.12894515760E+00  0.20277542763E-01 0.  0.
         14    1    1    2    0    0  0.80068390847E-03 -0.23706156178E-01 -0.17559119746E-02  0.23784578245E-01  0.00000000000E+00 0.  1.
     999901    1    3    3    0    0  0.76299855743E-01  0.96035513060E-01 -0.69234551101E-01  0.89120026415E+00  0.88000000000E+00 0. -1.
        -11    1    4    4    0    0 -0.66234321708E-01 -0.54081956616E-01  0.63145996078E-01  0.10629920670E+00  0.51100000000E-03 0.  1.
         11    1    4    4    0    0 -0.10866217944E-01 -0.18247400266E-01  0.78444669974E-02  0.22645950904E-01  0.51100000000E-03 0. -1.
</event>
<event>
 8    1  0.1084146E+005  0.1043930E+01  0.7957747E-01            NaN
         13   -1    0    0    0    0  0.00000000000E+00  0.00000000000E+00  0.74505805969E-08  0.10566000000E+00  0.10566000000E+00 0.  1.
     999900   -1    0    0    0    0 -0.00000000000E+00 -0.00000000000E+00 -0.74505805969E-08  0.93827000000E+00  0.93827000000E+00 0.  1.
     999902    2    1    2    0    0 -0.15686505043E-01  0.63121794219E-02 -0.15708000392E-01  0.10208507599E+01  0.10205898405E+01 0.  0.
     999903    2    3    3    0    0  0.78261337893E-01 -0.99789527825E-01 -0.17671901653E-01  0.12951040601E+00  0.19438680130E-01 0.  0.
         14    1    1    2    0    0  0.15686505043E-01 -0.63121794219E-02  0.15708000392E-01  0.23079240149E-01  0.00000000000E+00 0. -1.
     999901    1    3    3    0    0 -0.93947842936E-01  0.10610170725E+00  0.19639012602E-02  0.89134035384E+00  0.88000000000E+00 0.  1.
        -11    1    4    4    0    0  0.37249638423E-01 -0.32689887855E-01 -0.44130770493E-02  0.49758423414E-01  0.51100000000E-03 0.  1.
         11    1    4    4    0    0  0.41011699470E-01 -0.67099639970E-01 -0.13258824603E-01  0.79751982598E-01  0.51100000000E-03 0. -1.
</event>
<event>
 8    1  0.1084146E+005  0.1043930E+01  0.7957747E-01            NaN
         13   -1    0    0    0    0  0.00000000000E+00  0.00000000000E+00  0.74505805969E-08  0.10566000000E+00  0.10566000000E+00 0. -1.
     999900   -1    0    0    0    0 -0.00000000000E+00 -0.00000000000E+00 -0.74505805969E-08  0.93827000000E+00  0.93827000000E+00 0.  1.
     999902    2    1    2    0    0  0.10685975278E-01 -0.20132696944E-01 -0.58040727817E-02  0.10204097361E+01  0.10201386311E+01 0.  0.
     999903    2    3    3    0    0 -0.26463146094E-01  0.83589721803E-01 -0.94138188054E-01  0.12915146078E+00  0.11426359004E-01 0.  0.
         14    1    1    2    0    0 -0.10685975278E-01  0.20132696944E-01  0.58040727817E-02  0.23520263917E-01  0.00000000000E+00 0.  1.
     999901    1    3    3    0    0  0.37149121371E-01 -0.10372241875E+00  0.88334115272E-01  0.89125827530E+00  0.88000000000E+00 0. -1.
        -11    1    4    4    0    0 -0.52036029457E-02  0.26652154174E-01 -0.35488506266E-01  0.44689036729E-01  0.51100000000E-03 0.  1.
         11    1    4    4    0    0 -0.21259543148E-01  0.56937567628E-01 -0.58649681788E-01  0.84462424054E-01  0.51100000000E-03 0. -1.
</event>
<event>
 8    1  0.1084146E+005  0.1043930E+01  0.7957747E-01            NaN
         13   -1    0    0    0    0  0.00000000000E+00  0.00000000000E+00  0.74505805969E-08  0.10566000000E+00  0.10566000000E+00 0. -1.
     999900   -1    0    0    0    0 -0.00000000000E+00 -0.00000000000E+00 -0.74505805969E-08  0.93827000000E+00  0.93827000000E+00 0. -1.
     999902    2    1    2    0    0  0.85604908868E-02  0.91229704399E-02 -0.20098085767E-01  0.10202563090E+01  0.10199816138E+01 0.  0.
     999903    2    3    3    0    0 -0.34745218779E-01 -0.43924014518E-01  0.11314879018E+00  0.12759506472E+00  0.18474375232E-01 0.  0.
         14    1    1    2    0    0 -0.85604908868E-02 -0.91229704399E-02  0.20098085767E-01  0.23673690996E-01  0.00000000000E+00 0. -1.
     999901    1    3    3    0    0  0.43305709666E-01  0.53046984958E-01 -0.13324687595E+00  0.89266124429E+00  0.88000000000E+00 0. -1.
        -11    1    4    4    0    0 -0.20879055363E-01 -0.27846826680E-01  0.49628775417E-01  0.60618950662E-01  0.51100000000E-03 0.  1.
         11    1    4    4    0    0 -0.13866163417E-01 -0.16077187838E-01  0.63520014768E-01  0.66976114054E-01  0.51100000000E-03 0. -1.
</event>
<event>
 8    1  0.1084146E+005  0.1043930E+01  0.7957747E-01            NaN
         13   -1    0    0    0    0  0.00000000000E+00  0.00000000000E+00  0.74505805969E-08  0.10566000000E+00  0.10566000000E+00 0.  1.
     999900   -1    0    0    0    0 -0.00000000000E+00 -0.00000000000E+00 -0.74505805969E-08  0.93827000000E+00  0.93827000000E+00 0.  1.
     999902    2    1    2    0    0 -0.55640021614E-02 -0.15051734537E-01 -0.17688744322E-01  0.10200468572E+01  0.10197672217E+01 0.  0.
     999903    2    3    3    0    0 -0.10948909817E+00 -0.35507842984E-01  0.58095860688E-01  0.13046145700E+00  0.19909625866E-01 0.  0.
         14    1    1    2    0    0  0.55640021614E-02  0.15051734537E-01  0.17688744322E-01  0.23883142765E-01  0.00000000000E+00 0.  1.
     999901    1    3    3    0    0  0.10392509601E+00  0.20456108447E-01 -0.75784605010E-01  0.88958540023E+00  0.88000000000E+00 0.  1.
        -11    1    4    4    0    0 -0.91505147896E-01 -0.36976768138E-01  0.50674891477E-01  0.11094448711E+00  0.51100000000E-03 0.  1.
         11    1    4    4    0    0 -0.17983950276E-01  0.14689251546E-02  0.74209692111E-02  0.19516969889E-01  0.51100000000E-03 0. -1.
</event>
<event>
 8    1  0.1084146E+005  0.1043930E+01  0.7957747E-01            NaN
         13   -1    0    0    0    0  0.00000000000E+00  0.00000000000E+00  0.74505805969E-08  0.10566000000E+00  0.10566000000E+00 0. -1.
     999900   -1    0    0    0    0 -0.00000000000E+00 -0.00000000000E+00 -0.74505805969E-08  0.93827000000E+00  0.93827000000E+00 0. -1.
     999902    2    1    2    0    0 -0.22940355172E-02  0.20168848133E-01  0.12144096532E-01  0.10202757379E+01  0.10200014987E+01 0.  0.
     999903    2    3    3    0    0  0.72893348958E-01 -0.93247011333E-01  0.47623518433E-01  0.12911071990E+00  0.19827582824E-01 0.  0.
         14    1    1    2    0    0  0.22940355172E-02 -0.20168848133E-01 -0.12144096532E-01  0.23654262080E-01  0.00000000000E+00 0.  1.
     999901    1    3    3    0    0 -0.75187384476E-01  0.11341585947E+00 -0.35479421901E-01  0.89116501802E+00  0.88000000000E+00 0.  1.
        -11    1    4    4    0    0  0.25679423098E-01 -0.31920657703E-01  0.26811716798E-01  0.48964175042E-01  0.51100000000E-03 0. -1.
         11    1    4    4    0    0  0.47213925860E-01 -0.61326353629E-01  0.20811801635E-01  0.80146544859E-01  0.51100000000E-03 0.  1.
</event>
<event>
 8    1  0.1084146E+005  0.1043930E+01  0.7957747E-01            NaN
         13   -1    0    0    0    0  0.00000000000E+00  0.00000000000E+00  0.74505805969E-08  0.10566000000E+00  0.10566000000E+00 0.  1.
     999900   -1    0    0    0    0 -0.00000000000E+00 -0.00000000000E+00 -0.74505805969E-08  0.93827000000E+00  0.93827000000E+00 0.  1.
     999902    2    1    2    0    0  0.15761750928E-01 -0.10935024907E-01  0.14296353690E-01  0.10200052578E+01  0.10197246357E+01 0.  0.
     999903    2    3    3    0    0 -0.31359078114E-01 -0.12191973734E+00 -0.29288611818E-01  0.13071473823E+00  0.19511685604E-01 0.  0.
         14    1    1    2    0    0 -0.15761750928E-01  0.10935024907E-01 -0.14296353690E-01  0.23924742232E-01  0.00000000000E+00 0. -1.
     999901    1    3    3    0    0  0.47120829042E-01  0.11098471243E+00  0.43584965509E-01  0.88929051954E+00  0.88000000000E+00 0. -1.
        -11    1    4    4    0    0 -0.50603532589E-02 -0.93928684001E-02 -0.76691160761E-02  0.13149510039E-01  0.51100000000E-03 0. -1.
         11    1    4    4    0    0 -0.26298724855E-01 -0.11252686894E+00 -0.21619495742E-01  0.11756522819E+00  0.51100000000E-03 0.  1.
</event>
<event>
 8    1  0.1084146E+005  0.1043930E+01  0.7957747E-01            NaN
         13   -1    0    0    0    0  0.00000000000E+00  0.00000000000E+00  0.74505805969E-08  0.10566000000E+00  0.10566000000E+00 0.  1.
     999900   -1    0    0    0    0 -0.00000000000E+00 -0.00000000000E+00 -0.74505805969E-08  0.93827000000E+00  0.93827000000E+00 0. -1.
     999902    2    1    2    0    0  0.13401146053E-01 -0.51878833463E-02  0.19445835243E-01  0.10197505592E+01  0.10194638579E+01 0.  0.
     999903    2    3    3    0    0 -0.60833746051E-01 -0.32036146728E-01  0.11042097968E+00  0.13154555732E+00  0.19605650754E-01 0.  0.
         14    1    1    2    0    0 -0.13401146053E-01  0.51878833463E-02 -0.19445835243E-01  0.24179440801E-01  0.00000000000E+00 0. -1.
     999901    1    3    3    0    0  0.74234892104E-01  0.26848263382E-01 -0.90975144440E-01  0.88820500188E+00  0.88000000000E+00 0. -1.
        -11    1    4    4    0    0 -0.37997711250E-01 -0.29015738146E-01  0.82415707473E-01  0.95280370904E-01  0.51100000000E-03 0.  1.
         11    1    4    4    0    0 -0.22836034801E-01 -0.30204085825E-02  0.28005272210E-01  0.36265186419E-01  0.51100000000E-03 0. -1.
</event>
<event>
 8    1  0.1084146E+005  0.1043930E+01  0.7957747E-01            NaN
         13   -1    0    0    0    0  0.00000000000E+00  0.00000000000E+00  0.74505805969E-08  0.10566000000E+00  0.10566000000E+00 0.  1.
     999900   -1    0    0    0    0 -0.00000000000E+00 -0.00000000000E+00 -0.74505805969E-08  0.93827000000E+00  0.93827000000E+00 0. -1.
     999902    2    1    2    0    0 -0.12285233634E-01  0.55448727341E-02  0.10500122808E-01  0.10268441825E+01  0.10267020259E+01 0.  0.
     999903    2    3    3    0    0 -0.72916088413E-01  0.85197574528E-01  0.79001156204E-01  0.13852383209E+00  0.19294732983E-01 0.  0.
         14    1    1    2    0    0  0.12285233634E-01 -0.55448727341E-02 -0.10500122808E-01  0.17085817454E-01  0.00000000000E+00 0.  1.
     999901    1    3    3    0    0  0.60630854779E-01 -0.79652701794E-01 -0.68501033396E-01  0.88832035045E+00  0.88000000000E+00 0. -1.
        -11    1    4    4    0    0 -0.47399855537E-01  0.52791398041E-01  0.60799532055E-01  0.93437263612E-01  0.51100000000E-03 0.  1.
         11    1    4    4    0    0 -0.25516232876E-01  0.32406176487E-01  0.18201624149E-01  0.45086568481E-01  0.51100000000E-03 0. -1.
</event>
<event>
 8    1  0.1084146E+005  0.1043930E+01  0.7957747E-01            NaN
         13   -1    0    0    0    0  0.00000000000E+00  0.00000000000E+00  0.74505805969E-08  0.10566000000E+00  0.10566000000E+00 0. -1.
     999900   -1    0    0    0    0 -0.00000000000E+00 -0.00000000000E+00 -0.74505805969E-08  0.93827000000E+00  0.93827000000E+00 0. -1.
     999902    2    1    2    0    0 -0.21789902435E-01 -0.42388574769E-02 -0.90923767313E-02  0.10199416888E+01  0.10196595556E+01 0.  0.
     999903    2    3    3    0    0 -0.19985860956E-01  0.12556356759E+00  0.18847742846E-01  0.12997956913E+00  0.19334084837E-01 0.  0.
         14    1    1    2    0    0  0.21789902435E-01  0.42388574769E-02  0.90923767313E-02  0.23988311226E-01  0.00000000000E+00 0. -1.
     999901    1    3    3    0    0 -0.18040414787E-02 -0.12980242507E+00 -0.27940119577E-01  0.88996211964E+00  0.88000000000E+00 0.  1.
        -11    1    4    4    0    0 -0.12058585814E-01  0.67594430821E-01  0.19798752062E-01  0.71460956291E-01  0.51100000000E-03 0. -1.
         11    1    4    4    0    0 -0.79272751421E-02  0.57969136770E-01 -0.95100921592E-03  0.58518612839E-01  0.51100000000E-03 0.  1.
</event>
<event>
 8    1  0.1084146E+005  0.1043930E+01  0.7957747E-01            NaN
         13   -1    0    0    0    0  0.00000000000E+00  0.00000000000E+00  0.74505805969E-08  0.10566000000E+00  0.10566000000E+00 0.  1.
     999900   -1    0    0    0    0 -0.00000000000E+00 -0.00000000000E+00 -0.74505805969E-08  0.93827000000E+00  0.93827000000E+00 0. -1.
     999902    2    1    2    0    0 -0.12988083825E-01  0.18708587473E-02  0.19077661602E-01  0.10207751386E+01  0.10205124869E+01 0.  0.
     999903    2    3    3    0    0  0.73075487425E-02  0.11535614384E+00  0.61146582621E-01  0.13225917547E+00  0.19827877816E-01 0.  0.
         14    1    1    2    0    0  0.12988083825E-01 -0.18708587473E-02 -0.19077661602E-01  0.23154861392E-01  0.00000000000E+00 0. -1.
     999901    1    3    3    0    0 -0.20295632567E-01 -0.11348528510E+00 -0.42068921019E-01  0.88851596314E+00  0.88000000000E+00 0. -1.
        -11    1    4    4    0    0  0.12424494283E-01  0.83116937893E-01  0.37965243983E-01  0.92219381339E-01  0.51100000000E-03 0. -1.
         11    1    4    4    0    0 -0.51169455406E-02  0.32239205951E-01  0.23181338638E-01  0.40039794131E-01  0.51100000000E-03 0.  1.
</event>
<event>
 8    1  0.1084146E+005  0.1043930E+01  0.7957747E-01            NaN
         13   -1    0    0    0    0  0.00000000000E+00  0.00000000000E+00  0.74505805969E-08  0.10566000000E+00  0.10566000000E+00 0.  1.
     999900   -1    0    0    0    0 -0.00000000000E+00 -0.00000000000E+00 -0.74505805969E-08  0.93827000000E+00  0.93827000000E+00 0. -1.
     999902    2    1    2    0    0 -0.48506644688E-02 -0.20290335294E-01  0.10038463765E-01  0.10207783822E+01  0.10205158050E+01 0.  0.
     999903    2    3    3    0    0 -0.12465646751E+00 -0.33710986619E-01  0.21866940057E-01  0.13248031444E+00  0.19930005907E-01 0.  0.
         14    1    1    2    0    0  0.48506644688E-02  0.20290335294E-01 -0.10038463765E-01  0.23151617803E-01  0.00000000000E+00 0. -1.
     999901    1    3    3    0    0  0.11980580305E+00  0.13420651325E-01 -0.11828476291E-01  0.88829806775E+00  0.88000000000E+00 0.  1.
        -11    1    4    4    0    0 -0.49422160394E-01 -0.21752581761E-01  0.14691103599E-01  0.55962616068E-01  0.51100000000E-03 0.  1.
         11    1    4    4    0    0 -0.75234307121E-01 -0.11958404858E-01  0.71758364578E-02  0.76517698374E-01  0.51100000000E-03 0. -1.
</event>
<event>
 8    1  0.1084146E+005  0.1043930E+01  0.7957747E-01            NaN
         13   -1    0    0    0    0  0.00000000000E+00  0.00000000000E+00  0.74505805969E-08  0.10566000000E+00  0.10566000000E+00 0.  1.
     999900   -1    0    0    0    0 -0.00000000000E+00 -0.00000000000E+00 -0.74505805969E-08  0.93827000000E+00  0.93827000000E+00 0.  1.
     999902    2    1    2    0    0  0.89208027662E-02 -0.16335990299E-01  0.14316321542E-01  0.10204480417E+01  0.10201778294E+01 0.  0.
     999903    2    3    3    0    0  0.69558933251E-02 -0.11404922145E+00  0.66064959563E-01  0.13352659204E+00  0.20227766405E-01 0.  0.
         14    1    1    2    0    0 -0.89208027662E-02  0.16335990299E-01 -0.14316321542E-01  0.23481958256E-01  0.00000000000E+00 0. -1.
     999901    1    3    3    0    0  0.19649094411E-02  0.97713231152E-01 -0.51748638020E-01  0.88692144971E+00  0.88000000000E+00 0. -1.
        -11    1    4    4    0    0 -0.15184153207E-02 -0.76218144158E-01  0.52006271587E-01  0.92284475885E-01  0.51100000000E-03 0. -1.
         11    1    4    4    0    0  0.84743086459E-02 -0.37831077293E-01  0.14058687975E-01  0.41242116153E-01  0.51100000000E-03 0.  1.
</event>
<event>
 8    1  0.1084146E+005  0.1043930E+01  0.7957747E-01            NaN
         13   -1    0    0    0    0  0.00000000000E+00  0.00000000000E+00  0.74505805969E-08  0.10566000000E+00  0.10566000000E+00 0. -1.
     999900   -1    0    0    0    0 -0.00000000000E+00 -0.00000000000E+00 -0.74505805969E-08  0.93827000000E+00  0.93827000000E+00 0. -1.
     999902    2    1    2    0    0  0.31485142308E-02  0.16443804595E-01 -0.17524843506E-01  0.10196930037E+01  0.10194049194E+01 0.  0.
     999903    2    3    3    0    0  0.11273084929E+00 -0.30460283080E-01 -0.55566643277E-01  0.13084236372E+00  0.19899725402E-01 0.  0.
         14    1    1    2    0    0 -0.31485142308E-02 -0.16443804595E-01  0.17524843506E-01  0.24236996335E-01  0.00000000000E+00 0.  1.
     999901    1    3    3    0    0 -0.10958233506E+00  0.46904087675E-01  0.38041799771E-01  0.88885063994E+00  0.88000000000E+00 0.  1.
        -11    1    4    4    0    0  0.56957621941E-01 -0.25651240689E-01 -0.29917164736E-01  0.69263660840E-01  0.51100000000E-03 0.  1.
         11    1    4    4    0    0  0.55773227354E-01 -0.48090423910E-02 -0.25649478540E-01  0.61578702882E-01  0.51100000000E-03 0. -1.
</event>
<event>
 8    1  0.1084146E+005  0.1043930E+01  0.7957747E-01            NaN
         13   -1    0    0    0    0  0.00000000000E+00  0.00000000000E+00  0.74505805969E-08  0.10566000000E+00  0.10566000000E+00 0. -1.
     999900   -1    0    0    0    0 -0.00000000000E+00 -0.00000000000E+00 -0.74505805969E-08  0.93827000000E+00  0.93827000000E+00 0. -1.
     999902    2    1    2    0    0 -0.14746237295E-01 -0.71193088886E-02  0.17133691880E-01  0.10202298002E+01  0.10199544822E+01 0.  0.
     999903    2    3    3    0    0 -0.12809349430E+00 -0.22494236226E-01 -0.13918464265E-01  0.13228372894E+00  0.19781995576E-01 0.  0.
         14    1    1    2    0    0  0.14746237295E-01  0.71193088886E-02 -0.17133691880E-01  0.23700199806E-01  0.00000000000E+00 0.  1.
     999901    1    3    3    0    0  0.11334725700E+00  0.15374927337E-01  0.31052156145E-01  0.88794607126E+00  0.88000000000E+00 0. -1.
        -11    1    4    4    0    0 -0.11663340188E+00 -0.24610630785E-01 -0.16491853974E-01  0.12033817329E+00  0.51100000000E-03 0. -1.
         11    1    4    4    0    0 -0.11460092417E-01  0.21163945595E-02  0.25733897088E-02  0.11945555648E-01  0.51100000000E-03 0.  1.
</event>
<event>
 8    1  0.1084146E+005  0.1043930E+01  0.7957747E-01            NaN
         13   -1    0    0    0    0  0.00000000000E+00  0.00000000000E+00  0.74505805969E-08  0.10566000000E+00  0.10566000000E+00 0. -1.
     999900   -1    0    0    0    0 -0.00000000000E+00 -0.00000000000E+00 -0.74505805969E-08  0.93827000000E+00  0.93827000000E+00 0.  1.
     999902    2    1    2    0    0 -0.91126961815E-02  0.17825474385E-01  0.12715289989E-01  0.10202136055E+01  0.10199379067E+01 0.  0.
     999903    2    3    3    0    0 -0.10960525987E+00  0.10826984797E-01  0.70940097680E-01  0.13255496478E+00  0.20193678132E-01 0.  0.
         14    1    1    2    0    0  0.91126961815E-02 -0.17825474385E-01 -0.12715289989E-01  0.23716394503E-01  0.00000000000E+00 0.  1.
     999901    1    3    3    0    0  0.10049256369E+00  0.69984895876E-02 -0.58224807691E-01  0.88765864072E+00  0.88000000000E+00 0.  1.
        -11    1    4    4    0    0 -0.72450705413E-01  0.46398267209E-02  0.57310720578E-01  0.92495472976E-01  0.51100000000E-03 0.  1.
         11    1    4    4    0    0 -0.37154554460E-01  0.61871580762E-02  0.13629377102E-01  0.40059491801E-01  0.51100000000E-03 0. -1.
</event>
<event>
 8    1  0.1084146E+005  0.1043930E+01  0.7957747E-01            NaN
         13   -1    0    0    0    0  0.00000000000E+00  0.00000000000E+00  0.74505805969E-08  0.10566000000E+00  0.10566000000E+00 0. -1.
     999900   -1    0    0    0    0 -0.00000000000E+00 -0.00000000000E+00 -0.74505805969E-08  0.93827000000E+00  0.93827000000E+00 0. -1.
     999902    2    1    2    0    0 -0.55716499198E-02 -0.21328457412E-01  0.10374781191E-01  0.10195664522E+01  0.10192753151E+01 0.  0.
     999903    2    3    3    0    0  0.57257831280E-01 -0.53361244178E-01 -0.10187139148E+00  0.12963788963E+00  0.17387363285E-01 0.  0.
         14    1    1    2    0    0  0.55716499198E-02  0.21328457412E-01 -0.10374781191E-01  0.24363547836E-01  0.00000000000E+00 0.  1.
     999901    1    3    3    0    0 -0.62829481200E-01  0.32032786766E-01  0.11224617267E+00  0.88992856253E+00  0.88000000000E+00 0.  1.
        -11    1    4    4    0    0  0.34046636389E-01 -0.30505017839E-01 -0.45319619220E-01  0.64372809244E-01  0.51100000000E-03 0. -1.
         11    1    4    4    0    0  0.23211194891E-01 -0.22856226339E-01 -0.56551772261E-01  0.65265080385E-01  0.51100000000E-03 0.  1.
</event>
<event>
 8    1  0.1084146E+005  0.1043930E+01  0.7957747E-01            NaN
         13   -1    0    0    0    0  0.00000000000E+00  0.00000000000E+00  0.74505805969E-08  0.10566000000E+00  0.10566000000E+00 0. -1.
     999900   -1    0    0    0    0 -0.00000000000E+00 -0.00000000000E+00 -0.74505805969E-08  0.93827000000E+00  0.93827000000E+00 0.  1.
     999902    2    1    2    0    0  0.10487092417E-01 -0.98743141936E-02  0.18673126507E-01  0.10203468102E+01  0.10200742356E+01 0.  0.
     999903    2    3    3    0    0  0.72503146009E-01  0.10640393466E+00  0.16304588821E-01  0.13053096855E+00  0.13928052314E-01 0.  0.
         14    1    1    2    0    0 -0.10487092417E-01  0.98743141936E-02 -0.18673126507E-01  0.23583189812E-01  0.00000000000E+00 0.  1.
     999901    1    3    3    0    0 -0.62016053592E-01 -0.11627824885E+00  0.23685376869E-02  0.88981584164E+00  0.88000000000E+00 0. -1.
        -11    1    4    4    0    0  0.45108494576E-01  0.65666913527E-01  0.32714946503E-02  0.79736338098E-01  0.51100000000E-03 0. -1.
         11    1    4    4    0    0  0.27394651434E-01  0.40737021134E-01  0.13033094170E-01  0.50794630451E-01  0.51100000000E-03 0.  1.
</event>
<event>
 8    1  0.1084146E+005  0.1043930E+01  0.7957747E-01            NaN
         13   -1    0    0    0    0  0.00000000000E+00  0.00000000000E+00  0.74505805969E-08  0.10566000000E+00  0.10566000000E+00 0.  1.
     999900   -1    0    0    0    0 -0.00000000000E+00 -0.00000000000E+00 -0.74505805969E-08  0.93827000000E+00  0.93827000000E+00 0.  1.
     999902    2    1    2    0    0 -0.10997160146E-01 -0.25827259899E-01  0.57729048880E-02  0.10152714704E+01  0.10148669112E+01 0.  0.
     999903    2    3    3    0    0  0.12248195409E+00 -0.83461938479E-02  0.13963451102E-01  0.12499659904E+00  0.18912529609E-01 0.  0.
         14    1    1    2    0    0  0.10997160146E-01  0.25827259899E-01 -0.57729048880E-02  0.28658529551E-01  0.00000000000E+00 0. -1.
     999901    1    3    3    0    0 -0.13347911424E+00 -0.17481066051E-01 -0.81905462136E-02  0.89027487140E+00  0.88000000000E+00 0.  1.
        -11    1    4    4    0    0  0.89243353231E-01 -0.13676685788E-01  0.65579201956E-02  0.90524556162E-01  0.51100000000E-03 0.  1.
         11    1    4    4    0    0  0.33238600860E-01  0.53304919399E-02  0.74055309061E-02  0.34472042882E-01  0.51100000000E-03 0. -1.
</event>
<event>
 8    1  0.1084146E+005  0.1043930E+01  0.7957747E-01            NaN
         13   -1    0    0    0    0  0.00000000000E+00  0.00000000000E+00  0.74505805969E-08  0.10566000000E+00  0.10566000000E+00 0.  1.
     999900   -1    0    0    0    0 -0.00000000000E+00 -0.00000000000E+00 -0.74505805969E-08  0.93827000000E+00  0.93827000000E+00 0.  1.
     999902    2    1    2    0    0 -0.12788304048E-01 -0.16320276820E-01 -0.89627145879E-02  0.10213418967E+01  0.10210920858E+01 0.  0.
     999903    2    3    3    0    0 -0.70207197848E-01 -0.99144414313E-02  0.10865113997E+00  0.13163914702E+00  0.22281113806E-01 0.  0.
         14    1    1    2    0    0  0.12788304048E-01  0.16320276820E-01  0.89627145879E-02  0.22588103255E-01  0.00000000000E+00 0.  1.
     999901    1    3    3    0    0  0.57418893801E-01 -0.64058353884E-02 -0.11761385455E+00  0.88970274973E+00  0.88000000000E+00 0. -1.
        -11    1    4    4    0    0 -0.44655109655E-01 -0.20574668831E-02  0.49345895270E-01  0.66585212241E-01  0.51100000000E-03 0. -1.
         11    1    4    4    0    0 -0.25552088193E-01 -0.78569745482E-02  0.59305244697E-01  0.65053934774E-01  0.51100000000E-03 0.  1.
</event>
<event>
 8    1  0.1084146E+005  0.1043930E+01  0.7957747E-01            NaN
         13   -1    0    0    0    0  0.00000000000E+00  0.00000000000E+00  0.74505805969E-08  0.10566000000E+00  0.10566000000E+00 0. -1.
     999900   -1    0    0    0    0 -0.00000000000E+00 -0.00000000000E+00 -0.74505805969E-08  0.93827000000E+00  0.93827000000E+00 0. -1.
     999902    2    1    2    0    0 -0.18938679911E-01 -0.56554794074E-02  0.20731178731E-01  0.10152866794E+01  0.10148825555E+01 0.  0.
     999903    2    3    3    0    0  0.35480984928E-01 -0.90279505600E-01 -0.75421993751E-01  0.12435000470E+00  0.19109084336E-01 0.  0.
         14    1    1    2    0    0  0.18938679911E-01  0.56554794074E-02 -0.20731178731E-01  0.28643320612E-01  0.00000000000E+00 0.  1.
     999901    1    3    3    0    0 -0.54419664839E-01  0.84624026193E-01  0.96153172482E-01  0.89093667469E+00  0.88000000000E+00 0.  1.
        -11    1    4    4    0    0  0.29039489041E-01 -0.49770771805E-01 -0.39947876339E-01  0.70117869297E-01  0.51100000000E-03 0. -1.
         11    1    4    4    0    0  0.64414958875E-02 -0.40508733795E-01 -0.35474117412E-01  0.54232135400E-01  0.51100000000E-03 0.  1.
</event>
<event>
 8    1  0.1084146E+005  0.1043930E+01  0.7957747E-01            NaN
         13   -1    0    0    0    0  0.00000000000E+00  0.00000000000E+00  0.74505805969E-08  0.10566000000E+00  0.10566000000E+00 0.  1.
     999900   -1    0    0    0    0 -0.00000000000E+00 -0.00000000000E+00 -0.74505805969E-08  0.93827000000E+00  0.93827000000E+00 0.  1.
     999902    2    1    2    0    0 -0.21067317447E-01 -0.59554580053E-02  0.74526417898E-02  0.10208033657E+01  0.10205413613E+01 0.  0.
     999903    2    3    3    0    0  0.22658607722E-01 -0.42313815649E-01 -0.11907257826E+00  0.12993720403E+00  0.20038128587E-01 0.  0.
         14    1    1    2    0    0  0.21067317447E-01  0.59554580053E-02 -0.74526417898E-02  0.23126634302E-01  0.00000000000E+00 0.  1.
     999901    1    3    3    0    0 -0.43725925170E-01  0.36358357643E-01  0.12652522005E+00  0.89086616167E+00  0.88000000000E+00 0. -1.
        -11    1    4    4    0    0  0.11043863294E-01 -0.36849654159E-01 -0.97688511292E-01  0.10499128672E+00  0.51100000000E-03 0. -1.
         11    1    4    4    0    0  0.11614744428E-01 -0.54641614898E-02 -0.21384066971E-01  0.24945917304E-01  0.51100000000E-03 0.  1.
</event>
<event>
 8    1  0.1084146E+005  0.1043930E+01  0.7957747E-01            NaN
         13   -1    0    0    0    0  0.00000000000E+00  0.00000000000E+00  0.74505805969E-08  0.10566000000E+00  0.10566000000E+00 0. -1.
     999900   -1    0    0    0    0 -0.00000000000E+00 -0.00000000000E+00 -0.74505805969E-08  0.93827000000E+00  0.93827000000E+00 0. -1.
     999902    2    1    2    0    0  0.19002989299E-01  0.14110741870E-01 -0.11028205880E-02  0.10202352147E+01  0.10199600239E+01 0.  0.
     999903    2    3    3    0    0 -0.11184823328E-01  0.56912984380E-02  0.12806193018E+00  0.13025447112E+00  0.20220735275E-01 0.  0.
         14    1    1    2    0    0 -0.19002989299E-01 -0.14110741870E-01  0.11028205880E-02  0.23694785327E-01  0.00000000000E+00 0. -1.
     999901    1    3    3    0    0  0.30187812627E-01  0.84194434321E-02 -0.12916475076E+00  0.88998074356E+00  0.88000000000E+00 0. -1.
        -11    1    4    4    0    0  0.42646112069E-02 -0.80068103639E-03  0.59966353332E-01  0.60125307914E-01  0.51100000000E-03 0.  1.
         11    1    4    4    0    0 -0.15449434535E-01  0.64919794743E-02  0.68095576844E-01  0.70129163204E-01  0.51100000000E-03 0. -1.
</event>
<event>
 7    1  0.1084146E+005  0.1043930E+01  0.7957747E-01            NaN
         13   -1    0    0    0    0  0.00000000000E+00  0.00000000000E+00  0.74505805969E-08  0.10566000000E+00  0.10566000000E+00 0.  1.
     999900   -1    0    0    0    0 -0.00000000000E+00 -0.00000000000E+00 -0.74505805969E-08  0.93827000000E+00  0.93827000000E+00 0.  1.
     999903    2    1    2    0    0 -0.19813251773E-01 -0.16422889662E-01 -0.28942009307E-01  0.43231647702E-01  0.19210913815E-01 0.  0.
         14    1    1    2    0    0  0.13544224722E-02 -0.94055419701E-01 -0.56112671034E-01  0.10953030761E+00  0.00000000000E+00 0. -1.
     999901    1    1    2    0    0  0.18458829301E-01  0.11047830936E+00  0.85054680341E-01  0.89116804468E+00  0.88000000000E+00 0. -1.
        -11    1    3    3    0    0 -0.19771284721E-01 -0.19163488602E-01 -0.20472795809E-01  0.34315295193E-01  0.51100000000E-03 0.  1.
         11    1    3    3    0    0 -0.41967051884E-04  0.27405989405E-02 -0.84692134985E-02  0.89163525093E-02  0.51100000000E-03 0. -1.
</event>
<event>
 8    1  0.1084146E+005  0.1043930E+01  0.7957747E-01            NaN
         13   -1    0    0    0    0  0.00000000000E+00  0.00000000000E+00  0.74505805969E-08  0.10566000000E+00  0.10566000000E+00 0.  1.
     999900   -1    0    0    0    0 -0.00000000000E+00 -0.00000000000E+00 -0.74505805969E-08  0.93827000000E+00  0.93827000000E+00 0.  1.
     999902    2    1    2    0    0 -0.10964680173E-01  0.26444119572E-01 -0.11334141089E-01  0.10131407417E+01  0.10126727922E+01 0.  0.
     999903    2    3    3    0    0 -0.66871392426E-01  0.99813620922E-01  0.36091381960E-01  0.12704942338E+00  0.20110347645E-01 0.  0.
         14    1    1    2    0    0  0.10964680173E-01 -0.26444119572E-01  0.11334141089E-01  0.30789258280E-01  0.00000000000E+00 0.  1.
     999901    1    3    3    0    0  0.55906712254E-01 -0.73369501351E-01 -0.47425523049E-01  0.88609131834E+00  0.88000000000E+00 0.  1.
        -11    1    4    4    0    0 -0.36728852022E-01  0.54325559830E-01  0.30080753534E-01  0.72148374035E-01  0.51100000000E-03 0.  1.
         11    1    4    4    0    0 -0.30142540404E-01  0.45488061092E-01  0.60106284258E-02  0.54901049343E-01  0.51100000000E-03 0. -1.
</event>
<event>
 8    1  0.1084146E+005  0.1043930E+01  0.7957747E-01            NaN
         13   -1    0    0    0    0  0.00000000000E+00  0.00000000000E+00  0.74505805969E-08  0.10566000000E+00  0.10566000000E+00 0. -1.
     999900   -1    0    0    0    0 -0.00000000000E+00 -0.00000000000E+00 -0.74505805969E-08  0.93827000000E+00  0.93827000000E+00 0.  1.
     999902    2    1    2    0    0 -0.14840152681E-01 -0.10038665283E-01 -0.13671888359E-01  0.10213927982E+01  0.10211441244E+01 0.  0.
     999903    2    3    3    0    0  0.11838098328E+00  0.36803665168E-02 -0.51270603168E-01  0.13046645658E+00  0.19110710129E-01 0.  0.
         14    1    1    2    0    0  0.14840152681E-01  0.10038665283E-01  0.13671888359E-01  0.22537201768E-01  0.00000000000E+00 0.  1.
     999901    1    3    3    0    0 -0.13322113596E+00 -0.13719031800E-01  0.37598714809E-01  0.89092634166E+00  0.88000000000E+00 0. -1.
        -11    1    4    4    0    0  0.46625907988E-01  0.98152552375E-02 -0.24962077272E-01  0.53792945205E-01  0.51100000000E-03 0.  1.
         11    1    4    4    0    0  0.71755075295E-01 -0.61348887207E-02 -0.26308525895E-01  0.76673511371E-01  0.51100000000E-03 0. -1.
</event>
<event>
 8    1  0.1084146E+005  0.1043930E+01  0.7957747E-01            NaN
         13   -1    0    0    0    0  0.00000000000E+00  0.00000000000E+00  0.74505805969E-08  0.10566000000E+00  0.10566000000E+00 0.  1.
     999900   -1    0    0    0    0 -0.00000000000E+00 -0.00000000000E+00 -0.74505805969E-08  0.93827000000E+00  0.93827000000E+00 0.  1.
     999902    2    1    2    0    0 -0.21246111447E-01  0.17280267008E-01 -0.78086853195E-03  0.10165326528E+01  0.10161633823E+01 0.  0.
     999903    2    3    3    0    0  0.36910507562E-02 -0.29230116391E-01  0.12168534634E+00  0.12648599579E+00  0.17982215036E-01 0.  0.
         14    1    1    2    0    0  0.21246111447E-01 -0.17280267008E-01  0.78086853195E-03  0.27397347228E-01  0.00000000000E+00 0.  1.
     999901    1    3    3    0    0 -0.24937162203E-01  0.46510383399E-01 -0.12246621487E+00  0.89004665698E+00  0.88000000000E+00 0.  1.
        -11    1    4    4    0    0 -0.43664240254E-02 -0.15357941018E-01  0.84308575817E-01  0.85808677232E-01  0.51100000000E-03 0. -1.
         11    1    4    4    0    0  0.80574747815E-02 -0.13872175373E-01  0.37376770520E-01  0.40677318556E-01  0.51100000000E-03 0.  1.
</event>
<event>
 8    1  0.1084146E+005  0.1043930E+01  0.7957747E-01            NaN
         13   -1    0    0    0    0  0.00000000000E+00  0.00000000000E+00  0.74505805969E-08  0.10566000000E+00  0.10566000000E+00 0.  1.
     999900   -1    0    0    0    0 -0.00000000000E+00 -0.00000000000E+00 -0.74505805969E-08  0.93827000000E+00  0.93827000000E+00 0. -1.
     999902    2    1    2    0    0  0.55068722324E-02  0.24359368814E-01  0.17383086511E-02  0.10188954997E+01  0.10185879015E+01 0.  0.
     999903    2    3    3    0    0  0.51764676523E-01  0.10775699175E+00  0.53193615028E-01  0.13224867226E+00  0.19209363000E-01 0.  0.
         14    1    1    2    0    0 -0.55068722324E-02 -0.24359368814E-01 -0.17383086511E-02  0.25034500350E-01  0.00000000000E+00 0.  1.
     999901    1    3    3    0    0 -0.46257804290E-01 -0.83397622941E-01 -0.51455306377E-01  0.88664682739E+00  0.88000000000E+00 0. -1.
        -11    1    4    4    0    0  0.30194763679E-01  0.41034927457E-01  0.21748228753E-01  0.55397072124E-01  0.51100000000E-03 0.  1.
         11    1    4    4    0    0  0.21569912844E-01  0.66722064298E-01  0.31445386275E-01  0.76851600134E-01  0.51100000000E-03 0. -1.
</event>
<event>
 8    1  0.1084146E+005  0.1043930E+01  0.7957747E-01            NaN
         13   -1    0    0    0    0  0.00000000000E+00  0.00000000000E+00  0.74505805969E-08  0.10566000000E+00  0.10566000000E+00 0. -1.
     999900   -1    0    0    0    0 -0.00000000000E+00 -0.00000000000E+00 -0.74505805969E-08  0.93827000000E+00  0.93827000000E+00 0. -1.
     999902    2    1    2    0    0  0.13073657568E-01  0.15327740659E-01  0.10126232956E-01  0.10213822562E+01  0.10211333471E+01 0.  0.
     999903    2    3    3    0    0 -0.94235436876E-01  0.45756317318E-01  0.77498635027E-01  0.13178674106E+00  0.19691331843E-01 0.  0.
         14    1    1    2    0    0 -0.13073657568E-01 -0.15327740659E-01 -0.10126232956E-01  0.22547743785E-01  0.00000000000E+00 0.  1.
     999901    1    3    3    0    0  0.10730909444E+00 -0.30428576659E-01 -0.67372402072E-01  0.88959551516E+00  0.88000000000E+00 0. -1.
        -11    1    4    4    0    0 -0.83119498809E-01  0.32429976121E-01  0.65411415709E-01  0.11063213303E+00  0.51100000000E-03 0.  1.
         11    1    4    4    0    0 -0.11115938067E-01  0.13326341197E-01  0.12087219318E-01  0.21154608024E-01  0.51100000000E-03 0. -1.
</event>
<event>
 8    1  0.1084146E+005  0.1043930E+01  0.7957747E-01            NaN
         13   -1    0    0    0    0  0.00000000000E+00  0.00000000000E+00  0.74505805969E-08  0.10566000000E+00  0.10566000000E+00 0. -1.
     999900   -1    0    0    0    0 -0.00000000000E+00 -0.00000000000E+00 -0.74505805969E-08  0.93827000000E+00  0.93827000000E+00 0. -1.
     999902    2    1    2    0    0 -0.72886165271E-03  0.22670005729E-01  0.71645620569E-02  0.10201436310E+01  0.10198662837E+01 0.  0.
     999903    2    3    3    0    0 -0.29056175991E-01 -0.30515701806E-01  0.12210642702E+00  0.13062534087E+00  0.19430150201E-01 0.  0.
         14    1    1    2    0    0  0.72886165271E-03 -0.22670005729E-01 -0.71645620569E-02  0.23786368965E-01  0.00000000000E+00 0.  1.
     999901    1    3    3    0    0  0.28327314338E-01  0.53185707535E-01 -0.11494186496E+00  0.88951829017E+00  0.88000000000E+00 0. -1.
        -11    1    4    4    0    0 -0.20093116762E-01 -0.84471999070E-02  0.46574377404E-01  0.51424918853E-01  0.51100000000E-03 0.  1.
         11    1    4    4    0    0 -0.89630592287E-02 -0.22068501899E-01  0.75532049616E-01  0.79200422013E-01  0.51100000000E-03 0. -1.
</event>
<event>
 8    1  0.1084146E+005  0.1043930E+01  0.7957747E-01            NaN
         13   -1    0    0    0    0  0.00000000000E+00  0.00000000000E+00  0.74505805969E-08  0.10566000000E+00  0.10566000000E+00 0. -1.
     999900   -1    0    0    0    0 -0.00000000000E+00 -0.00000000000E+00 -0.74505805969E-08  0.93827000000E+00  0.93827000000E+00 0. -1.
     999902    2    1    2    0    0  0.13330182135E-01 -0.18715447177E-01  0.23803712578E-02  0.10208296129E+01  0.10205682097E+01 0.  0.
     999903    2    3    3    0    0 -0.70196962721E-01  0.10336131123E+00 -0.20680595799E-01  0.12818672398E+00  0.19823595221E-01 0.  0.
         14    1    1    2    0    0 -0.13330182135E-01  0.18715447177E-01 -0.23803712578E-02  0.23100387142E-01  0.00000000000E+00 0. -1.
     999901    1    3    3    0    0  0.83527144856E-01 -0.12207675840E+00  0.23060967057E-01  0.89264288888E+00  0.88000000000E+00 0.  1.
        -11    1    4    4    0    0 -0.15525627089E-01  0.10547324003E-01 -0.36687282989E-02  0.19131435609E-01  0.51100000000E-03 0. -1.
         11    1    4    4    0    0 -0.54671335632E-01  0.92813987223E-01 -0.17011867500E-01  0.10905528837E+00  0.51100000000E-03 0.  1.
</event>
<event>
 8    1  0.1084146E+005  0.1043930E+01  0.7957747E-01            NaN
         13   -1    0    0    0    0  0.00000000000E+00  0.00000000000E+00  0.74505805969E-08  0.10566000000E+00  0.10566000000E+00 0. -1.
     999900   -1    0    0    0    0 -0.00000000000E+00 -0.00000000000E+00 -0.74505805969E-08  0.93827000000E+00  0.93827000000E+00 0. -1.
     999902    2    1    2    0    0  0.32831870710E-02 -0.25765658205E-01  0.17354952401E-02  0.10178980887E+01  0.10175651619E+01 0.  0.
     999903    2    3    3    0    0 -0.11951037187E+00 -0.38067904415E-01  0.23295864772E-01  0.12902551468E+00  0.19312995410E-01 0.  0.
         14    1    1    2    0    0 -0.32831870710E-02  0.25765658205E-01 -0.17354952401E-02  0.26031911260E-01  0.00000000000E+00 0.  1.
     999901    1    3    3    0    0  0.12279355894E+00  0.12302246209E-01 -0.21560369532E-01  0.88887257406E+00  0.88000000000E+00 0. -1.
        -11    1    4    4    0    0 -0.37459032454E-01 -0.20194551262E-01  0.32099073285E-02  0.42679780214E-01  0.51100000000E-03 0. -1.
         11    1    4    4    0    0 -0.82051339418E-01 -0.17873353152E-01  0.20085957443E-01  0.86345734467E-01  0.51100000000E-03 0.  1.
</event>
<event>
 8    1  0.1084146E+005  0.1043930E+01  0.7957747E-01            NaN
         13   -1    0    0    0    0  0.00000000000E+00  0.00000000000E+00  0.74505805969E-08  0.10566000000E+00  0.10566000000E+00 0. -1.
     999900   -1    0    0    0    0 -0.00000000000E+00 -0.00000000000E+00 -0.74505805969E-08  0.93827000000E+00  0.93827000000E+00 0. -1.
     999902    2    1    2    0    0 -0.23064626776E-01  0.14948066741E-02 -0.14846651777E-02  0.10207693505E+01  0.10205065660E+01 0.  0.
     999903    2    3    3    0    0  0.39345162879E-01 -0.14698912055E-01  0.12121043709E+00  0.12992070650E+00  0.20574743231E-01 0.  0.
         14    1    1    2    0    0  0.23064626776E-01 -0.14948066741E-02  0.14846651777E-02  0.23160649516E-01  0.00000000000E+00 0. -1.
     999901    1    3    3    0    0 -0.62409789655E-01  0.16193718729E-01 -0.12269510227E+00  0.89084864399E+00  0.88000000000E+00 0. -1.
        -11    1    4    4    0    0  0.24173083432E-01 -0.86130233071E-02  0.99393655025E-01  0.10265418605E+00  0.51100000000E-03 0. -1.
         11    1    4    4    0    0  0.15172079447E-01 -0.60858887480E-02  0.21816782068E-01  0.27266520449E-01  0.51100000000E-03 0.  1.
</event>
<event>
 8    1  0.1084146E+005  0.1043930E+01  0.7957747E-01            NaN
         13   -1    0    0    0    0  0.00000000000E+00  0.00000000000E+00  0.74505805969E-08  0.10566000000E+00  0.10566000000E+00 0. -1.
     999900   -1    0    0    0    0 -0.00000000000E+00 -0.00000000000E+00 -0.74505805969E-08  0.93827000000E+00  0.93827000000E+00 0. -1.
     999902    2    1    2    0    0  0.10179604785E-01 -0.14362074210E-01  0.18657799211E-01  0.10182783529E+01  0.10179552038E+01 0.  0.
     999903    2    3    3    0    0  0.91270685498E-01 -0.75679702583E-01  0.53821649254E-01  0.13172767114E+00  0.19941263784E-01 0.  0.
         14    1    1    2    0    0 -0.10179604785E-01  0.14362074210E-01 -0.18657799211E-01  0.25651647132E-01  0.00000000000E+00 0.  1.
     999901    1    3    3    0    0 -0.81091080713E-01  0.61317628373E-01 -0.35163850043E-01  0.88655068173E+00  0.88000000000E+00 0. -1.
        -11    1    4    4    0    0  0.44214182995E-01 -0.43975609989E-01  0.37140388682E-01  0.72583867659E-01  0.51100000000E-03 0.  1.
         11    1    4    4    0    0  0.47056502503E-01 -0.31704092594E-01  0.16681260572E-01  0.59143803482E-01  0.51100000000E-03 0. -1.
</event>
<event>
 8    1  0.1084146E+005  0.1043930E+01  0.7957747E-01            NaN
         13   -1    0    0    0    0  0.00000000000E+00  0.00000000000E+00  0.74505805969E-08  0.10566000000E+00  0.10566000000E+00 0.  1.
     999900   -1    0    0    0    0 -0.00000000000E+00 -0.00000000000E+00 -0.74505805969E-08  0.93827000000E+00  0.93827000000E+00 0.  1.
     999902    2    1    2    0    0  0.90884116651E-02 -0.16775184333E-01 -0.16689972331E-01  0.10185812089E+01  0.10182657403E+01 0.  0.
     999903    2    3    3    0    0 -0.22160822579E-01 -0.12324019812E+00  0.33049092836E-01  0.13022019643E+00  0.13631160244E-01 0.  0.
         14    1    1    2    0    0 -0.90884116651E-02  0.16775184333E-01  0.16689972331E-01  0.25348791143E-01  0.00000000000E+00 0.  1.
     999901    1    3    3    0    0  0.31249234245E-01  0.10646501379E+00 -0.49739065167E-01  0.88836101243E+00  0.88000000000E+00 0. -1.
        -11    1    4    4    0    0 -0.16321608639E-01 -0.92679212417E-01  0.18671384348E-01  0.95941195726E-01  0.51100000000E-03 0.  1.
         11    1    4    4    0    0 -0.58392139402E-02 -0.30560985705E-01  0.14377708488E-01  0.34279000701E-01  0.51100000000E-03 0. -1.
</event>
<event>
 8    1  0.1084146E+005  0.1043930E+01  0.7957747E-01            NaN
         13   -1    0    0    0    0  0.00000000000E+00  0.00000000000E+00  0.74505805969E-08  0.10566000000E+00  0.10566000000E+00 0.  1.
     999900   -1    0    0    0    0 -0.00000000000E+00 -0.00000000000E+00 -0.74505805969E-08  0.93827000000E+00  0.93827000000E+00 0. -1.
     999902    2    1    2    0    0  0.83318004887E-03 -0.15357731456E-01 -0.17839369778E-01  0.10203758662E+01  0.10201039707E+01 0.  0.
     999903    2    3    3    0    0 -0.16963142847E-01  0.76635011627E-01 -0.10336037839E+00  0.13127901164E+00  0.19751907623E-01 0.  0.
         14    1    1    2    0    0 -0.83318004887E-03  0.15357731456E-01  0.17839369778E-01  0.23554133789E-01  0.00000000000E+00 0. -1.
     999901    1    3    3    0    0  0.17796322896E-01 -0.91992743082E-01  0.85521008612E-01  0.88909685457E+00  0.88000000000E+00 0.  1.
        -11    1    4    4    0    0 -0.51683295720E-02  0.27628346706E-01 -0.53171138334E-01  0.60145392550E-01  0.51100000000E-03 0.  1.
         11    1    4    4    0    0 -0.11794813275E-01  0.49006664921E-01 -0.50189240056E-01  0.71133619093E-01  0.51100000000E-03 0. -1.
</event>
<event>
 8    1  0.1084146E+005  0.1043930E+01  0.7957747E-01            NaN
         13   -1    0    0    0    0  0.00000000000E+00  0.00000000000E+00  0.74505805969E-08  0.10566000000E+00  0.10566000000E+00 0.  1.
     999900   -1    0    0    0    0 -0.00000000000E+00 -0.00000000000E+00 -0.74505805969E-08  0.93827000000E+00  0.93827000000E+00 0.  1.
     999902    2    1    2    0    0  0.21976646300E-01 -0.50990614719E-03 -0.10986598151E-01  0.10193548433E+01  0.10190585647E+01 0.  0.
     999903    2    3    3    0    0 -0.10926632380E+00  0.58485142870E-01  0.18010689809E-01  0.12719679918E+00  0.22248580228E-01 0.  0.
         14    1    1    2    0    0 -0.21976646300E-01  0.50990614719E-03  0.10986598151E-01  0.24575156679E-01  0.00000000000E+00 0.  1.
     999901    1    3    3    0    0  0.13124297010E+00 -0.58995049017E-01 -0.28997287961E-01  0.89215804414E+00  0.88000000000E+00 0.  1.
        -11    1    4    4    0    0 -0.82752854736E-01  0.50749206611E-01  0.21277349367E-01  0.99380599996E-01  0.51100000000E-03 0.  1.
         11    1    4    4    0    0 -0.26513469063E-01  0.77359362593E-02 -0.32666595581E-02  0.27816199188E-01  0.51100000000E-03 0. -1.
</event>
<event>
 8    1  0.1084146E+005  0.1043930E+01  0.7957747E-01            NaN
         13   -1    0    0    0    0  0.00000000000E+00  0.00000000000E+00  0.74505805969E-08  0.10566000000E+00  0.10566000000E+00 0.  1.
     999900   -1    0    0    0    0 -0.00000000000E+00 -0.00000000000E+00 -0.74505805969E-08  0.93827000000E+00  0.93827000000E+00 0.  1.
     999902    2    1    2    0    0 -0.63756197415E-03 -0.88065063685E-02  0.21907437388E-01  0.10203101598E+01  0.10200367274E+01 0.  0.
     999903    2    3    3    0    0  0.87868909893E-01  0.45086298937E-01 -0.79631980791E-01  0.12843119742E+00  0.19990008241E-01 0.  0.
         14    1    1    2    0    0  0.63756197415E-03  0.88065063685E-02 -0.21907437388E-01  0.23619840233E-01  0.00000000000E+00 0. -1.
     999901    1    3    3    0    0 -0.88506471867E-01 -0.53892805306E-01  0.10153941818E+00  0.89187896234E+00  0.88000000000E+00 0. -1.
        -11    1    4    4    0    0  0.32011485204E-01  0.61276363061E-02 -0.27927220020E-01  0.42924047464E-01  0.51100000000E-03 0.  1.
         11    1    4    4    0    0  0.55857424689E-01  0.38958662631E-01 -0.51704760772E-01  0.85507149960E-01  0.51100000000E-03 0. -1.
</event>
<event>
 8    1  0.1084146E+005  0.1043930E+01  0.7957747E-01            NaN
         13   -1    0    0    0    0  0.00000000000E+00  0.00000000000E+00  0.74505805969E-08  0.10566000000E+00  0.10566000000E+00 0. -1.
     999900   -1    0    0    0    0 -0.00000000000E+00 -0.00000000000E+00 -0.74505805969E-08  0.93827000000E+00  0.93827000000E+00 0. -1.
     999902    2    1    2    0    0  0.83678832025E-02 -0.11022059300E-01 -0.20014487590E-01  0.10195971626E+01  0.10193067679E+01 0.  0.
     999903    2    3    3    0    0 -0.12646712386E+00  0.84798370394E-02  0.89472734934E-02  0.12864285029E+00  0.20077055883E-01 0.  0.
         14    1    1    2    0    0 -0.83678832025E-02  0.11022059300E-01  0.20014487590E-01  0.24332837360E-01  0.00000000000E+00 0. -1.
     999901    1    3    3    0    0  0.13483500707E+00 -0.19501896339E-01 -0.28961761083E-01  0.89095431235E+00  0.88000000000E+00 0.  1.
        -11    1    4    4    0    0 -0.11248832200E+00  0.11562001161E-01  0.29673965381E-02  0.11312103704E+00  0.51100000000E-03 0.  1.
         11    1    4    4    0    0 -0.13978801863E-01 -0.30821641211E-02  0.59798769552E-02  0.15521813251E-01  0.51100000000E-03 0. -1.
</event>
<event>
 8    1  0.1084146E+005  0.1043930E+01  0.7957747E-01            NaN
         13   -1    0    0    0    0  0.00000000000E+00  0.00000000000E+00  0.74505805969E-08  0.10566000000E+00  0.10566000000E+00 0. -1.
     999900   -1    0    0    0    0 -0.00000000000E+00 -0.00000000000E+00 -0.74505805969E-08  0.93827000000E+00  0.93827000000E+00 0. -1.
     999902    2    1    2    0    0  0.22333069315E-01 -0.77731298785E-02 -0.34638088826E-02  0.10200305125E+01  0.10197504895E+01 0.  0.
     999903    2    3    3    0    0 -0.78720760992E-01  0.45836955228E-01 -0.88519332353E-01  0.12855961561E+00  0.19847364801E-01 0.  0.
         14    1    1    2    0    0 -0.22333069315E-01  0.77731298785E-02  0.34638088826E-02  0.23899487549E-01  0.00000000000E+00 0. -1.
     999901    1    3    3    0    0  0.10105383031E+00 -0.53610085106E-01  0.85055523470E-01  0.89147089684E+00  0.88000000000E+00 0.  1.
        -11    1    4    4    0    0 -0.69812259409E-01  0.40829182060E-01 -0.68136613348E-01  0.10575269676E+00  0.51100000000E-03 0.  1.
         11    1    4    4    0    0 -0.89085015825E-02  0.50077731675E-02 -0.20382719004E-01  0.22806918853E-01  0.51100000000E-03 0. -1.
</event>
<event>
 8    1  0.1084146E+005  0.1043930E+01  0.7957747E-01            NaN
         13   -1    0    0    0    0  0.00000000000E+00  0.00000000000E+00  0.74505805969E-08  0.10566000000E+00  0.10566000000E+00 0.  1.
     999900   -1    0    0    0    0 -0.00000000000E+00 -0.00000000000E+00 -0.74505805969E-08  0.93827000000E+00  0.93827000000E+00 0. -1.
     999902    2    1    2    0    0  0.36763618168E-02  0.18378055062E-01 -0.11677006081E-01  0.10218478576E+01  0.10216092320E+01 0.  0.
     999903    2    3    3    0    0 -0.48225522225E-01 -0.66919351318E-01  0.98065813565E-01  0.12942814712E+00  0.18189032477E-01 0.  0.
         14    1    1    2    0    0 -0.36763618168E-02 -0.18378055062E-01  0.11677006081E-01  0.22082142448E-01  0.00000000000E+00 0. -1.
     999901    1    3    3    0    0  0.51901884041E-01  0.85297406380E-01 -0.10974281965E+00  0.89241971043E+00  0.88000000000E+00 0. -1.
        -11    1    4    4    0    0 -0.36049029360E-01 -0.39060014721E-01  0.53003500086E-01  0.75065634015E-01  0.51100000000E-03 0.  1.
         11    1    4    4    0    0 -0.12176492865E-01 -0.27859336598E-01  0.45062313479E-01  0.54362513106E-01  0.51100000000E-03 0. -1.
</event>
<event>
 8    1  0.1084146E+005  0.1043930E+01  0.7957747E-01            NaN
         13   -1    0    0    0    0  0.00000000000E+00  0.00000000000E+00  0.74505805969E-08  0.10566000000E+00  0.10566000000E+00 0. -1.
     999900   -1    0    0    0    0 -0.00000000000E+00 -0.00000000000E+00 -0.74505805969E-08  0.93827000000E+00  0.93827000000E+00 0.  1.
     999902    2    1    2    0    0  0.18336085175E-02 -0.18495360696E-01 -0.14563668509E-01  0.10203176954E+01  0.10200444395E+01 0.  0.
     999903    2    3    3    0    0 -0.99077132647E-01  0.76035738614E-01 -0.26823724965E-01  0.12943643767E+00  0.20894195717E-01 0.  0.
         14    1    1    2    0    0 -0.18336085175E-02  0.18495360696E-01  0.14563668509E-01  0.23612304587E-01  0.00000000000E+00 0. -1.
     999901    1    3    3    0    0  0.10091074116E+00 -0.94531099310E-01  0.12260056456E-01  0.89088125775E+00  0.88000000000E+00 0. -1.
        -11    1    4    4    0    0 -0.13068535190E-01  0.50237609418E-02 -0.85489513651E-02  0.16412509755E-01  0.51100000000E-03 0. -1.
         11    1    4    4    0    0 -0.86008597457E-01  0.71011977672E-01 -0.18274773600E-01  0.11302392791E+00  0.51100000000E-03 0.  1.
</event>
<event>
 8    1  0.1084146E+005  0.1043930E+01  0.7957747E-01            NaN
         13   -1    0    0    0    0  0.00000000000E+00  0.00000000000E+00  0.74505805969E-08  0.10566000000E+00  0.10566000000E+00 0.  1.
     999900   -1    0    0    0    0 -0.00000000000E+00 -0.00000000000E+00 -0.74505805969E-08  0.93827000000E+00  0.93827000000E+00 0.  1.
     999902    2    1    2    0    0  0.16078405155E-01 -0.12802194367E-01  0.10878831518E-01  0.10206757473E+01  0.10204108099E+01 0.  0.
     999903    2    3    3    0    0 -0.85356727027E-01  0.22677914153E-01  0.94198718043E-01  0.13023196602E+00  0.16938354534E-01 0.  0.
         14    1    1    2    0    0 -0.16078405155E-01  0.12802194367E-01 -0.10878831518E-01  0.23254252689E-01  0.00000000000E+00 0. -1.
     999901    1    3    3    0    0  0.10143513218E+00 -0.35480108521E-01 -0.83319886525E-01  0.89044378129E+00  0.88000000000E+00 0.  1.
        -11    1    4    4    0    0 -0.28873850818E-01  0.13726571785E-01  0.25880910655E-01  0.41136367017E-01  0.51100000000E-03 0.  1.
         11    1    4    4    0    0 -0.56482876209E-01  0.89513423685E-02  0.68317807388E-01  0.89095599007E-01  0.51100000000E-03 0. -1.
</event>
<event>
 8    1  0.1084146E+005  0.1043930E+01  0.7957747E-01            NaN
         13   -1    0    0    0    0  0.00000000000E+00  0.00000000000E+00  0.74505805969E-08  0.10566000000E+00  0.10566000000E+00 0. -1.
     999900   -1    0    0    0    0 -0.00000000000E+00 -0.00000000000E+00 -0.74505805969E-08  0.93827000000E+00  0.93827000000E+00 0.  1.
     999902    2    1    2    0    0  0.21328482576E-01  0.82791685823E-02  0.42884500936E-02  0.10206525516E+01  0.10203870792E+01 0.  0.
     999903    2    3    3    0    0 -0.17700768228E-01 -0.12223909868E+00  0.33564318315E-01  0.12968937782E+00  0.20905903794E-01 0.  0.
         14    1    1    2    0    0 -0.21328482576E-01 -0.82791685823E-02 -0.42884500936E-02  0.23277448434E-01  0.00000000000E+00 0.  1.
     999901    1    3    3    0    0  0.39029250804E-01  0.13051826726E+00 -0.29275868222E-01  0.89096317374E+00  0.88000000000E+00 0.  1.
        -11    1    4    4    0    0 -0.54332288566E-02 -0.21070765268E-01 -0.17433548877E-02  0.21835693990E-01  0.51100000000E-03 0.  1.
         11    1    4    4    0    0 -0.12267539371E-01 -0.10116833341E+00  0.35307673203E-01  0.10785368383E+00  0.51100000000E-03 0. -1.
</event>
<event>
 8    1  0.1084146E+005  0.1043930E+01  0.7957747E-01            NaN
         13   -1    0    0    0    0  0.00000000000E+00  0.00000000000E+00  0.74505805969E-08  0.10566000000E+00  0.10566000000E+00 0.  1.
     999900   -1    0    0    0    0 -0.00000000000E+00 -0.00000000000E+00 -0.74505805969E-08  0.93827000000E+00  0.93827000000E+00 0.  1.
     999902    2    1    2    0    0 -0.33136828269E-02 -0.23054702104E-01 -0.75435274531E-02  0.10194472594E+01  0.10191532319E+01 0.  0.
     999903    2    3    3    0    0  0.15726570986E-01 -0.51530684735E-01  0.11650728165E+00  0.13008680594E+00  0.21116199915E-01 0.  0.
         14    1    1    2    0    0  0.33136828269E-02  0.23054702104E-01  0.75435274531E-02  0.24482740644E-01  0.00000000000E+00 0.  1.
     999901    1    3    3    0    0 -0.19040253813E-01  0.28475982631E-01 -0.12405080910E+00  0.88936045341E+00  0.88000000000E+00 0.  1.
        -11    1    4    4    0    0 -0.46048738640E-02 -0.96646272695E-02  0.15198002255E-01  0.18597050226E-01  0.51100000000E-03 0.  1.
         11    1    4    4    0    0  0.20331444850E-01 -0.41866057465E-01  0.10130927940E+00  0.11148975572E+00  0.51100000000E-03 0. -1.
</event>
<event>
 8    1  0.1084146E+005  0.1043930E+01  0.7957747E-01            NaN
         13   -1    0    0    0    0  0.00000000000E+00  0.00000000000E+00  0.74505805969E-08  0.10566000000E+00  0.10566000000E+00 0. -1.
     999900   -1    0    0    0    0 -0.00000000000E+00 -0.00000000000E+00 -0.74505805969E-08  0.93827000000E+00  0.93827000000E+00 0.  1.
     999902    2    1    2    0    0 -0.53089042575E-02  0.15480214467E-01 -0.18287773469E-01  0.10193889291E+01  0.10190934817E+01 0.  0.
     999903    2    3    3    0    0 -0.52705602004E-02  0.32906251016E-01  0.12204333281E+00  0.12809970125E+00  0.20108660272E-01 0.  0.
         14    1    1    2    0    0  0.53089042575E-02 -0.15480214467E-01  0.18287773469E-01  0.24541070939E-01  0.00000000000E+00 0.  1.
     999901    1    3    3    0    0 -0.38344057113E-04 -0.17426036549E-01 -0.14033110627E+00  0.89128922781E+00  0.88000000000E+00 0.  1.
        -11    1    4    4    0    0 -0.20068809274E-02  0.14665680543E-01  0.88892907359E-01  0.90118365812E-01  0.51100000000E-03 0.  1.
         11    1    4    4    0    0 -0.32636792730E-02  0.18240570473E-01  0.33150425447E-01  0.37981335441E-01  0.51100000000E-03 0. -1.
</event>
<event>
 8    1  0.1084146E+005  0.1043930E+01  0.7957747E-01            NaN
         13   -1    0    0    0    0  0.00000000000E+00  0.00000000000E+00  0.74505805969E-08  0.10566000000E+00  0.10566000000E+00 0.  1.
     999900   -1    0    0    0    0 -0.00000000000E+00 -0.00000000000E+00 -0.74505805969E-08  0.93827000000E+00  0.93827000000E+00 0.  1.
     999902    2    1    2    0    0 -0.18883077577E-02  0.15186132365E-01  0.23052462222E-01  0.10162605161E+01  0.10158837711E+01 0.  0.
     999903    2    3    3    0    0  0.44460596197E-01 -0.11418287756E+00 -0.11371084202E-01  0.12493030675E+00  0.21536152095E-01 0.  0.
         14    1    1    2    0    0  0.18883077577E-02 -0.15186132365E-01 -0.23052462222E-01  0.27669483856E-01  0.00000000000E+00 0.  1.
     999901    1    3    3    0    0 -0.46348903955E-01  0.12936900992E+00  0.34423546424E-01  0.89133020939E+00  0.88000000000E+00 0. -1.
        -11    1    4    4    0    0  0.98607620480E-02 -0.15558667248E-01 -0.86991820139E-02  0.20377527902E-01  0.51100000000E-03 0.  1.
         11    1    4    4    0    0  0.34599834149E-01 -0.98624210312E-01 -0.26719021886E-02  0.10455277885E+00  0.51100000000E-03 0. -1.
</event>
<event>
 8    1  0.1084146E+005  0.1043930E+01  0.7957747E-01            NaN
         13   -1    0    0    0    0  0.00000000000E+00  0.00000000000E+00  0.74505805969E-08  0.10566000000E+00  0.10566000000E+00 0. -1.
     999900   -1    0    0    0    0 -0.00000000000E+00 -0.00000000000E+00 -0.74505805969E-08  0.93827000000E+00  0.93827000000E+00 0.  1.
     999902    2    1    2    0    0 -0.17597174726E-01 -0.77190884064E-02 -0.14262901512E-01  0.10199993660E+01  0.10197186040E+01 0.  0.
     999903    2    3    3    0    0  0.99148956292E-03 -0.58619614317E-01  0.11330390181E+00  0.12915162857E+00  0.20127760983E-01 0.  0.
         14    1    1    2    0    0  0.17597174726E-01  0.77190884064E-02  0.14262901512E-01  0.23930634001E-01  0.00000000000E+00 0.  1.
     999901    1    3    3    0    0 -0.18588664289E-01  0.50900525910E-01 -0.12756680332E+00  0.89084773743E+00  0.88000000000E+00 0.  1.
        -11    1    4    4    0    0 -0.51164789130E-02 -0.47535808554E-02  0.74625929701E-02  0.10233586969E-01  0.51100000000E-03 0.  1.
         11    1    4    4    0    0  0.61079684759E-02 -0.53866033461E-01  0.10584130884E+00  0.11891804160E+00  0.51100000000E-03 0. -1.
</event>
<event>
 8    1  0.1084146E+005  0.1043930E+01  0.7957747E-01            NaN
         13   -1    0    0    0    0  0.00000000000E+00  0.00000000000E+00  0.74505805969E-08  0.10566000000E+00  0.10566000000E+00 0. -1.
     999900   -1    0    0    0    0 -0.00000000000E+00 -0.00000000000E+00 -0.74505805969E-08  0.93827000000E+00  0.93827000000E+00 0. -1.
     999902    2    1    2    0    0 -0.28618375054E-02 -0.12504877418E-01 -0.19404220112E-01  0.10206687483E+01  0.10204036495E+01 0.  0.
     999903    2    3    3    0    0  0.24826884671E-01  0.60649344419E-01  0.10797147042E+00  0.12806426026E+00  0.21163628004E-01 0.  0.
         14    1    1    2    0    0  0.28618375054E-02  0.12504877418E-01  0.19404220112E-01  0.23261251714E-01  0.00000000000E+00 0. -1.
     999901    1    3    3    0    0 -0.27688722177E-01 -0.73154221837E-01 -0.12737569053E+00  0.89260448803E+00  0.88000000000E+00 0. -1.
        -11    1    4    4    0    0 -0.10565197900E-02 -0.11507410058E-02  0.45220074470E-02  0.48114562535E-02  0.51100000000E-03 0.  1.
         11    1    4    4    0    0  0.25883404461E-01  0.61800085425E-01  0.10344946297E+00  0.12325280401E+00  0.51100000000E-03 0. -1.
</event>
<event>
 8    1  0.1084146E+005  0.1043930E+01  0.7957747E-01            NaN
         13   -1    0    0    0    0  0.00000000000E+00  0.00000000000E+00  0.74505805969E-08  0.10566000000E+00  0.10566000000E+00 0. -1.
     999900   -1    0    0    0    0 -0.00000000000E+00 -0.00000000000E+00 -0.74505805969E-08  0.93827000000E+00  0.93827000000E+00 0.  1.
     999902    2    1    2    0    0 -0.12102180578E-02  0.49558090742E-02  0.23071355142E-01  0.10203013712E+01  0.10200277329E+01 0.  0.
     999903    2    3    3    0    0 -0.40824848568E-01 -0.20907071793E-01 -0.11763524691E+00  0.12786842950E+00  0.20211631212E-01 0.  0.
         14    1    1    2    0    0  0.12102180578E-02 -0.49558090742E-02 -0.23071355142E-01  0.23628628809E-01  0.00000000000E+00 0.  1.
     999901    1    3    3    0    0  0.39614630510E-01  0.25862880867E-01  0.14070660205E+00  0.89243294169E+00  0.88000000000E+00 0. -1.
        -11    1    4    4    0    0 -0.63510532458E-02 -0.13126860566E-01 -0.29537112146E-01  0.32944687896E-01  0.51100000000E-03 0.  1.
         11    1    4    4    0    0 -0.34473795322E-01 -0.77802112274E-02 -0.88098134760E-01  0.94923741603E-01  0.51100000000E-03 0. -1.
</event>
<event>
 8    1  0.1084146E+005  0.1043930E+01  0.7957747E-01            NaN
         13   -1    0    0    0    0  0.00000000000E+00  0.00000000000E+00  0.74505805969E-08  0.10566000000E+00  0.10566000000E+00 0. -1.
     999900   -1    0    0    0    0 -0.00000000000E+00 -0.00000000000E+00 -0.74505805969E-08  0.93827000000E+00  0.93827000000E+00 0.  1.
     999902    2    1    2    0    0  0.10094994787E-01 -0.17937953182E-01  0.11421772436E-01  0.10203899072E+01  0.10201183396E+01 0.  0.
     999903    2    3    3    0    0  0.53832899141E-01  0.70504015616E-01  0.94244116955E-01  0.13101117634E+00  0.20326768030E-01 0.  0.
         14    1    1    2    0    0 -0.10094994787E-01  0.17937953182E-01 -0.11421772436E-01  0.23540092814E-01  0.00000000000E+00 0.  1.
     999901    1    3    3    0    0 -0.43737904354E-01 -0.88441968798E-01 -0.82822344519E-01  0.88937873084E+00  0.88000000000E+00 0.  1.
        -11    1    4    4    0    0  0.28153311117E-01  0.29393867019E-01  0.56190228289E-01  0.69384517159E-01  0.51100000000E-03 0.  1.
         11    1    4    4    0    0  0.25679588024E-01  0.41110148597E-01  0.38053888665E-01  0.61626659185E-01  0.51100000000E-03 0. -1.
</event>
<event>
 8    1  0.1084146E+005  0.1043930E+01  0.7957747E-01            NaN
         13   -1    0    0    0    0  0.00000000000E+00  0.00000000000E+00  0.74505805969E-08  0.10566000000E+00  0.10566000000E+00 0.  1.
     999900   -1    0    0    0    0 -0.00000000000E+00 -0.00000000000E+00 -0.74505805969E-08  0.93827000000E+00  0.93827000000E+00 0.  1.
     999902    2    1    2    0    0  0.17032879732E-01 -0.65896681055E-02 -0.14603493171E-01  0.10205461438E+01  0.10202782105E+01 0.  0.
     999903    2    3    3    0    0 -0.90399001248E-01  0.72408170478E-01 -0.51524643788E-01  0.12973446959E+00  0.27592047851E-01 0.  0.
         14    1    1    2    0    0 -0.17032879732E-01  0.65896681055E-02  0.14603493171E-01  0.23383856194E-01  0.00000000000E+00 0. -1.
     999901    1    3    3    0    0  0.10743188098E+00 -0.78997838584E-01  0.36921150617E-01  0.89081167421E+00  0.88000000000E+00 0. -1.
        -11    1    4    4    0    0 -0.50053674407E-01  0.38784423807E-01 -0.13117649333E-01  0.64667887678E-01  0.51100000000E-03 0. -1.
         11    1    4    4    0    0 -0.40345326840E-01  0.33623746672E-01 -0.38406994455E-01  0.65066581916E-01  0.51100000000E-03 0.  1.
</event>
<event>
 8    1  0.1084146E+005  0.1043930E+01  0.7957747E-01            NaN
         13   -1    0    0    0    0  0.00000000000E+00  0.00000000000E+00  0.74505805969E-08  0.10566000000E+00  0.10566000000E+00 0. -1.
     999900   -1    0    0    0    0 -0.00000000000E+00 -0.00000000000E+00 -0.74505805969E-08  0.93827000000E+00  0.93827000000E+00 0.  1.
     999902    2    1    2    0    0 -0.52696500733E-02  0.23600233758E-01  0.19169303702E-02  0.10196727358E+01  0.10193841637E+01 0.  0.
     999903    2    3    3    0    0 -0.99116481790E-02 -0.11937940045E+00  0.38601483913E-01  0.12736646526E+00  0.19556581758E-01 0.  0.
         14    1    1    2    0    0  0.52696500733E-02 -0.23600233758E-01 -0.19169303702E-02  0.24257264219E-01  0.00000000000E+00 0.  1.
     999901    1    3    3    0    0  0.46419981057E-02  0.14297963421E+00 -0.36684553543E-01  0.89230627052E+00  0.88000000000E+00 0. -1.
        -11    1    4    4    0    0  0.41267268938E-02 -0.84164772005E-02  0.13885456008E-02  0.94897915261E-02  0.51100000000E-03 0. -1.
         11    1    4    4    0    0 -0.14038375073E-01 -0.11096292325E+00  0.37212938313E-01  0.11787667373E+00  0.51100000000E-03 0.  1.
</event>
<event>
 8    1  0.1084146E+005  0.1043930E+01  0.7957747E-01            NaN
         13   -1    0    0    0    0  0.00000000000E+00  0.00000000000E+00  0.74505805969E-08  0.10566000000E+00  0.10566000000E+00 0. -1.
     999900   -1    0    0    0    0 -0.00000000000E+00 -0.00000000000E+00 -0.74505805969E-08  0.93827000000E+00  0.93827000000E+00 0.  1.
     999902    2    1    2    0    0 -0.76088152496E-02  0.22515870630E-01 -0.47573559345E-02  0.10196917877E+01  0.10194036742E+01 0.  0.
     999903    2    3    3    0    0 -0.10523807970E+00  0.65678753235E-01 -0.41868317200E-01  0.13246479806E+00  0.20129945229E-01 0.  0.
         14    1    1    2    0    0  0.76088152496E-02 -0.22515870630E-01  0.47573559345E-02  0.24238212294E-01  0.00000000000E+00 0.  1.
     999901    1    3    3    0    0  0.97629264448E-01 -0.43162882606E-01  0.37110961266E-01  0.88722698965E+00  0.88000000000E+00 0. -1.
        -11    1    4    4    0    0 -0.20086789762E-01  0.66034516557E-02 -0.13701865881E-02  0.21194886860E-01  0.51100000000E-03 0. -1.
         11    1    4    4    0    0 -0.85151289935E-01  0.59075301580E-01 -0.40498130612E-01  0.11126991120E+00  0.51100000000E-03 0.  1.
</event>
<event>
 8    1  0.1084146E+005  0.1043930E+01  0.7957747E-01            NaN
         13   -1    0    0    0    0  0.00000000000E+00  0.00000000000E+00  0.74505805969E-08  0.10566000000E+00  0.10566000000E+00 0. -1.
     999900   -1    0    0    0    0 -0.00000000000E+00 -0.00000000000E+00 -0.74505805969E-08  0.93827000000E+00  0.93827000000E+00 0.  1.
     999902    2    1    2    0    0 -0.16602166598E-01  0.11735941993E-01  0.11921823309E-01  0.10203610768E+01  0.10200888358E+01 0.  0.
     999903    2    3    3    0    0  0.35571342127E-01 -0.11126043897E+00 -0.47356761865E-01  0.12830494885E+00  0.23985231810E-01 0.  0.
         14    1    1    2    0    0  0.16602166598E-01 -0.11735941993E-01 -0.11921823309E-01  0.23568923209E-01  0.00000000000E+00 0.  1.
     999901    1    3    3    0    0 -0.52173508725E-01  0.12299638096E+00  0.59278585174E-01  0.89205612794E+00  0.88000000000E+00 0.  1.
        -11    1    4    4    0    0  0.88237350553E-03 -0.32378165532E-01 -0.19152986613E-01  0.37632727823E-01  0.51100000000E-03 0.  1.
         11    1    4    4    0    0  0.34688968622E-01 -0.78882273433E-01 -0.28203775252E-01  0.90672221024E-01  0.51100000000E-03 0. -1.
</event>
<event>
 8    1  0.1084146E+005  0.1043930E+01  0.7957747E-01            NaN
         13   -1    0    0    0    0  0.00000000000E+00  0.00000000000E+00  0.74505805969E-08  0.10566000000E+00  0.10566000000E+00 0.  1.
     999900   -1    0    0    0    0 -0.00000000000E+00 -0.00000000000E+00 -0.74505805969E-08  0.93827000000E+00  0.93827000000E+00 0.  1.
     999902    2    1    2    0    0 -0.42410661388E-02 -0.23264457328E-01 -0.58581478012E-02  0.10195673336E+01  0.10192762179E+01 0.  0.
     999903    2    3    3    0    0 -0.10941108142E+00  0.24898417018E-01 -0.62958592724E-01  0.13016255774E+00  0.19692413066E-01 0.  0.
         14    1    1    2    0    0  0.42410661388E-02  0.23264457328E-01  0.58581478012E-02  0.24362666365E-01  0.00000000000E+00 0.  1.
     999901    1    3    3    0    0  0.10517001528E+00 -0.48162874346E-01  0.57100444923E-01  0.88940477590E+00  0.88000000000E+00 0.  1.
        -11    1    4    4    0    0 -0.34972476035E-01  0.68438561615E-03 -0.13110595771E-01  0.37358952155E-01  0.51100000000E-03 0.  1.
         11    1    4    4    0    0 -0.74438605381E-01  0.24214031402E-01 -0.49847996953E-01  0.92803605582E-01  0.51100000000E-03 0. -1.
</event>
<event>
 8    1  0.1084146E+005  0.1043930E+01  0.7957747E-01            NaN
         13   -1    0    0    0    0  0.00000000000E+00  0.00000000000E+00  0.74505805969E-08  0.10566000000E+00  0.10566000000E+00 0. -1.
     999900   -1    0    0    0    0 -0.00000000000E+00 -0.00000000000E+00 -0.74505805969E-08  0.93827000000E+00  0.93827000000E+00 0. -1.
     999902    2    1    2    0    0 -0.94864420810E-02 -0.92785761236E-02  0.19430821395E-01  0.10204004148E+01  0.10201290924E+01 0.  0.
     999903    2    3    3    0    0  0.12215206553E-01  0.14759622474E-03  0.13094829793E+00  0.13304706816E+00  0.20120451257E-01 0.  0.
         14    1    1    2    0    0  0.94864420810E-02  0.92785761236E-02 -0.19430821395E-01  0.23529585171E-01  0.00000000000E+00 0.  1.
     999901    1    3    3    0    0 -0.21701648634E-01 -0.94261723484E-02 -0.11151747653E+00  0.88735334667E+00  0.88000000000E+00 0. -1.
        -11    1    4    4    0    0  0.16992027054E-01  0.83036179596E-03  0.75878876058E-01  0.77764281241E-01  0.51100000000E-03 0.  1.
         11    1    4    4    0    0 -0.47768205017E-02 -0.68276557123E-03  0.55069421871E-01  0.55282786915E-01  0.51100000000E-03 0. -1.
</event>
<event>
 8    1  0.1084146E+005  0.1043930E+01  0.7957747E-01            NaN
         13   -1    0    0    0    0  0.00000000000E+00  0.00000000000E+00  0.74505805969E-08  0.10566000000E+00  0.10566000000E+00 0. -1.
     999900   -1    0    0    0    0 -0.00000000000E+00 -0.00000000000E+00 -0.74505805969E-08  0.93827000000E+00  0.93827000000E+00 0. -1.
     999902    2    1    2    0    0 -0.25048827486E-02 -0.21989035647E-01  0.88126013416E-02  0.10201087056E+01  0.10198305335E+01 0.  0.
     999903    2    3    3    0    0  0.10428955463E+00  0.25099030658E-02  0.76273868093E-01  0.13075148129E+00  0.19890602974E-01 0.  0.
         14    1    1    2    0    0  0.25048827486E-02  0.21989035647E-01 -0.88126013416E-02  0.23821294437E-01  0.00000000000E+00 0.  1.
     999901    1    3    3    0    0 -0.10679443738E+00 -0.24498938713E-01 -0.67461266751E-01  0.88935722427E+00  0.88000000000E+00 0.  1.
        -11    1    4    4    0    0  0.32862188757E-01 -0.20735427433E-02  0.35305328824E-01  0.48279917085E-01  0.51100000000E-03 0.  1.
         11    1    4    4    0    0  0.71427365877E-01  0.45834458091E-02  0.40968539269E-01  0.82471564205E-01  0.51100000000E-03 0. -1.
</event>
<event>
 8    1  0.1084146E+005  0.1043930E+01  0.7957747E-01            NaN
         13   -1    0    0    0    0  0.00000000000E+00  0.00000000000E+00  0.74505805969E-08  0.10566000000E+00  0.10566000000E+00 0.  1.
     999900   -1    0    0    0    0 -0.00000000000E+00 -0.00000000000E+00 -0.74505805969E-08  0.93827000000E+00  0.93827000000E+00 0. -1.
     999902    2    1    2    0    0 -0.22255604055E-01  0.19457059449E-02 -0.56169673095E-02  0.10208942017E+01  0.10206342748E+01 0.  0.
     999903    2    3    3    0    0 -0.75119923097E-02 -0.11150800904E+00  0.64673287089E-01  0.13070891791E+00  0.20290910529E-01 0.  0.
         14    1    1    2    0    0  0.22255604055E-01 -0.19457059449E-02  0.56169673095E-02  0.23035798342E-01  0.00000000000E+00 0.  1.
     999901    1    3    3    0    0 -0.14743611746E-01  0.11345371499E+00 -0.70290254398E-01  0.89018528374E+00  0.88000000000E+00 0. -1.
        -11    1    4    4    0    0  0.29450344896E-02 -0.83438305639E-01  0.44724502381E-01  0.94716241005E-01  0.51100000000E-03 0. -1.
         11    1    4    4    0    0 -0.10457026799E-01 -0.28069703404E-01  0.19948784708E-01  0.35992676908E-01  0.51100000000E-03 0.  1.
</event>
<event>
 8    1  0.1084146E+005  0.1043930E+01  0.7957747E-01            NaN
         13   -1    0    0    0    0  0.00000000000E+00  0.00000000000E+00  0.74505805969E-08  0.10566000000E+00  0.10566000000E+00 0. -1.
     999900   -1    0    0    0    0 -0.00000000000E+00 -0.00000000000E+00 -0.74505805969E-08  0.93827000000E+00  0.93827000000E+00 0.  1.
     999902    2    1    2    0    0 -0.17438607025E-01 -0.13339778735E-01  0.80963911875E-02  0.10205290115E+01  0.10202606809E+01 0.  0.
     999903    2    3    3    0    0  0.65872299008E-01 -0.82995672573E-01 -0.72946295608E-01  0.13015798341E+00  0.19811541079E-01 0.  0.
         14    1    1    2    0    0  0.17438607025E-01  0.13339778735E-01 -0.80963911875E-02  0.23400988482E-01  0.00000000000E+00 0.  1.
     999901    1    3    3    0    0 -0.83310906033E-01  0.69655893838E-01  0.81042686796E-01  0.89037102811E+00  0.88000000000E+00 0.  1.
        -11    1    4    4    0    0  0.16208828248E-01 -0.17766621908E-01 -0.27056887619E-01  0.36203801676E-01  0.51100000000E-03 0. -1.
         11    1    4    4    0    0  0.49663470761E-01 -0.65229050666E-01 -0.45889407989E-01  0.93954181734E-01  0.51100000000E-03 0.  1.
</event>
<event>
 8    1  0.1084146E+005  0.1043930E+01  0.7957747E-01            NaN
         13   -1    0    0    0    0  0.00000000000E+00  0.00000000000E+00  0.74505805969E-08  0.10566000000E+00  0.10566000000E+00 0. -1.
     999900   -1    0    0    0    0 -0.00000000000E+00 -0.00000000000E+00 -0.74505805969E-08  0.93827000000E+00  0.93827000000E+00 0. -1.
     999902    2    1    2    0    0  0.27953359773E-02 -0.24039037472E-01 -0.56719259886E-02  0.10190732108E+01  0.10187700177E+01 0.  0.
     999903    2    3    3    0    0  0.33662579091E-01 -0.90993173735E-01  0.85627856111E-01  0.13128309298E+00  0.22140322083E-01 0.  0.
         14    1    1    2    0    0 -0.27953359773E-02  0.24039037472E-01  0.56719259886E-02  0.24856789218E-01  0.00000000000E+00 0. -1.
     999901    1    3    3    0    0 -0.30867243114E-01  0.66954136263E-01 -0.91299782100E-01  0.88779011780E+00  0.88000000000E+00 0. -1.
        -11    1    4    4    0    0  0.34103355916E-01 -0.64134361513E-01  0.63220720903E-01  0.96298369061E-01  0.51100000000E-03 0. -1.
         11    1    4    4    0    0 -0.44077682500E-03 -0.26858812222E-01  0.22407135209E-01  0.34984723916E-01  0.51100000000E-03 0.  1.
</event>
<event>
 8    1  0.1084146E+005  0.1043930E+01  0.7957747E-01            NaN
         13   -1    0    0    0    0  0.00000000000E+00  0.00000000000E+00  0.74505805969E-08  0.10566000000E+00  0.10566000000E+00 0.  1.
     999900   -1    0    0    0    0 -0.00000000000E+00 -0.00000000000E+00 -0.74505805969E-08  0.93827000000E+00  0.93827000000E+00 0. -1.
     999902    2    1    2    0    0 -0.20875088811E-01 -0.14709370379E-03 -0.14004876753E-01  0.10187918310E+01  0.10184816480E+01 0.  0.
     999903    2    3    3    0    0 -0.61007467325E-01  0.79625319019E-01  0.79871723819E-01  0.12930486548E+00  0.16677933711E-01 0.  0.
         14    1    1    2    0    0  0.20875088811E-01  0.14709370379E-03  0.14004876753E-01  0.25138169032E-01  0.00000000000E+00 0.  1.
     999901    1    3    3    0    0  0.40132378515E-01 -0.79772412723E-01 -0.93876600571E-01  0.88948696549E+00  0.88000000000E+00 0. -1.
        -11    1    4    4    0    0 -0.18438684547E-02  0.76703410335E-02  0.10563140355E-01  0.13193749945E-01  0.51100000000E-03 0.  1.
         11    1    4    4    0    0 -0.59163598871E-01  0.71954977986E-01  0.69308583464E-01  0.11611111554E+00  0.51100000000E-03 0. -1.
</event>
<event>
 8    1  0.1084146E+005  0.1043930E+01  0.7957747E-01            NaN
         13   -1    0    0    0    0  0.00000000000E+00  0.00000000000E+00  0.74505805969E-08  0.10566000000E+00  0.10566000000E+00 0.  1.
     999900   -1    0    0    0    0 -0.00000000000E+00 -0.00000000000E+00 -0.74505805969E-08  0.93827000000E+00  0.93827000000E+00 0. -1.
     999902    2    1    2    0    0 -0.19348184321E-01 -0.26234406366E-02  0.14119240631E-01  0.10198346139E+01  0.10195499262E+01 0.  0.
     999903    2    3    3    0    0 -0.11991291234E+00 -0.12862807109E-01 -0.49390553587E-01  0.13177402859E+00  0.19504088663E-01 0.  0.
         14    1    1    2    0    0  0.19348184321E-01  0.26234406366E-02 -0.14119240631E-01  0.24095386141E-01  0.00000000000E+00 0. -1.
     999901    1    3    3    0    0  0.10056472802E+00  0.10239366472E-01  0.63509794217E-01  0.88806058527E+00  0.88000000000E+00 0. -1.
        -11    1    4    4    0    0 -0.34682312972E-01  0.17798850069E-02 -0.21765656630E-01  0.40988239206E-01  0.51100000000E-03 0. -1.
         11    1    4    4    0    0 -0.85230599368E-01 -0.14642692116E-01 -0.27624896957E-01  0.90785789384E-01  0.51100000000E-03 0.  1.
</event>
<event>
 8    1  0.1084146E+005  0.1043930E+01  0.7957747E-01            NaN
         13   -1    0    0    0    0  0.00000000000E+00  0.00000000000E+00  0.74505805969E-08  0.10566000000E+00  0.10566000000E+00 0.  1.
     999900   -1    0    0    0    0 -0.00000000000E+00 -0.00000000000E+00 -0.74505805969E-08  0.93827000000E+00  0.93827000000E+00 0.  1.
     999902    2    1    2    0    0 -0.12103995886E-01  0.12171349820E-01 -0.16882601423E-01  0.10198536485E+01  0.10195694158E+01 0.  0.
     999903    2    3    3    0    0  0.67752204180E-01  0.61867840530E-01 -0.92190958186E-01  0.13164303015E+00  0.20315603660E-01 0.  0.
         14    1    1    2    0    0  0.12103995886E-01 -0.12171349820E-01  0.16882601423E-01  0.24076351544E-01  0.00000000000E+00 0. -1.
     999901    1    3    3    0    0 -0.79856200066E-01 -0.49696490709E-01  0.75308356763E-01  0.88821061831E+00  0.88000000000E+00 0. -1.
        -11    1    4    4    0    0  0.15351773592E-01  0.23722377881E-01 -0.19988077635E-01  0.34615206677E-01  0.51100000000E-03 0.  1.
         11    1    4    4    0    0  0.52400430588E-01  0.38145462648E-01 -0.72202880552E-01  0.97027823470E-01  0.51100000000E-03 0. -1.
</event>
<event>
 8    1  0.1084146E+005  0.1043930E+01  0.7957747E-01            NaN
         13   -1    0    0    0    0  0.00000000000E+00  0.00000000000E+00  0.74505805969E-08  0.10566000000E+00  0.10566000000E+00 0.  1.
     999900   -1    0    0    0    0 -0.00000000000E+00 -0.00000000000E+00 -0.74505805969E-08  0.93827000000E+00  0.93827000000E+00 0. -1.
     999902    2    1    2    0    0  0.21571449581E-01 -0.90998735334E-03 -0.99178625062E-02  0.10201703807E+01  0.10198936641E+01 0.  0.
     999903    2    3    3    0    0  0.11490822381E+00  0.54976469283E-01 -0.33679916645E-01  0.13315308395E+00  0.19211842868E-01 0.  0.
         14    1    1    2    0    0 -0.21571449581E-01  0.90998735334E-03  0.99178625062E-02  0.23759619330E-01  0.00000000000E+00 0.  1.
     999901    1    3    3    0    0 -0.93336774231E-01 -0.55886456637E-01  0.23762054139E-01  0.88701729672E+00  0.88000000000E+00 0.  1.
        -11    1    4    4    0    0  0.75306260778E-01  0.45760346594E-01 -0.24560507815E-01  0.91479625590E-01  0.51100000000E-03 0.  1.
         11    1    4    4    0    0  0.39601963034E-01  0.92161226890E-02 -0.91194088300E-02  0.41673458363E-01  0.51100000000E-03 0. -1.
</event>
<event>
 8    1  0.1084146E+005  0.1043930E+01  0.7957747E-01            NaN
         13   -1    0    0    0    0  0.00000000000E+00  0.00000000000E+00  0.74505805969E-08  0.10566000000E+00  0.10566000000E+00 0. -1.
     999900   -1    0    0    0    0 -0.00000000000E+00 -0.00000000000E+00 -0.74505805969E-08  0.93827000000E+00  0.93827000000E+00 0. -1.
     999902    2    1    2    0    0  0.57969198685E-02 -0.34244594536E-03 -0.22926718380E-01  0.10202792925E+01  0.10200051366E+01 0.  0.
     999903    2    3    3    0    0  0.32282226938E-01 -0.60686657772E-02 -0.12813959818E+00  0.13359783270E+00  0.18699021371E-01 0.  0.
         14    1    1    2    0    0 -0.57969198685E-02  0.34244594536E-03  0.22926718380E-01  0.23650707492E-01  0.00000000000E+00 0. -1.
     999901    1    3    3    0    0 -0.26485307069E-01  0.57262198318E-02  0.10521287980E+00  0.88668145980E+00  0.88000000000E+00 0.  1.
        -11    1    4    4    0    0  0.43312189744E-02  0.57285809287E-02 -0.31220962030E-01  0.32040375909E-01  0.51100000000E-03 0.  1.
         11    1    4    4    0    0  0.27951007964E-01 -0.11797246706E-01 -0.96918636153E-01  0.10155745680E+00  0.51100000000E-03 0. -1.
</event>
<event>
 8    1  0.1084146E+005  0.1043930E+01  0.7957747E-01            NaN
         13   -1    0    0    0    0  0.00000000000E+00  0.00000000000E+00  0.74505805969E-08  0.10566000000E+00  0.10566000000E+00 0. -1.
     999900   -1    0    0    0    0 -0.00000000000E+00 -0.00000000000E+00 -0.74505805969E-08  0.93827000000E+00  0.93827000000E+00 0.  1.
     999902    2    1    2    0    0  0.13245685863E-03  0.19261477450E-01 -0.13105158182E-01  0.10206326347E+01  0.10203667026E+01 0.  0.
     999903    2    3    3    0    0  0.11307169827E-01  0.52489095287E-01 -0.12058961170E+00  0.13339993888E+00  0.19254402909E-01 0.  0.
         14    1    1    2    0    0 -0.13245685863E-03 -0.19261477450E-01  0.13105158182E-01  0.23297365288E-01  0.00000000000E+00 0. -1.
     999901    1    3    3    0    0 -0.11174712969E-01 -0.33227617837E-01  0.10748445352E+00  0.88723269583E+00  0.88000000000E+00 0. -1.
        -11    1    4    4    0    0  0.10437564549E-01  0.12701038533E-01 -0.46062890331E-01  0.48911247379E-01  0.51100000000E-03 0. -1.
         11    1    4    4    0    0  0.86960527822E-03  0.39788056754E-01 -0.74526721367E-01  0.84488691506E-01  0.51100000000E-03 0.  1.
</event>
<event>
 8    1  0.1084146E+005  0.1043930E+01  0.7957747E-01            NaN
         13   -1    0    0    0    0  0.00000000000E+00  0.00000000000E+00  0.74505805969E-08  0.10566000000E+00  0.10566000000E+00 0.  1.
     999900   -1    0    0    0    0 -0.00000000000E+00 -0.00000000000E+00 -0.74505805969E-08  0.93827000000E+00  0.93827000000E+00 0.  1.
     999902    2    1    2    0    0  0.15466756937E-01 -0.16801294555E-01 -0.28424787016E-02  0.10209173132E+01  0.10206579136E+01 0.  0.
     999903    2    3    3    0    0  0.96783669541E-01 -0.85216590384E-01  0.30431062230E-01  0.13389971387E+00  0.19342643570E-01 0.  0.
         14    1    1    2    0    0 -0.15466756937E-01  0.16801294555E-01  0.28424787016E-02  0.23012686806E-01  0.00000000000E+00 0. -1.
     999901    1    3    3    0    0 -0.81316912604E-01  0.68415295829E-01 -0.33273540932E-01  0.88701759932E+00  0.88000000000E+00 0.  1.
        -11    1    4    4    0    0  0.34853798966E-01 -0.18880928718E-01  0.94794073659E-02  0.40760238672E-01  0.51100000000E-03 0. -1.
         11    1    4    4    0    0  0.61929870575E-01 -0.66335661666E-01  0.20951654864E-01  0.93139475201E-01  0.51100000000E-03 0.  1.
</event>
<event>
 8    1  0.1084146E+005  0.1043930E+01  0.7957747E-01            NaN
         13   -1    0    0    0    0  0.00000000000E+00  0.00000000000E+00  0.74505805969E-08  0.10566000000E+00  0.10566000000E+00 0. -1.
     999900   -1    0    0    0    0 -0.00000000000E+00 -0.00000000000E+00 -0.74505805969E-08  0.93827000000E+00  0.93827000000E+00 0.  1.
     999902    2    1    2    0    0 -0.10738074061E-01 -0.50161144798E-02 -0.19180524812E-01  0.10213831561E+01  0.10211342670E+01 0.  0.
     999903    2    3    3    0    0 -0.20818452938E-01  0.92731737129E-01  0.85875378777E-01  0.12970328111E+00  0.20390620318E-01 0.  0.
         14    1    1    2    0    0  0.10738074061E-01  0.50161144798E-02  0.19180524812E-01  0.22546843928E-01  0.00000000000E+00 0. -1.
     999901    1    3    3    0    0  0.10080378877E-01 -0.97747851609E-01 -0.10505590359E+00  0.89167987496E+00  0.88000000000E+00 0.  1.
        -11    1    4    4    0    0 -0.11711015436E-01  0.80579593412E-01  0.77198617749E-01  0.11220564362E+00  0.51100000000E-03 0.  1.
         11    1    4    4    0    0 -0.91074375024E-02  0.12152143718E-01  0.86767610284E-02  0.17497637490E-01  0.51100000000E-03 0. -1.
</event>
<event>
 8    1  0.1084146E+005  0.1043930E+01  0.7957747E-01            NaN
         13   -1    0    0    0    0  0.00000000000E+00  0.00000000000E+00  0.74505805969E-08  0.10566000000E+00  0.10566000000E+00 0. -1.
     999900   -1    0    0    0    0 -0.00000000000E+00 -0.00000000000E+00 -0.74505805969E-08  0.93827000000E+00  0.93827000000E+00 0.  1.
     999902    2    1    2    0    0 -0.10430773654E-01  0.22397091196E-01  0.18278835360E-01  0.10131965239E+01  0.10127302945E+01 0.  0.
     999903    2    3    3    0    0  0.87646252316E-01  0.83565836799E-01  0.26983480776E-01  0.12559498640E+00  0.19516089497E-01 0.  0.
         14    1    1    2    0    0  0.10430773654E-01 -0.22397091196E-01 -0.18278835360E-01  0.30733476132E-01  0.00000000000E+00 0.  1.
     999901    1    3    3    0    0 -0.98077025970E-01 -0.61168745603E-01 -0.87046454162E-02  0.88760153747E+00  0.88000000000E+00 0. -1.
        -11    1    4    4    0    0  0.21524203173E-01  0.19351723521E-01  0.15126196722E-01  0.32662569919E-01  0.51100000000E-03 0. -1.
         11    1    4    4    0    0  0.66122049143E-01  0.64214113278E-01  0.11857284054E-01  0.92932416482E-01  0.51100000000E-03 0.  1.
</event>
<event>
 8    1  0.1084146E+005  0.1043930E+01  0.7957747E-01            NaN
         13   -1    0    0    0    0  0.00000000000E+00  0.00000000000E+00  0.74505805969E-08  0.10566000000E+00  0.10566000000E+00 0.  1.
     999900   -1    0    0    0    0 -0.00000000000E+00 -0.00000000000E+00 -0.74505805969E-08  0.93827000000E+00  0.93827000000E+00 0.  1.
     999902    2    1    2    0    0 -0.13645424867E-01  0.88919681156E-02  0.16639130042E-01  0.10206464143E+01  0.10203808003E+01 0.  0.
     999903    2    3    3    0    0 -0.12302893690E+00 -0.16241553854E-01 -0.39643999182E-01  0.13173458664E+00  0.19556258828E-01 0.  0.
         14    1    1    2    0    0  0.13645424867E-01 -0.88919681156E-02 -0.16639130042E-01  0.23283585749E-01  0.00000000000E+00 0. -1.
     999901    1    3    3    0    0  0.10938351203E+00  0.25133521970E-01  0.56283129224E-01  0.88891182761E+00  0.88000000000E+00 0. -1.
        -11    1    4    4    0    0 -0.10231295141E+00 -0.60200196196E-02 -0.33470175791E-01  0.10781787630E+00  0.51100000000E-03 0. -1.
         11    1    4    4    0    0 -0.20715985493E-01 -0.10221534234E-01 -0.61738233918E-02  0.23916710337E-01  0.51100000000E-03 0.  1.
</event>
<event>
 8    1  0.1084146E+005  0.1043930E+01  0.7957747E-01            NaN
         13   -1    0    0    0    0  0.00000000000E+00  0.00000000000E+00  0.74505805969E-08  0.10566000000E+00  0.10566000000E+00 0. -1.
     999900   -1    0    0    0    0 -0.00000000000E+00 -0.00000000000E+00 -0.74505805969E-08  0.93827000000E+00  0.93827000000E+00 0.  1.
     999902    2    1    2    0    0 -0.41969371912E-02 -0.14182473374E-01  0.18341609239E-01  0.10203679232E+01  0.10200958422E+01 0.  0.
     999903    2    3    3    0    0  0.40197526522E-01 -0.10109433057E+00  0.74160400182E-01  0.13321501827E+00  0.20262559704E-01 0.  0.
         14    1    1    2    0    0  0.41969371912E-02  0.14182473374E-01 -0.18341609239E-01  0.23562076782E-01  0.00000000000E+00 0.  1.
     999901    1    3    3    0    0 -0.44394463713E-01  0.86911857199E-01 -0.55818790943E-01  0.88715290495E+00  0.88000000000E+00 0. -1.
        -11    1    4    4    0    0  0.36891746478E-01 -0.81131155167E-01  0.51936971171E-01  0.10315510357E+00  0.51100000000E-03 0.  1.
         11    1    4    4    0    0  0.33057800439E-02 -0.19963175407E-01  0.22223429011E-01  0.30059914704E-01  0.51100000000E-03 0. -1.
</event>
<event>
 8    1  0.1084146E+005  0.1043930E+01  0.7957747E-01            NaN
         13   -1    0    0    0    0  0.00000000000E+00  0.00000000000E+00  0.74505805969E-08  0.10566000000E+00  0.10566000000E+00 0.  1.
     999900   -1    0    0    0    0 -0.00000000000E+00 -0.00000000000E+00 -0.74505805969E-08  0.93827000000E+00  0.93827000000E+00 0.  1.
     999902    2    1    2    0    0  0.15500941650E-01 -0.13720882478E-01 -0.93881478475E-02  0.10211994231E+01  0.10209464151E+01 0.  0.
     999903    2    3    3    0    0 -0.83112119471E-01 -0.85698374255E-01 -0.51954316250E-01  0.13175174397E+00  0.20185026862E-01 0.  0.
         14    1    1    2    0    0 -0.15500941650E-01  0.13720882478E-01  0.93881478475E-02  0.22730576940E-01  0.00000000000E+00 0. -1.
     999901    1    3    3    0    0  0.98613061121E-01  0.71977491777E-01  0.42566168402E-01  0.88944767909E+00  0.88000000000E+00 0. -1.
        -11    1    4    4    0    0 -0.11840701569E-01 -0.12782439601E-01 -0.15922141211E-01  0.23608656835E-01  0.51100000000E-03 0. -1.
         11    1    4    4    0    0 -0.71271417902E-01 -0.72915934654E-01 -0.36032175039E-01  0.10814308714E+00  0.51100000000E-03 0.  1.
</event>
<event>
 8    1  0.1084146E+005  0.1043930E+01  0.7957747E-01            NaN
         13   -1    0    0    0    0  0.00000000000E+00  0.00000000000E+00  0.74505805969E-08  0.10566000000E+00  0.10566000000E+00 0. -1.
     999900   -1    0    0    0    0 -0.00000000000E+00 -0.00000000000E+00 -0.74505805969E-08  0.93827000000E+00  0.93827000000E+00 0. -1.
     999902    2    1    2    0    0  0.18741500658E-01  0.13059279379E-01 -0.32407064817E-02  0.10208585717E+01  0.10205978310E+01 0.  0.
     999903    2    3    3    0    0 -0.12382821608E+00  0.17318942891E-01 -0.25354151796E-01  0.12910004311E+00  0.19763988440E-01 0.  0.
         14    1    1    2    0    0 -0.18741500658E-01 -0.13059279379E-01  0.32407064817E-02  0.23071428290E-01  0.00000000000E+00 0.  1.
     999901    1    3    3    0    0  0.14256971673E+00 -0.42596635119E-02  0.22113445314E-01  0.89175852860E+00  0.88000000000E+00 0. -1.
        -11    1    4    4    0    0 -0.14668942206E-01 -0.42664450009E-02 -0.39255991484E-02  0.15781377255E-01  0.51100000000E-03 0.  1.
         11    1    4    4    0    0 -0.10915927387E+00  0.21585387892E-01 -0.21428552647E-01  0.11331866586E+00  0.51100000000E-03 0. -1.
</event>
<event>
 8    1  0.1084146E+005  0.1043930E+01  0.7957747E-01            NaN
         13   -1    0    0    0    0  0.00000000000E+00  0.00000000000E+00  0.74505805969E-08  0.10566000000E+00  0.10566000000E+00 0.  1.
     999900   -1    0    0    0    0 -0.00000000000E+00 -0.00000000000E+00 -0.74505805969E-08  0.93827000000E+00  0.93827000000E+00 0.  1.
     999902    2    1    2    0    0  0.57534763845E-03  0.22511725559E-01  0.24356113545E-02  0.10212795913E+01  0.10210283848E+01 0.  0.
     999903    2    3    3    0    0 -0.23154186932E-03 -0.12260128076E+00  0.34600495405E-01  0.12881501751E+00  0.19104627671E-01 0.  0.
         14    1    1    2    0    0 -0.57534763845E-03 -0.22511725559E-01 -0.24356113545E-02  0.22650408720E-01  0.00000000000E+00 0. -1.
     999901    1    3    3    0    0  0.80688950777E-03  0.14511300631E+00 -0.32164884051E-01  0.89246457377E+00  0.88000000000E+00 0. -1.
        -11    1    4    4    0    0  0.85865726045E-02 -0.83835882177E-01  0.21866272426E-01  0.87066522615E-01  0.51100000000E-03 0.  1.
         11    1    4    4    0    0 -0.88181144738E-02 -0.38765398579E-01  0.12734222979E-01  0.41748494892E-01  0.51100000000E-03 0. -1.
</event>
<event>
 8    1  0.1084146E+005  0.1043930E+01  0.7957747E-01            NaN
         13   -1    0    0    0    0  0.00000000000E+00  0.00000000000E+00  0.74505805969E-08  0.10566000000E+00  0.10566000000E+00 0.  1.
     999900   -1    0    0    0    0 -0.00000000000E+00 -0.00000000000E+00 -0.74505805969E-08  0.93827000000E+00  0.93827000000E+00 0. -1.
     999902    2    1    2    0    0 -0.14104979165E-01 -0.66263965861E-02  0.17558626874E-01  0.10204530976E+01  0.10201830029E+01 0.  0.
     999903    2    3    3    0    0 -0.10842588978E-01  0.99360703432E-01 -0.78913962586E-01  0.12885292427E+00  0.19635464816E-01 0.  0.
         14    1    1    2    0    0  0.14104979165E-01  0.66263965861E-02 -0.17558626874E-01  0.23476902407E-01  0.00000000000E+00 0. -1.
     999901    1    3    3    0    0 -0.32623901867E-02 -0.10598710002E+00  0.96472589459E-01  0.89160017333E+00  0.88000000000E+00 0.  1.
        -11    1    4    4    0    0 -0.15465558995E-01  0.90436034840E-01 -0.72250519298E-01  0.11678295497E+00  0.51100000000E-03 0. -1.
         11    1    4    4    0    0  0.46229700166E-02  0.89246685918E-02 -0.66634432872E-02  0.12069969291E-01  0.51100000000E-03 0.  1.
</event>
<event>
 8    1  0.1084146E+005  0.1043930E+01  0.7957747E-01            NaN
         13   -1    0    0    0    0  0.00000000000E+00  0.00000000000E+00  0.74505805969E-08  0.10566000000E+00  0.10566000000E+00 0.  1.
     999900   -1    0    0    0    0 -0.00000000000E+00 -0.00000000000E+00 -0.74505805969E-08  0.93827000000E+00  0.93827000000E+00 0. -1.
     999902    2    1    2    0    0  0.14614687117E-01 -0.47761403479E-02  0.17071992018E-01  0.10209549373E+01  0.10206963948E+01 0.  0.
     999903    2    3    3    0    0  0.10234385743E+00 -0.44100425651E-01 -0.67336841616E-01  0.13170375906E+00  0.19812047255E-01 0.  0.
         14    1    1    2    0    0 -0.14614687117E-01  0.47761403479E-02 -0.17071992018E-01  0.22975062734E-01  0.00000000000E+00 0. -1.
     999901    1    3    3    0    0 -0.87729170314E-01  0.39324285303E-01  0.84408833634E-01  0.88925117820E+00  0.88000000000E+00 0.  1.
        -11    1    4    4    0    0  0.90865818606E-01 -0.34754948182E-01 -0.64212192540E-01  0.11656744917E+00  0.51100000000E-03 0. -1.
         11    1    4    4    0    0  0.11478038825E-01 -0.93454774688E-02 -0.31246490761E-02  0.15136309895E-01  0.51100000000E-03 0.  1.
</event>
<event>
 8    1  0.1084146E+005  0.1043930E+01  0.7957747E-01            NaN
         13   -1    0    0    0    0  0.00000000000E+00  0.00000000000E+00  0.74505805969E-08  0.10566000000E+00  0.10566000000E+00 0. -1.
     999900   -1    0    0    0    0 -0.00000000000E+00 -0.00000000000E+00 -0.74505805969E-08  0.93827000000E+00  0.93827000000E+00 0. -1.
     999902    2    1    2    0    0  0.19734537572E-01  0.11902083451E-01 -0.44817019912E-02  0.10204524103E+01  0.10201822997E+01 0.  0.
     999903    2    3    3    0    0  0.11046214534E-01 -0.12526473246E+00  0.22103650206E-01  0.12938731547E+00  0.20957910166E-01 0.  0.
         14    1    1    2    0    0 -0.19734537572E-01 -0.11902083451E-01  0.44817019912E-02  0.23477589664E-01  0.00000000000E+00 0.  1.
     999901    1    3    3    0    0  0.86883230384E-02  0.13716681591E+00 -0.26585352197E-01  0.89106509487E+00  0.88000000000E+00 0. -1.
        -11    1    4    4    0    0  0.13235547537E-01 -0.43214895301E-01  0.43450717959E-02  0.45407572765E-01  0.51100000000E-03 0. -1.
         11    1    4    4    0    0 -0.21893330036E-02 -0.82049837155E-01  0.17758578410E-01  0.83979742702E-01  0.51100000000E-03 0.  1.
</event>
<event>
 8    1  0.1084146E+005  0.1043930E+01  0.7957747E-01            NaN
         13   -1    0    0    0    0  0.00000000000E+00  0.00000000000E+00  0.74505805969E-08  0.10566000000E+00  0.10566000000E+00 0. -1.
     999900   -1    0    0    0    0 -0.00000000000E+00 -0.00000000000E+00 -0.74505805969E-08  0.93827000000E+00  0.93827000000E+00 0.  1.
     999902    2    1    2    0    0  0.19940839778E-01 -0.10911175827E-01  0.55719467774E-02  0.10205262089E+01  0.10202578133E+01 0.  0.
     999903    2    3    3    0    0 -0.30857133719E-01 -0.27714086293E-01  0.12283107987E+00  0.13113738713E+00  0.19730860154E-01 0.  0.
         14    1    1    2    0    0 -0.19940839778E-01  0.10911175827E-01 -0.55719467774E-02  0.23403791143E-01  0.00000000000E+00 0.  1.
     999901    1    3    3    0    0  0.50797973497E-01  0.16802910466E-01 -0.11725913309E+00  0.88938882172E+00  0.88000000000E+00 0.  1.
        -11    1    4    4    0    0 -0.29479079577E-01 -0.17089044180E-01  0.79452974378E-01  0.86452806908E-01  0.51100000000E-03 0. -1.
         11    1    4    4    0    0 -0.13780541418E-02 -0.10625042113E-01  0.43378105490E-01  0.44684580227E-01  0.51100000000E-03 0.  1.
</event>
<event>
 8    1  0.1084146E+005  0.1043930E+01  0.7957747E-01            NaN
         13   -1    0    0    0    0  0.00000000000E+00  0.00000000000E+00  0.74505805969E-08  0.10566000000E+00  0.10566000000E+00 0.  1.
     999900   -1    0    0    0    0 -0.00000000000E+00 -0.00000000000E+00 -0.74505805969E-08  0.93827000000E+00  0.93827000000E+00 0. -1.
     999902    2    1    2    0    0  0.11299020904E-01  0.21515250809E-01 -0.13323696744E-02  0.10195917770E+01  0.10193012521E+01 0.  0.
     999903    2    3    3    0    0  0.37591918334E-01 -0.12041390187E+00 -0.53528012464E-02  0.12782310479E+00  0.19935735439E-01 0.  0.
         14    1    1    2    0    0 -0.11299020904E-01 -0.21515250809E-01  0.13323696744E-02  0.24338223019E-01  0.00000000000E+00 0.  1.
     999901    1    3    3    0    0 -0.26292897430E-01  0.14192915268E+00  0.40204315720E-02  0.89176867219E+00  0.88000000000E+00 0. -1.
        -11    1    4    4    0    0 -0.98193290046E-03 -0.74527694445E-02 -0.38175932418E-02  0.84464846992E-02  0.51100000000E-03 0.  1.
         11    1    4    4    0    0  0.38573851235E-01 -0.11296113243E+00 -0.15352080046E-02  0.11937662009E+00  0.51100000000E-03 0. -1.
</event>
<event>
 8    1  0.1084146E+005  0.1043930E+01  0.7957747E-01            NaN
         13   -1    0    0    0    0  0.00000000000E+00  0.00000000000E+00  0.74505805969E-08  0.10566000000E+00  0.10566000000E+00 0.  1.
     999900   -1    0    0    0    0 -0.00000000000E+00 -0.00000000000E+00 -0.74505805969E-08  0.93827000000E+00  0.93827000000E+00 0.  1.
     999902    2    1    2    0    0  0.10098848815E-01 -0.12746166668E-02  0.19556261373E-01  0.10218832598E+01  0.10216454071E+01 0.  0.
     999903    2    3    3    0    0  0.20556252311E-01  0.77848064875E-01  0.10535726732E+00  0.13411551503E+00  0.20098181013E-01 0.  0.
         14    1    1    2    0    0 -0.10098848815E-01  0.12746166668E-02 -0.19556261373E-01  0.22046740210E-01  0.00000000000E+00 0. -1.
     999901    1    3    3    0    0 -0.10457403496E-01 -0.79122681542E-01 -0.85801005945E-01  0.88776774476E+00  0.88000000000E+00 0.  1.
        -11    1    4    4    0    0  0.69709852454E-02  0.45028822189E-01  0.44764572168E-01  0.63877363013E-01  0.51100000000E-03 0.  1.
         11    1    4    4    0    0  0.13585267066E-01  0.32819242686E-01  0.60592695149E-01  0.70238152013E-01  0.51100000000E-03 0. -1.
</event>
<event>
 8    1  0.1084146E+005  0.1043930E+01  0.7957747E-01            NaN
         13   -1    0    0    0    0  0.00000000000E+00  0.00000000000E+00  0.74505805969E-08  0.10566000000E+00  0.10566000000E+00 0.  1.
     999900   -1    0    0    0    0 -0.00000000000E+00 -0.00000000000E+00 -0.74505805969E-08  0.93827000000E+00  0.93827000000E+00 0.  1.
     999902    2    1    2    0    0  0.10994857811E-01 -0.20007797190E-01 -0.50433916792E-02  0.10205497809E+01  0.10202819319E+01 0.  0.
     999903    2    3    3    0    0  0.95856829153E-01  0.42763833559E-01 -0.75809295265E-01  0.13142119348E+00  0.22521183189E-01 0.  0.
         14    1    1    2    0    0 -0.10994857811E-01  0.20007797190E-01  0.50433916792E-02  0.23380219125E-01  0.00000000000E+00 0.  1.
     999901    1    3    3    0    0 -0.84861971342E-01 -0.62771630749E-01  0.70765903586E-01  0.88912858739E+00  0.88000000000E+00 0. -1.
        -11    1    4    4    0    0  0.57432444240E-01  0.13375505256E-01 -0.41142690454E-01  0.71905298073E-01  0.51100000000E-03 0.  1.
         11    1    4    4    0    0  0.38424384913E-01  0.29388328303E-01 -0.34666604811E-01  0.59515895411E-01  0.51100000000E-03 0. -1.
</event>
<event>
 8    1  0.1084146E+005  0.1043930E+01  0.7957747E-01            NaN
         13   -1    0    0    0    0  0.00000000000E+00  0.00000000000E+00  0.74505805969E-08  0.10566000000E+00  0.10566000000E+00 0.  1.
     999900   -1    0    0    0    0 -0.00000000000E+00 -0.00000000000E+00 -0.74505805969E-08  0.93827000000E+00  0.93827000000E+00 0. -1.
     999902    2    1    2    0    0  0.12010250239E-01  0.20131780886E-01  0.43109843779E-02  0.10200947467E+01  0.10198162447E+01 0.  0.
     999903    2    3    3    0    0  0.45282413337E-01 -0.43798310230E-02  0.12151100202E+00  0.13136323491E+00  0.20535237897E-01 0.  0.
         14    1    1    2    0    0 -0.12010250239E-01 -0.20131780886E-01 -0.43109843779E-02  0.23835253277E-01  0.00000000000E+00 0. -1.
     999901    1    3    3    0    0 -0.33272163098E-01  0.24511611909E-01 -0.11720001765E+00  0.88873151181E+00  0.88000000000E+00 0. -1.
        -11    1    4    4    0    0  0.38030842572E-01 -0.61084952912E-02  0.75604560291E-01  0.84852633190E-01  0.51100000000E-03 0.  1.
         11    1    4    4    0    0  0.72515707654E-02  0.17286642681E-02  0.45906441733E-01  0.46510601719E-01  0.51100000000E-03 0. -1.
</event>
<event>
 8    1  0.1084146E+005  0.1043930E+01  0.7957747E-01            NaN
         13   -1    0    0    0    0  0.00000000000E+00  0.00000000000E+00  0.74505805969E-08  0.10566000000E+00  0.10566000000E+00 0. -1.
     999900   -1    0    0    0    0 -0.00000000000E+00 -0.00000000000E+00 -0.74505805969E-08  0.93827000000E+00  0.93827000000E+00 0.  1.
     999902    2    1    2    0    0  0.91427149989E-02 -0.17423808141E-01  0.13097998716E-01  0.10202924050E+01  0.10200185566E+01 0.  0.
     999903    2    3    3    0    0  0.89617335434E-01  0.71063768778E-01 -0.57177662278E-01  0.12942491521E+00  0.20004938679E-01 0.  0.
         14    1    1    2    0    0 -0.91427149989E-02  0.17423808141E-01 -0.13097998716E-01  0.23637595014E-01  0.00000000000E+00 0.  1.
     999901    1    3    3    0    0 -0.80474620435E-01 -0.88487576919E-01  0.70275660994E-01  0.89086748977E+00  0.88000000000E+00 0. -1.
        -11    1    4    4    0    0  0.16069720897E-01  0.40629864471E-02 -0.70704214834E-02  0.18027639045E-01  0.51100000000E-03 0.  1.
         11    1    4    4    0    0  0.73547614537E-01  0.67000782331E-01 -0.50107240794E-01  0.11139727617E+00  0.51100000000E-03 0. -1.
</event>
<event>
 8    1  0.1084146E+005  0.1043930E+01  0.7957747E-01            NaN
         13   -1    0    0    0    0  0.00000000000E+00  0.00000000000E+00  0.74505805969E-08  0.10566000000E+00  0.10566000000E+00 0.  1.
     999900   -1    0    0    0    0 -0.00000000000E+00 -0.00000000000E+00 -0.74505805969E-08  0.93827000000E+00  0.93827000000E+00 0. -1.
     999902    2    1    2    0    0  0.29075452890E-02 -0.91957631330E-02  0.20982218678E-01  0.10208373739E+01  0.10205761484E+01 0.  0.
     999903    2    3    3    0    0  0.76403746684E-01  0.98531062355E-01 -0.29604237534E-01  0.12978981620E+00  0.20568975480E-01 0.  0.
         14    1    1    2    0    0 -0.29075452890E-02  0.91957631330E-02 -0.20982218678E-01  0.23092626093E-01  0.00000000000E+00 0. -1.
     999901    1    3    3    0    0 -0.73496201395E-01 -0.10772682549E+00  0.50586456212E-01  0.89104755771E+00  0.88000000000E+00 0. -1.
        -11    1    4    4    0    0  0.44235436260E-01  0.41181477447E-01 -0.17556047162E-01  0.62937777358E-01  0.51100000000E-03 0. -1.
         11    1    4    4    0    0  0.32168310424E-01  0.57349584908E-01 -0.12048190373E-01  0.66852038839E-01  0.51100000000E-03 0.  1.
</event>
<event>
 8    1  0.1084146E+005  0.1043930E+01  0.7957747E-01            NaN
         13   -1    0    0    0    0  0.00000000000E+00  0.00000000000E+00  0.74505805969E-08  0.10566000000E+00  0.10566000000E+00 0.  1.
     999900   -1    0    0    0    0 -0.00000000000E+00 -0.00000000000E+00 -0.74505805969E-08  0.93827000000E+00  0.93827000000E+00 0. -1.
     999902    2    1    2    0    0 -0.91870525280E-02 -0.17388118004E-01  0.14186791682E-01  0.10196810074E+01  0.10193926345E+01 0.  0.
     999903    2    3    3    0    0 -0.10693048759E+00 -0.72449130143E-01 -0.43050114731E-03  0.13243856064E+00  0.29270828101E-01 0.  0.
         14    1    1    2    0    0  0.91870525280E-02  0.17388118004E-01 -0.14186791682E-01  0.24248992558E-01  0.00000000000E+00 0. -1.
     999901    1    3    3    0    0  0.97743435066E-01  0.55061012139E-01  0.14617292829E-01  0.88724244680E+00  0.88000000000E+00 0.  1.
        -11    1    4    4    0    0 -0.53200887080E-01 -0.23090303870E-01  0.96115255891E-02  0.58788936579E-01  0.51100000000E-03 0. -1.
         11    1    4    4    0    0 -0.53729600514E-01 -0.49358826273E-01 -0.10042026736E-01  0.73649624062E-01  0.51100000000E-03 0.  1.
</event>
<event>
 8    1  0.1084146E+005  0.1043930E+01  0.7957747E-01            NaN
         13   -1    0    0    0    0  0.00000000000E+00  0.00000000000E+00  0.74505805969E-08  0.10566000000E+00  0.10566000000E+00 0.  1.
     999900   -1    0    0    0    0 -0.00000000000E+00 -0.00000000000E+00 -0.74505805969E-08  0.93827000000E+00  0.93827000000E+00 0. -1.
     999902    2    1    2    0    0 -0.18339752228E-01 -0.14816460529E-01 -0.20690739097E-03  0.10203521115E+01  0.10200796609E+01 0.  0.
     999903    2    3    3    0    0 -0.10396018519E+00 -0.42548310539E-01 -0.68222216883E-01  0.13315089626E+00  0.21373148178E-01 0.  0.
         14    1    1    2    0    0  0.18339752228E-01  0.14816460529E-01  0.20690739097E-03  0.23577888477E-01  0.00000000000E+00 0. -1.
     999901    1    3    3    0    0  0.85620432962E-01  0.27731850010E-01  0.68015309492E-01  0.88720121527E+00  0.88000000000E+00 0.  1.
        -11    1    4    4    0    0 -0.32604587786E-01 -0.23302460881E-01 -0.29088318636E-01  0.49522270040E-01  0.51100000000E-03 0. -1.
         11    1    4    4    0    0 -0.71355597403E-01 -0.19245849658E-01 -0.39133898247E-01  0.83628626216E-01  0.51100000000E-03 0.  1.
</event>
<event>
 8    1  0.1084146E+005  0.1043930E+01  0.7957747E-01            NaN
         13   -1    0    0    0    0  0.00000000000E+00  0.00000000000E+00  0.74505805969E-08  0.10566000000E+00  0.10566000000E+00 0. -1.
     999900   -1    0    0    0    0 -0.00000000000E+00 -0.00000000000E+00 -0.74505805969E-08  0.93827000000E+00  0.93827000000E+00 0.  1.
     999902    2    1    2    0    0 -0.46684242509E-02 -0.80551093904E-02 -0.21702481241E-01  0.10203148213E+01  0.10200414981E+01 0.  0.
     999903    2    3    3    0    0  0.69355462848E-01  0.75768524448E-01  0.73601624738E-01  0.12813277147E+00  0.21207508960E-01 0.  0.
         14    1    1    2    0    0  0.46684242509E-02  0.80551093904E-02  0.21702481241E-01  0.23615178685E-01  0.00000000000E+00 0. -1.
     999901    1    3    3    0    0 -0.74023887099E-01 -0.83823633838E-01 -0.95304105980E-01  0.89218204985E+00  0.88000000000E+00 0.  1.
        -11    1    4    4    0    0  0.29674206226E-01  0.17863627105E-01  0.22541732776E-01  0.41328664702E-01  0.51100000000E-03 0. -1.
         11    1    4    4    0    0  0.39681256622E-01  0.57904897343E-01  0.51059891963E-01  0.86804106767E-01  0.51100000000E-03 0.  1.
</event>
<event>
 8    1  0.1084146E+005  0.1043930E+01  0.7957747E-01            NaN
         13   -1    0    0    0    0  0.00000000000E+00  0.00000000000E+00  0.74505805969E-08  0.10566000000E+00  0.10566000000E+00 0.  1.
     999900   -1    0    0    0    0 -0.00000000000E+00 -0.00000000000E+00 -0.74505805969E-08  0.93827000000E+00  0.93827000000E+00 0. -1.
     999902    2    1    2    0    0  0.33094994006E-02 -0.21471419286E-01 -0.95605844285E-02  0.10201943853E+01  0.10199182341E+01 0.  0.
     999903    2    3    3    0    0 -0.12389291692E+00 -0.36076529640E-01  0.60372608475E-02  0.13079174486E+00  0.20470983191E-01 0.  0.
         14    1    1    2    0    0 -0.33094994006E-02  0.21471419286E-01  0.95605844285E-02  0.23735614739E-01  0.00000000000E+00 0.  1.
     999901    1    3    3    0    0  0.12720241632E+00  0.14605110354E-01 -0.15597845276E-01  0.88940264040E+00  0.88000000000E+00 0. -1.
        -11    1    4    4    0    0 -0.49245535062E-01 -0.13094488892E-01 -0.75387729016E-02  0.51513906673E-01  0.51100000000E-03 0. -1.
         11    1    4    4    0    0 -0.74647381856E-01 -0.22982040748E-01  0.13576033749E-01  0.79277838191E-01  0.51100000000E-03 0.  1.
</event>
<event>
 8    1  0.1084146E+005  0.1043930E+01  0.7957747E-01            NaN
         13   -1    0    0    0    0  0.00000000000E+00  0.00000000000E+00  0.74505805969E-08  0.10566000000E+00  0.10566000000E+00 0. -1.
     999900   -1    0    0    0    0 -0.00000000000E+00 -0.00000000000E+00 -0.74505805969E-08  0.93827000000E+00  0.93827000000E+00 0.  1.
     999902    2    1    2    0    0  0.15766461067E-02 -0.14809829134E-01 -0.18196642050E-01  0.10204154378E+01  0.10201444658E+01 0.  0.
     999903    2    3    3    0    0  0.64220102673E-01 -0.80325495310E-03  0.10942934044E+00  0.12889495115E+00  0.22677325153E-01 0.  0.
         14    1    1    2    0    0 -0.15766461067E-02  0.14809829134E-01  0.18196642050E-01  0.23514562165E-01  0.00000000000E+00 0. -1.
     999901    1    3    3    0    0 -0.62643456566E-01 -0.14006574181E-01 -0.12762598249E+00  0.89152048668E+00  0.88000000000E+00 0.  1.
        -11    1    4    4    0    0  0.46851102785E-02 -0.59565055750E-02  0.71188410036E-02  0.10410054525E-01  0.51100000000E-03 0.  1.
         11    1    4    4    0    0  0.59534992395E-01  0.51532506219E-02  0.10231049944E+00  0.11848489662E+00  0.51100000000E-03 0. -1.
</event>
<event>
 8    1  0.1084146E+005  0.1043930E+01  0.7957747E-01            NaN
         13   -1    0    0    0    0  0.00000000000E+00  0.00000000000E+00  0.74505805969E-08  0.10566000000E+00  0.10566000000E+00 0. -1.
     999900   -1    0    0    0    0 -0.00000000000E+00 -0.00000000000E+00 -0.74505805969E-08  0.93827000000E+00  0.93827000000E+00 0. -1.
     999902    2    1    2    0    0 -0.15070146833E-01 -0.12331921273E-01 -0.12530678684E-01  0.10207739313E+01  0.10205112520E+01 0.  0.
     999903    2    3    3    0    0  0.42477809698E-02  0.26338611694E-01 -0.12798160683E+00  0.13218093718E+00  0.19512620471E-01 0.  0.
         14    1    1    2    0    0  0.15070146833E-01  0.12331921273E-01  0.12530678684E-01  0.23156068667E-01  0.00000000000E+00 0. -1.
     999901    1    3    3    0    0 -0.19317927803E-01 -0.38670532966E-01  0.11545092814E+00  0.88859299416E+00  0.88000000000E+00 0.  1.
        -11    1    4    4    0    0  0.68829302872E-02  0.49298991235E-02 -0.15695696404E-01  0.17840813920E-01  0.51100000000E-03 0. -1.
         11    1    4    4    0    0 -0.26351493173E-02  0.21408712570E-01 -0.11228591042E+00  0.11434012326E+00  0.51100000000E-03 0.  1.
</event>
<event>
 8    1  0.1084146E+005  0.1043930E+01  0.7957747E-01            NaN
         13   -1    0    0    0    0  0.00000000000E+00  0.00000000000E+00  0.74505805969E-08  0.10566000000E+00  0.10566000000E+00 0. -1.
     999900   -1    0    0    0    0 -0.00000000000E+00 -0.00000000000E+00 -0.74505805969E-08  0.93827000000E+00  0.93827000000E+00 0. -1.
     999902    2    1    2    0    0  0.32440426539E-03 -0.18391837370E-01 -0.15273649166E-01  0.10200208118E+01  0.10197405588E+01 0.  0.
     999903    2    3    3    0    0 -0.50385991831E-01 -0.23720193590E-01  0.11480115153E+00  0.12899926920E+00  0.18976598908E-01 0.  0.
         14    1    1    2    0    0 -0.32440426539E-03  0.18391837370E-01  0.15273649166E-01  0.23909188167E-01  0.00000000000E+00 0. -1.
     999901    1    3    3    0    0  0.50710396096E-01  0.53283562199E-02 -0.13007480069E+00  0.89102154263E+00  0.88000000000E+00 0. -1.
        -11    1    4    4    0    0 -0.27007187172E-01 -0.21479576442E-01  0.57382753971E-01  0.66961197251E-01  0.51100000000E-03 0.  1.
         11    1    4    4    0    0 -0.23378804659E-01 -0.22406171481E-02  0.57418397558E-01  0.62038071953E-01  0.51100000000E-03 0. -1.
</event>
<event>
 8    1  0.1084146E+005  0.1043930E+01  0.7957747E-01            NaN
         13   -1    0    0    0    0  0.00000000000E+00  0.00000000000E+00  0.74505805969E-08  0.10566000000E+00  0.10566000000E+00 0. -1.
     999900   -1    0    0    0    0 -0.00000000000E+00 -0.00000000000E+00 -0.74505805969E-08  0.93827000000E+00  0.93827000000E+00 0. -1.
     999902    2    1    2    0    0  0.18681063268E-01 -0.35819100054E-02  0.14382704252E-01  0.10200831053E+01  0.10198043280E+01 0.  0.
     999903    2    3    3    0    0  0.91720497252E-01  0.79741594645E-01  0.48747531721E-01  0.13246916519E+00  0.20009656311E-01 0.  0.
         14    1    1    2    0    0 -0.18681063268E-01  0.35819100054E-02 -0.14382704252E-01  0.23846894677E-01  0.00000000000E+00 0.  1.
     999901    1    3    3    0    0 -0.73039433984E-01 -0.83323504651E-01 -0.34364827468E-01  0.88761394013E+00  0.88000000000E+00 0.  1.
        -11    1    4    4    0    0  0.39840660877E-01  0.45048179812E-01  0.30562290622E-01  0.67460592145E-01  0.51100000000E-03 0. -1.
         11    1    4    4    0    0  0.51879836375E-01  0.34693414833E-01  0.18185241099E-01  0.65008573049E-01  0.51100000000E-03 0.  1.
</event>
<event>
 8    1  0.1084146E+005  0.1043930E+01  0.7957747E-01            NaN
         13   -1    0    0    0    0  0.00000000000E+00  0.00000000000E+00  0.74505805969E-08  0.10566000000E+00  0.10566000000E+00 0.  1.
     999900   -1    0    0    0    0 -0.00000000000E+00 -0.00000000000E+00 -0.74505805969E-08  0.93827000000E+00  0.93827000000E+00 0. -1.
     999902    2    1    2    0    0 -0.20000218705E-01  0.85054287229E-02 -0.75727550579E-02  0.10209148379E+01  0.10206553819E+01 0.  0.
     999903    2    3    3    0    0  0.57568818615E-01 -0.58936756982E-01 -0.98838925777E-01  0.13024378873E+00  0.20164351060E-01 0.  0.
         14    1    1    2    0    0  0.20000218705E-01 -0.85054287229E-02  0.75727550579E-02  0.23015162071E-01  0.00000000000E+00 0. -1.
     999901    1    3    3    0    0 -0.77569037319E-01  0.67442185705E-01  0.91266170719E-01  0.89067104920E+00  0.88000000000E+00 0.  1.
        -11    1    4    4    0    0  0.26090850034E-01 -0.40812819309E-01 -0.58697111758E-01  0.76105392221E-01  0.51100000000E-03 0.  1.
         11    1    4    4    0    0  0.31477968581E-01 -0.18123937673E-01 -0.40141814019E-01  0.54138396508E-01  0.51100000000E-03 0. -1.
</event>
<event>
 8    1  0.1084146E+005  0.1043930E+01  0.7957747E-01            NaN
         13   -1    0    0    0    0  0.00000000000E+00  0.00000000000E+00  0.74505805969E-08  0.10566000000E+00  0.10566000000E+00 0.  1.
     999900   -1    0    0    0    0 -0.00000000000E+00 -0.00000000000E+00 -0.74505805969E-08  0.93827000000E+00  0.93827000000E+00 0. -1.
     999902    2    1    2    0    0  0.13490923173E-01 -0.14318308855E-01 -0.13943922325E-01  0.10198166853E+01  0.10195315687E+01 0.  0.
     999903    2    3    3    0    0  0.96035962467E-01 -0.34485878170E-02 -0.89268979517E-01  0.13268326884E+00  0.20027488113E-01 0.  0.
         14    1    1    2    0    0 -0.13490923173E-01  0.14318308855E-01  0.13943922325E-01  0.24113314711E-01  0.00000000000E+00 0.  1.
     999901    1    3    3    0    0 -0.82545039294E-01 -0.10869721038E-01  0.75325057191E-01  0.88713341645E+00  0.88000000000E+00 0.  1.
        -11    1    4    4    0    0  0.50904436773E-01 -0.83960338951E-02 -0.37253590392E-01  0.63638401822E-01  0.51100000000E-03 0.  1.
         11    1    4    4    0    0  0.45131525694E-01  0.49474460781E-02 -0.52015389125E-01  0.69044867014E-01  0.51100000000E-03 0. -1.
</event>
<event>
 8    1  0.1084146E+005  0.1043930E+01  0.7957747E-01            NaN
         13   -1    0    0    0    0  0.00000000000E+00  0.00000000000E+00  0.74505805969E-08  0.10566000000E+00  0.10566000000E+00 0. -1.
     999900   -1    0    0    0    0 -0.00000000000E+00 -0.00000000000E+00 -0.74505805969E-08  0.93827000000E+00  0.93827000000E+00 0.  1.
     999902    2    1    2    0    0  0.16755730880E-01  0.23607728796E-03  0.16782820084E-01  0.10202134804E+01  0.10199377787E+01 0.  0.
     999903    2    3    3    0    0  0.15265193842E-01  0.49951057673E-01 -0.11625082281E+00  0.12882593784E+00  0.18807821541E-01 0.  0.
         14    1    1    2    0    0 -0.16755730880E-01 -0.23607728796E-03 -0.16782820084E-01  0.23716519554E-01  0.00000000000E+00 0.  1.
     999901    1    3    3    0    0  0.14905370380E-02 -0.49714980385E-01  0.13303364289E+00  0.89138754261E+00  0.88000000000E+00 0. -1.
        -11    1    4    4    0    0  0.11757231076E-02  0.13391373324E-01 -0.50719300295E-01  0.52473038293E-01  0.51100000000E-03 0. -1.
         11    1    4    4    0    0  0.14089470734E-01  0.36559684349E-01 -0.65531522511E-01  0.76352899545E-01  0.51100000000E-03 0.  1.
</event>
<event>
 8    1  0.1084146E+005  0.1043930E+01  0.7957747E-01            NaN
         13   -1    0    0    0    0  0.00000000000E+00  0.00000000000E+00  0.74505805969E-08  0.10566000000E+00  0.10566000000E+00 0.  1.
     999900   -1    0    0    0    0 -0.00000000000E+00 -0.00000000000E+00 -0.74505805969E-08  0.93827000000E+00  0.93827000000E+00 0.  1.
     999902    2    1    2    0    0 -0.12452757045E-01  0.13869456505E-01  0.14908889208E-01  0.10200614441E+01  0.10197821541E+01 0.  0.
     999903    2    3    3    0    0 -0.12823198388E+00  0.22776946393E-01  0.98584989448E-02  0.13241867861E+00  0.21801042788E-01 0.  0.
         14    1    1    2    0    0  0.12452757045E-01 -0.13869456505E-01 -0.14908889208E-01  0.23868555867E-01  0.00000000000E+00 0. -1.
     999901    1    3    3    0    0  0.11577922683E+00 -0.89074898880E-02  0.50503902633E-02  0.88764276552E+00  0.88000000000E+00 0.  1.
        -11    1    4    4    0    0 -0.79718243049E-01  0.24774629217E-01  0.53416323101E-02  0.83651507365E-01  0.51100000000E-03 0.  1.
         11    1    4    4    0    0 -0.48513740831E-01 -0.19976828242E-02  0.45168666347E-02  0.48767171245E-01  0.51100000000E-03 0. -1.
</event>
<event>
 8    1  0.1084146E+005  0.1043930E+01  0.7957747E-01            NaN
         13   -1    0    0    0    0  0.00000000000E+00  0.00000000000E+00  0.74505805969E-08  0.10566000000E+00  0.10566000000E+00 0.  1.
     999900   -1    0    0    0    0 -0.00000000000E+00 -0.00000000000E+00 -0.74505805969E-08  0.93827000000E+00  0.93827000000E+00 0. -1.
     999902    2    1    2    0    0  0.22055272441E-01 -0.13312204799E-02  0.68399976401E-02  0.10208000895E+01  0.10205380101E+01 0.  0.
     999903    2    3    3    0    0  0.99972361291E-01  0.80588673156E-01 -0.21788869699E-01  0.13310557353E+00  0.27446886849E-01 0.  0.
         14    1    1    2    0    0 -0.22055272441E-01  0.13312204799E-02 -0.68399976401E-02  0.23129910465E-01  0.00000000000E+00 0. -1.
     999901    1    3    3    0    0 -0.77917088850E-01 -0.81919893635E-01  0.28628867340E-01  0.88769451601E+00  0.88000000000E+00 0.  1.
        -11    1    4    4    0    0  0.56953084332E-01  0.57170244984E-01 -0.23630876866E-01  0.84087871830E-01  0.51100000000E-03 0. -1.
         11    1    4    4    0    0  0.43019276958E-01  0.23418428171E-01  0.18420071668E-02  0.49017701695E-01  0.51100000000E-03 0.  1.
</event>
<event>
 8    1  0.1084146E+005  0.1043930E+01  0.7957747E-01            NaN
         13   -1    0    0    0    0  0.00000000000E+00  0.00000000000E+00  0.74505805969E-08  0.10566000000E+00  0.10566000000E+00 0.  1.
     999900   -1    0    0    0    0 -0.00000000000E+00 -0.00000000000E+00 -0.74505805969E-08  0.93827000000E+00  0.93827000000E+00 0. -1.
     999902    2    1    2    0    0 -0.65442155491E-02 -0.22600614192E-01  0.49191034793E-02  0.10198922776E+01  0.10196089671E+01 0.  0.
     999903    2    3    3    0    0  0.53602893747E-01 -0.94965108941E-01 -0.71166246498E-01  0.13161119859E+00  0.19111013022E-01 0.  0.
         14    1    1    2    0    0  0.65442155491E-02  0.22600614192E-01 -0.49191034793E-02  0.24037722397E-01  0.00000000000E+00 0.  1.
     999901    1    3    3    0    0 -0.60147109297E-01  0.72364494749E-01  0.76085349977E-01  0.88828107902E+00  0.88000000000E+00 0.  1.
        -11    1    4    4    0    0  0.24615455317E-01 -0.51852576697E-01 -0.27057924798E-01  0.63458669746E-01  0.51100000000E-03 0.  1.
         11    1    4    4    0    0  0.28987438431E-01 -0.43112532243E-01 -0.44108321700E-01  0.68152528840E-01  0.51100000000E-03 0. -1.
</event>
<event>
 8    1  0.1084146E+005  0.1043930E+01  0.7957747E-01            NaN
         13   -1    0    0    0    0  0.00000000000E+00  0.00000000000E+00  0.74505805969E-08  0.10566000000E+00  0.10566000000E+00 0. -1.
     999900   -1    0    0    0    0 -0.00000000000E+00 -0.00000000000E+00 -0.74505805969E-08  0.93827000000E+00  0.93827000000E+00 0. -1.
     999902    2    1    2    0    0 -0.21973115935E-01 -0.69871038625E-02 -0.62810371181E-03  0.10208641820E+01  0.10206035696E+01 0.  0.
     999903    2    3    3    0    0  0.45525266134E-01  0.61329410380E-01  0.10292117164E+00  0.12960348497E+00  0.19247059811E-01 0.  0.
         14    1    1    2    0    0  0.21973115935E-01  0.69871038625E-02  0.62810371181E-03  0.23065817969E-01  0.00000000000E+00 0. -1.
     999901    1    3    3    0    0 -0.67498382069E-01 -0.68316514243E-01 -0.10354927535E+00  0.89126069706E+00  0.88000000000E+00 0. -1.
        -11    1    4    4    0    0  0.77330242480E-02  0.16889486804E-01  0.14055882083E-01  0.23299857738E-01  0.51100000000E-03 0. -1.
         11    1    4    4    0    0  0.37792241886E-01  0.44439923577E-01  0.88865289553E-01  0.10630362723E+00  0.51100000000E-03 0.  1.
</event>
<event>
 8    1  0.1214580E+005  0.1043930E+01  0.7957747E-01            NaN
         13   -1    0    0    0    0  0.00000000000E+00  0.00000000000E+00  0.74505805969E-08  0.10566000000E+00  0.10566000000E+00 0. -1.
     999900   -1    0    0    0    0 -0.00000000000E+00 -0.00000000000E+00 -0.74505805969E-08  0.93827000000E+00  0.93827000000E+00 0. -1.
     999902    2    1    2    0    0  0.21649703038E-01  0.87260603720E-02 -0.71618593355E-02  0.10195138987E+01  0.10192214890E+01 0.  0.
     999903    2    3    3    0    0 -0.13473656083E-01 -0.11818894797E+00  0.43408122084E-01  0.12827970241E+00  0.20524379551E-01 0.  0.
         14    1    1    2    0    0 -0.21649703038E-01 -0.87260603720E-02  0.71618593355E-02  0.24416101253E-01  0.00000000000E+00 0. -1.
     999901    1    3    3    0    0  0.35123359121E-01  0.12691500835E+00 -0.50569981420E-01  0.89123419634E+00  0.88000000000E+00 0. -1.
        -11    1    4    4    0    0 -0.17575620104E-01 -0.66106893264E-01  0.26628317686E-01  0.73405396143E-01  0.51100000000E-03 0. -1.
         11    1    4    4    0    0  0.41019640204E-02 -0.52082054711E-01  0.16779804398E-01  0.54874306268E-01  0.51100000000E-03 0.  1.
</event>
<event>
 8    1  0.1084146E+005  0.1043930E+01  0.7957747E-01            NaN
         13   -1    0    0    0    0  0.00000000000E+00  0.00000000000E+00  0.74505805969E-08  0.10566000000E+00  0.10566000000E+00 0. -1.
     999900   -1    0    0    0    0 -0.00000000000E+00 -0.00000000000E+00 -0.74505805969E-08  0.93827000000E+00  0.93827000000E+00 0.  1.
     999902    2    1    2    0    0 -0.13474112786E-01  0.68725359628E-02  0.18354719043E-01  0.10201459890E+01  0.10198686973E+01 0.  0.
     999903    2    3    3    0    0  0.15078433535E-01  0.12847803715E+00 -0.56406069821E-02  0.13100093817E+00  0.19886280900E-01 0.  0.
         14    1    1    2    0    0  0.13474112786E-01 -0.68725359628E-02 -0.18354719043E-01  0.23784010955E-01  0.00000000000E+00 0.  1.
     999901    1    3    3    0    0 -0.28552546321E-01 -0.12160550118E+00  0.23995326025E-01  0.88914505087E+00  0.88000000000E+00 0.  1.
        -11    1    4    4    0    0  0.64882652584E-02  0.84056927212E-01  0.52160692822E-02  0.84469717047E-01  0.51100000000E-03 0. -1.
         11    1    4    4    0    0  0.85901682767E-02  0.44421109935E-01 -0.10856676264E-01  0.46531221125E-01  0.51100000000E-03 0.  1.
</event>
<event>
 8    1  0.1084146E+005  0.1043930E+01  0.7957747E-01            NaN
         13   -1    0    0    0    0  0.00000000000E+00  0.00000000000E+00  0.74505805969E-08  0.10566000000E+00  0.10566000000E+00 0.  1.
     999900   -1    0    0    0    0 -0.00000000000E+00 -0.00000000000E+00 -0.74505805969E-08  0.93827000000E+00  0.93827000000E+00 0.  1.
     999902    2    1    2    0    0 -0.89575789384E-02 -0.20414690800E-01 -0.52955635615E-02  0.10210162309E+01  0.10207590817E+01 0.  0.
     999903    2    3    3    0    0  0.53886908360E-01  0.20940722453E-01  0.11415971470E+00  0.12976471573E+00  0.21543635674E-01 0.  0.
         14    1    1    2    0    0  0.89575789384E-02  0.20414690800E-01  0.52955635615E-02  0.22913769100E-01  0.00000000000E+00 0.  1.
     999901    1    3    3    0    0 -0.62844487298E-01 -0.41355413254E-01 -0.11945527826E+00  0.89125151517E+00  0.88000000000E+00 0.  1.
        -11    1    4    4    0    0  0.30226739211E-01  0.14384852187E-02  0.46527390967E-01  0.55504812713E-01  0.51100000000E-03 0. -1.
         11    1    4    4    0    0  0.23660169149E-01  0.19502237234E-01  0.67632323735E-01  0.74259903017E-01  0.51100000000E-03 0.  1.
</event>
<event>
 8    1  0.1084146E+005  0.1043930E+01  0.7957747E-01            NaN
         13   -1    0    0    0    0  0.00000000000E+00  0.00000000000E+00  0.74505805969E-08  0.10566000000E+00  0.10566000000E+00 0. -1.
     999900   -1    0    0    0    0 -0.00000000000E+00 -0.00000000000E+00 -0.74505805969E-08  0.93827000000E+00  0.93827000000E+00 0. -1.
     999902    2    1    2    0    0 -0.19628421643E-01  0.13907852537E-02  0.14227452976E-01  0.10196477094E+01  0.10193585344E+01 0.  0.
     999903    2    3    3    0    0 -0.10190999335E+00  0.59592440449E-01  0.57481866448E-01  0.13283959372E+00  0.20131740772E-01 0.  0.
         14    1    1    2    0    0  0.19628421643E-01 -0.13907852537E-02 -0.14227452976E-01  0.24282290625E-01  0.00000000000E+00 0.  1.
     999901    1    3    3    0    0  0.82281571703E-01 -0.58201655195E-01 -0.43254413472E-01  0.88680811566E+00  0.88000000000E+00 0. -1.
        -11    1    4    4    0    0 -0.72963104358E-01  0.31868175992E-01  0.36358896364E-01  0.87529570457E-01  0.51100000000E-03 0. -1.
         11    1    4    4    0    0 -0.28946888988E-01  0.27724264457E-01  0.21122970084E-01  0.45310023262E-01  0.51100000000E-03 0.  1.
</event>
<event>
 8    1  0.1145679E+005  0.1043930E+01  0.7957747E-01            NaN
         13   -1    0    0    0    0  0.00000000000E+00  0.00000000000E+00  0.74505805969E-08  0.10566000000E+00  0.10566000000E+00 0. -1.
     999900   -1    0    0    0    0 -0.00000000000E+00 -0.00000000000E+00 -0.74505805969E-08  0.93827000000E+00  0.93827000000E+00 0. -1.
     999902    2    1    2    0    0 -0.18545154927E-01  0.13660122042E-01  0.56759113553E-02  0.10202079074E+01  0.10199320746E+01 0.  0.
     999903    2    3    3    0    0  0.97089685341E-01 -0.78137255853E-01 -0.19473186279E-01  0.12755419408E+00  0.18948078838E-01 0.  0.
         14    1    1    2    0    0  0.18545154927E-01 -0.13660122042E-01 -0.56759113553E-02  0.23722092555E-01  0.00000000000E+00 0.  1.
     999901    1    3    3    0    0 -0.11563484027E+00  0.91797377895E-01  0.25149097634E-01  0.89265371336E+00  0.88000000000E+00 0.  1.
        -11    1    4    4    0    0  0.53662959563E-01 -0.31634211920E-01 -0.66880341273E-02  0.62653232273E-01  0.51100000000E-03 0. -1.
         11    1    4    4    0    0  0.43426725779E-01 -0.46503043933E-01 -0.12785152152E-01  0.64900961806E-01  0.51100000000E-03 0.  1.
</event>
<event>
 8    1  0.1084146E+005  0.1043930E+01  0.7957747E-01            NaN
         13   -1    0    0    0    0  0.00000000000E+00  0.00000000000E+00  0.74505805969E-08  0.10566000000E+00  0.10566000000E+00 0.  1.
     999900   -1    0    0    0    0 -0.00000000000E+00 -0.00000000000E+00 -0.74505805969E-08  0.93827000000E+00  0.93827000000E+00 0.  1.
     999902    2    1    2    0    0 -0.98420891171E-02  0.19475520649E-01 -0.10929986968E-01  0.10195245244E+01  0.10192323723E+01 0.  0.
     999903    2    3    3    0    0  0.73958389690E-01  0.27005970572E-01 -0.10249646843E+00  0.13078178975E+00  0.19979605524E-01 0.  0.
         14    1    1    2    0    0  0.98420891171E-02 -0.19475520649E-01  0.10929986968E-01  0.24405475571E-01  0.00000000000E+00 0.  1.
     999901    1    3    3    0    0 -0.83800478807E-01 -0.75304499228E-02  0.91566481461E-01  0.88874273468E+00  0.88000000000E+00 0.  1.
        -11    1    4    4    0    0  0.44784148689E-01  0.17541118072E-01 -0.46324763424E-01  0.66779904345E-01  0.51100000000E-03 0.  1.
         11    1    4    4    0    0  0.29174241001E-01  0.94648524995E-02 -0.56171705005E-01  0.64001885401E-01  0.51100000000E-03 0. -1.
</event>
<event>
 8    1  0.1084146E+005  0.1043930E+01  0.7957747E-01            NaN
         13   -1    0    0    0    0  0.00000000000E+00  0.00000000000E+00  0.74505805969E-08  0.10566000000E+00  0.10566000000E+00 0.  1.
     999900   -1    0    0    0    0 -0.00000000000E+00 -0.00000000000E+00 -0.74505805969E-08  0.93827000000E+00  0.93827000000E+00 0.  1.
     999902    2    1    2    0    0  0.16861928881E-02 -0.22565323022E-01 -0.55256840340E-02  0.10206368630E+01  0.10203710285E+01 0.  0.
     999903    2    3    3    0    0  0.17782929571E-01 -0.13041334507E-01 -0.12807475159E+00  0.13194789304E+00  0.22820944141E-01 0.  0.
         14    1    1    2    0    0 -0.16861928881E-02  0.22565323022E-01  0.55256840340E-02  0.23293137049E-01  0.00000000000E+00 0.  1.
     999901    1    3    3    0    0 -0.16096736683E-01 -0.95239885148E-02  0.12254906756E+00  0.88868896991E+00  0.88000000000E+00 0. -1.
        -11    1    4    4    0    0  0.18522944695E-01 -0.15750818459E-01 -0.76029297321E-01  0.79824200181E-01  0.51100000000E-03 0. -1.
         11    1    4    4    0    0 -0.74001512374E-03  0.27094839519E-02 -0.52045454271E-01  0.52123692856E-01  0.51100000000E-03 0.  1.
</event>
<event>
 8    1  0.1084146E+005  0.1043930E+01  0.7957747E-01            NaN
         13   -1    0    0    0    0  0.00000000000E+00  0.00000000000E+00  0.74505805969E-08  0.10566000000E+00  0.10566000000E+00 0.  1.
     999900   -1    0    0    0    0 -0.00000000000E+00 -0.00000000000E+00 -0.74505805969E-08  0.93827000000E+00  0.93827000000E+00 0.  1.
     999902    2    1    2    0    0  0.14664984423E-01 -0.10772619254E-01  0.16919260639E-01  0.10190830188E+01  0.10187800679E+01 0.  0.
     999903    2    3    3    0    0  0.74240691329E-01 -0.69329472397E-01 -0.78584171295E-01  0.12998286955E+00  0.20045408608E-01 0.  0.
         14    1    1    2    0    0 -0.14664984423E-01  0.10772619254E-01 -0.16919260639E-01  0.24846981191E-01  0.00000000000E+00 0. -1.
     999901    1    3    3    0    0 -0.59575706906E-01  0.58556853142E-01  0.95503431934E-01  0.88910014926E+00  0.88000000000E+00 0. -1.
        -11    1    4    4    0    0  0.52789492287E-01 -0.36263292470E-01 -0.46267134155E-01  0.79010541706E-01  0.51100000000E-03 0.  1.
         11    1    4    4    0    0  0.21451199042E-01 -0.33066179926E-01 -0.32317037140E-01  0.50972327843E-01  0.51100000000E-03 0. -1.
</event>
<event>
 8    1  0.1084146E+005  0.1043930E+01  0.7957747E-01            NaN
         13   -1    0    0    0    0  0.00000000000E+00  0.00000000000E+00  0.74505805969E-08  0.10566000000E+00  0.10566000000E+00 0.  1.
     999900   -1    0    0    0    0 -0.00000000000E+00 -0.00000000000E+00 -0.74505805969E-08  0.93827000000E+00  0.93827000000E+00 0.  1.
     999902    2    1    2    0    0  0.22468801119E-01  0.61710337344E-02 -0.42669901885E-02  0.10202416930E+01  0.10199666545E+01 0.  0.
     999903    2    3    3    0    0  0.41283852751E-01 -0.68895553968E-01 -0.10205469917E+00  0.13144957180E+00  0.20319312238E-01 0.  0.
         14    1    1    2    0    0 -0.22468801119E-01 -0.61710337344E-02  0.42669901885E-02  0.23688306954E-01  0.00000000000E+00 0. -1.
     999901    1    3    3    0    0 -0.18815051632E-01  0.75066587703E-01  0.97787708981E-01  0.88879212124E+00  0.88000000000E+00 0.  1.
        -11    1    4    4    0    0 -0.12362503716E-02 -0.76725046531E-02 -0.58231339043E-02  0.97244872410E-02  0.51100000000E-03 0.  1.
         11    1    4    4    0    0  0.42520103123E-01 -0.61223049315E-01 -0.96231565266E-01  0.12172508456E+00  0.51100000000E-03 0. -1.
</event>
<event>
 8    1  0.1084146E+005  0.1043930E+01  0.7957747E-01            NaN
         13   -1    0    0    0    0  0.00000000000E+00  0.00000000000E+00  0.74505805969E-08  0.10566000000E+00  0.10566000000E+00 0. -1.
     999900   -1    0    0    0    0 -0.00000000000E+00 -0.00000000000E+00 -0.74505805969E-08  0.93827000000E+00  0.93827000000E+00 0.  1.
     999902    2    1    2    0    0  0.20296918586E-01 -0.39244523418E-02 -0.11498812517E-01  0.10202743681E+01  0.10200000967E+01 0.  0.
     999903    2    3    3    0    0 -0.32648599460E-01 -0.12457090845E+00 -0.24605886856E-02  0.13042017515E+00  0.20482317018E-01 0.  0.
         14    1    1    2    0    0 -0.20296918586E-01  0.39244523418E-02  0.11498812517E-01  0.23655631878E-01  0.00000000000E+00 0. -1.
     999901    1    3    3    0    0  0.52945518046E-01  0.12064645611E+00 -0.90382238311E-02  0.88985419297E+00  0.88000000000E+00 0.  1.
        -11    1    4    4    0    0 -0.14161761248E-02 -0.27743321012E-01 -0.67359529701E-02  0.28589011858E-01  0.51100000000E-03 0.  1.
         11    1    4    4    0    0 -0.31232423336E-01 -0.96827587442E-01  0.42753642845E-02  0.10183116330E+00  0.51100000000E-03 0. -1.
</event>
<event>
 8    1  0.1084146E+005  0.1043930E+01  0.7957747E-01            NaN
         13   -1    0    0    0    0  0.00000000000E+00  0.00000000000E+00  0.74505805969E-08  0.10566000000E+00  0.10566000000E+00 0.  1.
     999900   -1    0    0    0    0 -0.00000000000E+00 -0.00000000000E+00 -0.74505805969E-08  0.93827000000E+00  0.93827000000E+00 0.  1.
     999902    2    1    2    0    0 -0.21711352975E-01  0.46170178097E-02  0.75203473053E-02  0.10204938031E+01  0.10202246551E+01 0.  0.
     999903    2    3    3    0    0 -0.10021519107E+00  0.39441778022E-01  0.76569716298E-01  0.13362096448E+00  0.19821763829E-01 0.  0.
         14    1    1    2    0    0  0.21711352975E-01 -0.46170178097E-02 -0.75203473053E-02  0.23436196899E-01  0.00000000000E+00 0.  1.
     999901    1    3    3    0    0  0.78503838093E-01 -0.34824760212E-01 -0.69049368992E-01  0.88687283862E+00  0.88000000000E+00 0.  1.
        -11    1    4    4    0    0 -0.73399510798E-01  0.37844009924E-01  0.59583813018E-01  0.10183392935E+00  0.51100000000E-03 0.  1.
         11    1    4    4    0    0 -0.26815680271E-01  0.15977680986E-02  0.16985903279E-01  0.31787035132E-01  0.51100000000E-03 0. -1.
</event>
<event>
 8    1  0.1084146E+005  0.1043930E+01  0.7957747E-01            NaN
         13   -1    0    0    0    0  0.00000000000E+00  0.00000000000E+00  0.74505805969E-08  0.10566000000E+00  0.10566000000E+00 0.  1.
     999900   -1    0    0    0    0 -0.00000000000E+00 -0.00000000000E+00 -0.74505805969E-08  0.93827000000E+00  0.93827000000E+00 0.  1.
     999902    2    1    2    0    0 -0.21441560926E-01  0.90397649565E-02 -0.49936882742E-02  0.10201309494E+01  0.10198533028E+01 0.  0.
     999903    2    3    3    0    0  0.50503910873E-01 -0.98904318408E-01  0.60593408925E-01  0.12820620857E+00  0.20798112816E-01 0.  0.
         14    1    1    2    0    0  0.21441560926E-01 -0.90397649565E-02  0.49936882742E-02  0.23799050569E-01  0.00000000000E+00 0.  1.
     999901    1    3    3    0    0 -0.71945471799E-01  0.10794408336E+00 -0.65587097199E-01  0.89192474086E+00  0.88000000000E+00 0.  1.
        -11    1    4    4    0    0  0.39244500071E-01 -0.90255568094E-01  0.56200726434E-01  0.11333570104E+00  0.51100000000E-03 0.  1.
         11    1    4    4    0    0  0.11259410802E-01 -0.86487503145E-02  0.43926824904E-02  0.14870507526E-01  0.51100000000E-03 0. -1.
</event>
<event>
 8    1  0.1084146E+005  0.1043930E+01  0.7957747E-01            NaN
         13   -1    0    0    0    0  0.00000000000E+00  0.00000000000E+00  0.74505805969E-08  0.10566000000E+00  0.10566000000E+00 0.  1.
     999900   -1    0    0    0    0 -0.00000000000E+00 -0.00000000000E+00 -0.74505805969E-08  0.93827000000E+00  0.93827000000E+00 0.  1.
     999902    2    1    2    0    0  0.26313228148E-02  0.16336045847E-01  0.16753933888E-01  0.10203825043E+01  0.10201107638E+01 0.  0.
     999903    2    3    3    0    0 -0.55807302241E-01 -0.63176954895E-01 -0.92008665245E-01  0.12821284937E+00  0.29447540645E-01 0.  0.
         14    1    1    2    0    0 -0.26313228148E-02 -0.16336045847E-01 -0.16753933888E-01  0.23547495714E-01  0.00000000000E+00 0. -1.
     999901    1    3    3    0    0  0.58438625056E-01  0.79513000742E-01  0.10876259913E+00  0.89216965492E+00  0.88000000000E+00 0. -1.
        -11    1    4    4    0    0 -0.19812542230E-01 -0.42950539398E-01 -0.57053701530E-01  0.74112560633E-01  0.51100000000E-03 0. -1.
         11    1    4    4    0    0 -0.35994760011E-01 -0.20226415497E-01 -0.34954963714E-01  0.54100288736E-01  0.51100000000E-03 0.  1.
</event>
<event>
 8    1  0.1084146E+005  0.1043930E+01  0.7957747E-01            NaN
         13   -1    0    0    0    0  0.00000000000E+00  0.00000000000E+00  0.74505805969E-08  0.10566000000E+00  0.10566000000E+00 0. -1.
     999900   -1    0    0    0    0 -0.00000000000E+00 -0.00000000000E+00 -0.74505805969E-08  0.93827000000E+00  0.93827000000E+00 0.  1.
     999902    2    1    2    0    0 -0.24417660665E-01 -0.20553978847E-03 -0.52381777449E-02  0.10189559554E+01  0.10186498594E+01 0.  0.
     999903    2    3    3    0    0  0.51091143605E-02 -0.96138719037E-02  0.12685511094E+00  0.12855773880E+00  0.17786046526E-01 0.  0.
         14    1    1    2    0    0  0.24417660665E-01  0.20553978847E-03  0.52381777449E-02  0.24974044627E-01  0.00000000000E+00 0. -1.
     999901    1    3    3    0    0 -0.29526775026E-01  0.94083321152E-02 -0.13209328869E+00  0.89039821657E+00  0.88000000000E+00 0.  1.
        -11    1    4    4    0    0  0.81865796011E-02 -0.19099448467E-02  0.25339105767E-01  0.26702048179E-01  0.51100000000E-03 0.  1.
         11    1    4    4    0    0 -0.30774652406E-02 -0.77039270570E-02  0.10151600518E+00  0.10185569062E+00  0.51100000000E-03 0. -1.
</event>
<event>
 8    1  0.1084146E+005  0.1043930E+01  0.7957747E-01            NaN
         13   -1    0    0    0    0  0.00000000000E+00  0.00000000000E+00  0.74505805969E-08  0.10566000000E+00  0.10566000000E+00 0. -1.
     999900   -1    0    0    0    0 -0.00000000000E+00 -0.00000000000E+00 -0.74505805969E-08  0.93827000000E+00  0.93827000000E+00 0.  1.
     999902    2    1    2    0    0  0.11256051071E-02  0.78461104329E-02 -0.21756959190E-01  0.10207741431E+01  0.10205114686E+01 0.  0.
     999903    2    3    3    0    0 -0.16913741506E-02 -0.11682669412E+00 -0.56437285986E-01  0.13130578018E+00  0.20117242654E-01 0.  0.
         14    1    1    2    0    0 -0.11256051071E-02 -0.78461104329E-02  0.21756959190E-01  0.23155856905E-01  0.00000000000E+00 0. -1.
     999901    1    3    3    0    0  0.28169792576E-02  0.12467280456E+00  0.34680326796E-01  0.88946836292E+00  0.88000000000E+00 0. -1.
        -11    1    4    4    0    0 -0.66944623235E-02 -0.16450800810E-01 -0.11851856728E-01  0.21358190513E-01  0.51100000000E-03 0. -1.
         11    1    4    4    0    0  0.50030881729E-02 -0.10037589331E+00 -0.44585429258E-01  0.10994758966E+00  0.51100000000E-03 0.  1.
</event>
<event>
 8    1  0.1084146E+005  0.1043930E+01  0.7957747E-01            NaN
         13   -1    0    0    0    0  0.00000000000E+00  0.00000000000E+00  0.74505805969E-08  0.10566000000E+00  0.10566000000E+00 0. -1.
     999900   -1    0    0    0    0 -0.00000000000E+00 -0.00000000000E+00 -0.74505805969E-08  0.93827000000E+00  0.93827000000E+00 0. -1.
     999902    2    1    2    0    0 -0.18119335778E-01  0.15133686860E-01  0.11134632493E-02  0.10202957323E+01  0.10200219619E+01 0.  0.
     999903    2    3    3    0    0  0.34142989172E-01  0.54623575209E-01 -0.11197407442E+00  0.13064434384E+00  0.19500578389E-01 0.  0.
         14    1    1    2    0    0  0.18119335778E-01 -0.15133686860E-01 -0.11134632493E-02  0.23634267651E-01  0.00000000000E+00 0.  1.
     999901    1    3    3    0    0 -0.52262324950E-01 -0.39489888349E-01  0.11308753767E+00  0.88965138850E+00  0.88000000000E+00 0.  1.
        -11    1    4    4    0    0  0.26735892295E-01  0.31738859981E-01 -0.84383983262E-01  0.94037656936E-01  0.51100000000E-03 0. -1.
         11    1    4    4    0    0  0.74070968772E-02  0.22884715228E-01 -0.27590091160E-01  0.36606686909E-01  0.51100000000E-03 0.  1.
</event>
<event>
 8    1  0.1084146E+005  0.1043930E+01  0.7957747E-01            NaN
         13   -1    0    0    0    0  0.00000000000E+00  0.00000000000E+00  0.74505805969E-08  0.10566000000E+00  0.10566000000E+00 0.  1.
     999900   -1    0    0    0    0 -0.00000000000E+00 -0.00000000000E+00 -0.74505805969E-08  0.93827000000E+00  0.93827000000E+00 0. -1.
     999902    2    1    2    0    0  0.59591615871E-02  0.56281173375E-02  0.22752228498E-01  0.10197463027E+01  0.10194594993E+01 0.  0.
     999903    2    3    3    0    0 -0.27969781471E-01 -0.10318333962E+00  0.72925795107E-01  0.13097833914E+00  0.20200086136E-01 0.  0.
         14    1    1    2    0    0 -0.59591615871E-02 -0.56281173375E-02 -0.22752228498E-01  0.24183697261E-01  0.00000000000E+00 0. -1.
     999901    1    3    3    0    0  0.33928943058E-01  0.10881145696E+00 -0.50173566610E-01  0.88876796360E+00  0.88000000000E+00 0.  1.
        -11    1    4    4    0    0 -0.85134633535E-02 -0.66706872800E-01  0.41229597537E-01  0.78882360329E-01  0.51100000000E-03 0.  1.
         11    1    4    4    0    0 -0.19456318117E-01 -0.36476466820E-01  0.31696197570E-01  0.52095978806E-01  0.51100000000E-03 0. -1.
</event>
<event>
 8    1  0.1084146E+005  0.1043930E+01  0.7957747E-01            NaN
         13   -1    0    0    0    0  0.00000000000E+00  0.00000000000E+00  0.74505805969E-08  0.10566000000E+00  0.10566000000E+00 0.  1.
     999900   -1    0    0    0    0 -0.00000000000E+00 -0.00000000000E+00 -0.74505805969E-08  0.93827000000E+00  0.93827000000E+00 0.  1.
     999902    2    1    2    0    0  0.28518567457E-02 -0.19208789715E-01 -0.10552373240E-01  0.10218287948E+01  0.10215897526E+01 0.  0.
     999903    2    3    3    0    0  0.12733600428E+00 -0.22774234220E-02 -0.28886466006E-01  0.13271737711E+00  0.23660719032E-01 0.  0.
         14    1    1    2    0    0 -0.28518567457E-02  0.19208789715E-01  0.10552373240E-01  0.22101205176E-01  0.00000000000E+00 0.  1.
     999901    1    3    3    0    0 -0.12448414753E+00 -0.16931366293E-01  0.18334092766E-01  0.88911141771E+00  0.88000000000E+00 0. -1.
        -11    1    4    4    0    0  0.89611039730E-01  0.66775168188E-02 -0.27267876694E-01  0.93907006622E-01  0.51100000000E-03 0.  1.
         11    1    4    4    0    0  0.37724964550E-01 -0.89549402408E-02 -0.16185893122E-02  0.38810370488E-01  0.51100000000E-03 0. -1.
</event>
<event>
 8    1  0.1084146E+005  0.1043930E+01  0.7957747E-01            NaN
         13   -1    0    0    0    0  0.00000000000E+00  0.00000000000E+00  0.74505805969E-08  0.10566000000E+00  0.10566000000E+00 0.  1.
     999900   -1    0    0    0    0 -0.00000000000E+00 -0.00000000000E+00 -0.74505805969E-08  0.93827000000E+00  0.93827000000E+00 0.  1.
     999902    2    1    2    0    0  0.16303254117E-01 -0.84356297542E-03 -0.13963142906E-01  0.10224479830E+01  0.10222222855E+01 0.  0.
     999903    2    3    3    0    0  0.18451087411E-01  0.46840613606E-01 -0.12296384906E+00  0.13443922867E+00  0.20477116995E-01 0.  0.
         14    1    1    2    0    0 -0.16303254117E-01  0.84356297542E-03  0.13963142906E-01  0.21482016970E-01  0.00000000000E+00 0.  1.
     999901    1    3    3    0    0 -0.21478332942E-02 -0.47684176582E-01  0.10900070615E+00  0.88800875436E+00  0.88000000000E+00 0. -1.
        -11    1    4    4    0    0 -0.15847652428E-02  0.20974717460E-01 -0.38795695678E-01  0.44134084079E-01  0.51100000000E-03 0.  1.
         11    1    4    4    0    0  0.20035852654E-01  0.25865896146E-01 -0.84168153377E-01  0.90305144587E-01  0.51100000000E-03 0. -1.
</event>
<event>
 8    1  0.1084146E+005  0.1043930E+01  0.7957747E-01            NaN
         13   -1    0    0    0    0  0.00000000000E+00  0.00000000000E+00  0.74505805969E-08  0.10566000000E+00  0.10566000000E+00 0. -1.
     999900   -1    0    0    0    0 -0.00000000000E+00 -0.00000000000E+00 -0.74505805969E-08  0.93827000000E+00  0.93827000000E+00 0.  1.
     999902    2    1    2    0    0  0.14124230750E-01 -0.86578276562E-02 -0.17120005057E-01  0.10201067667E+01  0.10198285488E+01 0.  0.
     999903    2    3    3    0    0  0.31368401392E-01 -0.84736336519E-01  0.91311778374E-01  0.13002657218E+00  0.20120767153E-01 0.  0.
         14    1    1    2    0    0 -0.14124230750E-01  0.86578276562E-02  0.17120005057E-01  0.23823233348E-01  0.00000000000E+00 0. -1.
     999901    1    3    3    0    0 -0.17244170642E-01  0.76078508862E-01 -0.10843178343E+00  0.89008019447E+00  0.88000000000E+00 0.  1.
        -11    1    4    4    0    0  0.22945519530E-02 -0.29418969783E-01  0.22803950062E-01  0.37296407483E-01  0.51100000000E-03 0. -1.
         11    1    4    4    0    0  0.29073849439E-01 -0.55317366736E-01  0.68507828312E-01  0.92730164697E-01  0.51100000000E-03 0.  1.
</event>
<event>
 8    1  0.1084146E+005  0.1043930E+01  0.7957747E-01            NaN
         13   -1    0    0    0    0  0.00000000000E+00  0.00000000000E+00  0.74505805969E-08  0.10566000000E+00  0.10566000000E+00 0.  1.
     999900   -1    0    0    0    0 -0.00000000000E+00 -0.00000000000E+00 -0.74505805969E-08  0.93827000000E+00  0.93827000000E+00 0. -1.
     999902    2    1    2    0    0 -0.15649793019E-01 -0.15312576382E-01  0.80091571162E-02  0.10206161068E+01  0.10203497929E+01 0.  0.
     999903    2    3    3    0    0 -0.12478991408E+00 -0.11570695592E-01 -0.38363906176E-01  0.13265437979E+00  0.20469282507E-01 0.  0.
         14    1    1    2    0    0  0.15649793019E-01  0.15312576382E-01 -0.80091571162E-02  0.23313893169E-01  0.00000000000E+00 0. -1.
     999901    1    3    3    0    0  0.10914012106E+00 -0.37418807899E-02  0.46373063292E-01  0.88796172704E+00  0.88000000000E+00 0. -1.
        -11    1    4    4    0    0 -0.52455561550E-01 -0.20287053498E-02 -0.26244559269E-01  0.58691903999E-01  0.51100000000E-03 0. -1.
         11    1    4    4    0    0 -0.72334352533E-01 -0.95419902419E-02 -0.12119346908E-01  0.73962475787E-01  0.51100000000E-03 0.  1.
</event>
<event>
 8    1  0.1084146E+005  0.1043930E+01  0.7957747E-01            NaN
         13   -1    0    0    0    0  0.00000000000E+00  0.00000000000E+00  0.74505805969E-08  0.10566000000E+00  0.10566000000E+00 0.  1.
     999900   -1    0    0    0    0 -0.00000000000E+00 -0.00000000000E+00 -0.74505805969E-08  0.93827000000E+00  0.93827000000E+00 0.  1.
     999902    2    1    2    0    0 -0.94936032840E-03  0.59707761701E-02 -0.23451294485E-01  0.10197119351E+01  0.10194243062E+01 0.  0.
     999903    2    3    3    0    0  0.26548353945E-01  0.10368205736E+00 -0.75305667842E-01  0.13236054205E+00  0.19838986028E-01 0.  0.
         14    1    1    2    0    0  0.94936032840E-03 -0.59707761701E-02  0.23451294485E-01  0.24218064871E-01  0.00000000000E+00 0.  1.
     999901    1    3    3    0    0 -0.27497714273E-01 -0.97711281192E-01  0.51854373357E-01  0.88735139308E+00  0.88000000000E+00 0. -1.
        -11    1    4    4    0    0  0.27911174107E-01  0.98178884530E-01 -0.66321468205E-01  0.12172479317E+00  0.51100000000E-03 0.  1.
         11    1    4    4    0    0 -0.13628201625E-02  0.55031728320E-02 -0.89841996369E-02  0.10635748875E-01  0.51100000000E-03 0. -1.
</event>
<event>
 8    1  0.1084146E+005  0.1043930E+01  0.7957747E-01            NaN
         13   -1    0    0    0    0  0.00000000000E+00  0.00000000000E+00  0.74505805969E-08  0.10566000000E+00  0.10566000000E+00 0. -1.
     999900   -1    0    0    0    0 -0.00000000000E+00 -0.00000000000E+00 -0.74505805969E-08  0.93827000000E+00  0.93827000000E+00 0.  1.
     999902    2    1    2    0    0  0.12233949794E-01  0.18022465258E-01 -0.82803215068E-02  0.10206267276E+01  0.10203606590E+01 0.  0.
     999903    2    3    3    0    0  0.13139582588E-01 -0.34620131548E-01  0.12243984791E+00  0.12941416827E+00  0.19629275439E-01 0.  0.
         14    1    1    2    0    0 -0.12233949794E-01 -0.18022465258E-01  0.82803215068E-02  0.23303272427E-01  0.00000000000E+00 0. -1.
     999901    1    3    3    0    0 -0.90563279439E-03  0.52642596806E-01 -0.13072016941E+00  0.89121255930E+00  0.88000000000E+00 0. -1.
        -11    1    4    4    0    0  0.15810496470E-01 -0.19919076589E-01  0.92720818242E-01  0.96146516667E-01  0.51100000000E-03 0.  1.
         11    1    4    4    0    0 -0.26709138813E-02 -0.14701054959E-01  0.29719029666E-01  0.33267651603E-01  0.51100000000E-03 0. -1.
</event>
<event>
 8    1  0.1084146E+005  0.1043930E+01  0.7957747E-01            NaN
         13   -1    0    0    0    0  0.00000000000E+00  0.00000000000E+00  0.74505805969E-08  0.10566000000E+00  0.10566000000E+00 0. -1.
     999900   -1    0    0    0    0 -0.00000000000E+00 -0.00000000000E+00 -0.74505805969E-08  0.93827000000E+00  0.93827000000E+00 0.  1.
     999902    2    1    2    0    0 -0.44620452190E-02 -0.36452954378E-02  0.23035234651E-01  0.10201851045E+01  0.10199087348E+01 0.  0.
     999903    2    3    3    0    0  0.11970920272E+00 -0.10002817533E-01 -0.42593792528E-01  0.12902513789E+00  0.20072505337E-01 0.  0.
         14    1    1    2    0    0  0.44620452190E-02  0.36452954378E-02 -0.23035234651E-01  0.23744895489E-01  0.00000000000E+00 0.  1.
     999901    1    3    3    0    0 -0.12417124794E+00  0.63575220951E-02  0.65629027179E-01  0.89115996662E+00  0.88000000000E+00 0.  1.
        -11    1    4    4    0    0  0.55786766689E-01  0.91470764617E-04 -0.29077747279E-01  0.62912226255E-01  0.51100000000E-03 0.  1.
         11    1    4    4    0    0  0.63922436032E-01 -0.10094288298E-01 -0.13516045249E-01  0.66112911633E-01  0.51100000000E-03 0. -1.
</event>
<event>
 8    1  0.1084146E+005  0.1043930E+01  0.7957747E-01            NaN
         13   -1    0    0    0    0  0.00000000000E+00  0.00000000000E+00  0.74505805969E-08  0.10566000000E+00  0.10566000000E+00 0. -1.
     999900   -1    0    0    0    0 -0.00000000000E+00 -0.00000000000E+00 -0.74505805969E-08  0.93827000000E+00  0.93827000000E+00 0. -1.
     999902    2    1    2    0    0  0.11360122621E-01  0.72149361227E-04 -0.20076216827E-01  0.10208624454E+01  0.10206017933E+01 0.  0.
     999903    2    3    3    0    0 -0.36090679818E-01  0.62449543741E-02 -0.12635177001E+00  0.13317771797E+00  0.20736396838E-01 0.  0.
         14    1    1    2    0    0 -0.11360122621E-01 -0.72149361227E-04  0.20076216827E-01  0.23067554564E-01  0.00000000000E+00 0. -1.
     999901    1    3    3    0    0  0.47450802439E-01 -0.61728050128E-02  0.10627555318E+00  0.88768472747E+00  0.88000000000E+00 0.  1.
        -11    1    4    4    0    0 -0.18759952441E-01  0.25592992664E-03 -0.95149148891E-01  0.96982591074E-01  0.51100000000E-03 0. -1.
         11    1    4    4    0    0 -0.17330727377E-01  0.59890244474E-02 -0.31202621119E-01  0.36195126895E-01  0.51100000000E-03 0.  1.
</event>
<event>
 8    1  0.1084146E+005  0.1043930E+01  0.7957747E-01            NaN
         13   -1    0    0    0    0  0.00000000000E+00  0.00000000000E+00  0.74505805969E-08  0.10566000000E+00  0.10566000000E+00 0. -1.
     999900   -1    0    0    0    0 -0.00000000000E+00 -0.00000000000E+00 -0.74505805969E-08  0.93827000000E+00  0.93827000000E+00 0. -1.
     999902    2    1    2    0    0  0.20236694678E-01  0.14655721287E-01  0.19401452904E-02  0.10188685128E+01  0.10185602428E+01 0.  0.
     999903    2    3    3    0    0 -0.71967763204E-01  0.87698836107E-01 -0.58242599102E-01  0.12900396050E+00  0.19477594318E-01 0.  0.
         14    1    1    2    0    0 -0.20236694678E-01 -0.14655721287E-01 -0.19401452904E-02  0.25061487220E-01  0.00000000000E+00 0. -1.
     999901    1    3    3    0    0  0.92204457882E-01 -0.73043114820E-01  0.60182744392E-01  0.88986455228E+00  0.88000000000E+00 0.  1.
        -11    1    4    4    0    0 -0.24442083441E-01  0.30396671634E-01 -0.99247127851E-02  0.40250889856E-01  0.51100000000E-03 0.  1.
         11    1    4    4    0    0 -0.47525679763E-01  0.57302164473E-01 -0.48317886317E-01  0.88753070647E-01  0.51100000000E-03 0. -1.
</event>
<event>
 8    1  0.1084146E+005  0.1043930E+01  0.7957747E-01            NaN
         13   -1    0    0    0    0  0.00000000000E+00  0.00000000000E+00  0.74505805969E-08  0.10566000000E+00  0.10566000000E+00 0.  1.
     999900   -1    0    0    0    0 -0.00000000000E+00 -0.00000000000E+00 -0.74505805969E-08  0.93827000000E+00  0.93827000000E+00 0. -1.
     999902    2    1    2    0    0 -0.95266311345E-02 -0.19881934399E-01  0.87378735874E-02  0.10202150585E+01  0.10199393938E+01 0.  0.
     999903    2    3    3    0    0  0.29963090585E-01 -0.33347934730E-01  0.12243841936E+00  0.13191973293E+00  0.20044397103E-01 0.  0.
         14    1    1    2    0    0  0.95266311345E-02  0.19881934399E-01 -0.87378735874E-02  0.23714941515E-01  0.00000000000E+00 0. -1.
     999901    1    3    3    0    0 -0.39489721720E-01  0.13466000331E-01 -0.11370054577E+00  0.88829532555E+00  0.88000000000E+00 0. -1.
        -11    1    4    4    0    0  0.24665889276E-01 -0.15868964157E-01  0.90366962951E-01  0.95008837648E-01  0.51100000000E-03 0.  1.
         11    1    4    4    0    0  0.52972013094E-02 -0.17478970573E-01  0.32071456404E-01  0.36910895287E-01  0.51100000000E-03 0. -1.
</event>
<event>
 8    1  0.1084146E+005  0.1043930E+01  0.7957747E-01            NaN
         13   -1    0    0    0    0  0.00000000000E+00  0.00000000000E+00  0.74505805969E-08  0.10566000000E+00  0.10566000000E+00 0.  1.
     999900   -1    0    0    0    0 -0.00000000000E+00 -0.00000000000E+00 -0.74505805969E-08  0.93827000000E+00  0.93827000000E+00 0. -1.
     999902    2    1    2    0    0 -0.81371076737E-02  0.16624071677E-01 -0.12389284285E-01  0.10216574464E+01  0.10214146421E+01 0.  0.
     999903    2    3    3    0    0 -0.10266061234E+00  0.66227467143E-01 -0.53671296100E-01  0.13424582019E+00  0.14698757817E-01 0.  0.
         14    1    1    2    0    0  0.81371076737E-02 -0.16624071677E-01  0.12389284285E-01  0.22272553637E-01  0.00000000000E+00 0.  1.
     999901    1    3    3    0    0  0.94523504669E-01 -0.49603395467E-01  0.41282011815E-01  0.88741162618E+00  0.88000000000E+00 0. -1.
        -11    1    4    4    0    0 -0.17993954049E-01  0.54607989580E-02 -0.91125432338E-02  0.20902207366E-01  0.51100000000E-03 0. -1.
         11    1    4    4    0    0 -0.84666658294E-01  0.60766668185E-01 -0.44558752866E-01  0.11334361282E+00  0.51100000000E-03 0.  1.
</event>
<event>
 8    1  0.1429069E+005  0.1043930E+01  0.7957747E-01            NaN
         13   -1    0    0    0    0  0.00000000000E+00  0.00000000000E+00  0.74505805969E-08  0.10566000000E+00  0.10566000000E+00 0. -1.
     999900   -1    0    0    0    0 -0.00000000000E+00 -0.00000000000E+00 -0.74505805969E-08  0.93827000000E+00  0.93827000000E+00 0. -1.
     999902    2    1    2    0    0 -0.91965391209E-02  0.10732273890E-01 -0.19265747893E-01  0.10200359196E+01  0.10197560249E+01 0.  0.
     999903    2    3    3    0    0  0.10301385180E+00 -0.31136080893E-02  0.74408487720E-01  0.12787128085E+00  0.13888599724E-01 0.  0.
         14    1    1    2    0    0  0.91965391209E-02 -0.10732273890E-01  0.19265747893E-01  0.23894080366E-01  0.00000000000E+00 0. -1.
     999901    1    3    3    0    0 -0.11221039093E+00  0.13845881980E-01 -0.93674235614E-01  0.89216463878E+00  0.88000000000E+00 0. -1.
        -11    1    4    4    0    0  0.45991088825E-01  0.54958971397E-02  0.33067932643E-01  0.56913394091E-01  0.51100000000E-03 0.  1.
         11    1    4    4    0    0  0.57022762980E-01 -0.86095052290E-02  0.41340555077E-01  0.70957886759E-01  0.51100000000E-03 0. -1.
</event>
<event>
 8    1  0.1084146E+005  0.1043930E+01  0.7957747E-01            NaN
         13   -1    0    0    0    0  0.00000000000E+00  0.00000000000E+00  0.74505805969E-08  0.10566000000E+00  0.10566000000E+00 0. -1.
     999900   -1    0    0    0    0 -0.00000000000E+00 -0.00000000000E+00 -0.74505805969E-08  0.93827000000E+00  0.93827000000E+00 0.  1.
     999902    2    1    2    0    0  0.10174873202E-01  0.19291542483E-02 -0.20895286102E-01  0.10206091368E+01  0.10203426617E+01 0.  0.
     999903    2    3    3    0    0 -0.23436565706E-01 -0.91639044965E-01  0.84475162905E-01  0.12876404469E+00  0.22296611477E-01 0.  0.
         14    1    1    2    0    0 -0.10174873202E-01 -0.19291542483E-02  0.20895286102E-01  0.23320863235E-01  0.00000000000E+00 0. -1.
     999901    1    3    3    0    0  0.33611438908E-01  0.93568199214E-01 -0.10537044901E+00  0.89184509207E+00  0.88000000000E+00 0. -1.
        -11    1    4    4    0    0 -0.18296403015E-01 -0.44534835530E-01  0.54358369505E-01  0.72616825841E-01  0.51100000000E-03 0.  1.
         11    1    4    4    0    0 -0.51401626913E-02 -0.47104209435E-01  0.30116793400E-01  0.56147218851E-01  0.51100000000E-03 0. -1.
</event>
<event>
 8    1  0.1084146E+005  0.1043930E+01  0.7957747E-01            NaN
         13   -1    0    0    0    0  0.00000000000E+00  0.00000000000E+00  0.74505805969E-08  0.10566000000E+00  0.10566000000E+00 0. -1.
     999900   -1    0    0    0    0 -0.00000000000E+00 -0.00000000000E+00 -0.74505805969E-08  0.93827000000E+00  0.93827000000E+00 0. -1.
     999902    2    1    2    0    0 -0.17529159926E-01 -0.85244353816E-02  0.13018720364E-01  0.10204901936E+01  0.10202209617E+01 0.  0.
     999903    2    3    3    0    0 -0.59713757236E-01  0.10026523773E+00  0.57907274023E-01  0.13165403572E+00  0.18991630686E-01 0.  0.
         14    1    1    2    0    0  0.17529159926E-01  0.85244353816E-02 -0.13018720364E-01  0.23439806445E-01  0.00000000000E+00 0.  1.
     999901    1    3    3    0    0  0.42184597310E-01 -0.10878967311E+00 -0.44888553659E-01  0.88883615784E+00  0.88000000000E+00 0. -1.
        -11    1    4    4    0    0 -0.48572242075E-01  0.79784399059E-01  0.37463033143E-01  0.10064071247E+00  0.51100000000E-03 0. -1.
         11    1    4    4    0    0 -0.11141515162E-01  0.20480838671E-01  0.20444240880E-01  0.31013323248E-01  0.51100000000E-03 0.  1.
</event>
<event>
 8    1  0.1084146E+005  0.1043930E+01  0.7957747E-01            NaN
         13   -1    0    0    0    0  0.00000000000E+00  0.00000000000E+00  0.74505805969E-08  0.10566000000E+00  0.10566000000E+00 0.  1.
     999900   -1    0    0    0    0 -0.00000000000E+00 -0.00000000000E+00 -0.74505805969E-08  0.93827000000E+00  0.93827000000E+00 0.  1.
     999902    2    1    2    0    0 -0.59586912727E-04 -0.19525390328E-01  0.10033981031E-01  0.10219772053E+01  0.10217413973E+01 0.  0.
     999903    2    3    3    0    0 -0.11499391526E+00 -0.47359933159E-01 -0.41710447669E-01  0.13256045965E+00  0.19129824940E-01 0.  0.
         14    1    1    2    0    0  0.59586912727E-04  0.19525390328E-01 -0.10033981031E-01  0.21952794660E-01  0.00000000000E+00 0. -1.
     999901    1    3    3    0    0  0.11493432835E+00  0.27834542831E-01  0.51744428700E-01  0.88941674569E+00  0.88000000000E+00 0.  1.
        -11    1    4    4    0    0 -0.10290572228E+00 -0.47156895105E-01 -0.41156830277E-01  0.12044710969E+00  0.51100000000E-03 0.  1.
         11    1    4    4    0    0 -0.12088192981E-01 -0.20303805448E-03 -0.55361739238E-03  0.12113349959E-01  0.51100000000E-03 0. -1.
</event>
<event>
 8    1  0.1084146E+005  0.1043930E+01  0.7957747E-01            NaN
         13   -1    0    0    0    0  0.00000000000E+00  0.00000000000E+00  0.74505805969E-08  0.10566000000E+00  0.10566000000E+00 0. -1.
     999900   -1    0    0    0    0 -0.00000000000E+00 -0.00000000000E+00 -0.74505805969E-08  0.93827000000E+00  0.93827000000E+00 0. -1.
     999902    2    1    2    0    0 -0.13569674529E-03  0.23508319937E-01 -0.30759913743E-02  0.10202209038E+01  0.10199453766E+01 0.  0.
     999903    2    3    3    0    0 -0.17581674294E-01 -0.91724614393E-01 -0.86147760788E-01  0.12865828112E+00  0.20223660756E-01 0.  0.
         14    1    1    2    0    0  0.13569674529E-03 -0.23508319937E-01  0.30759913743E-02  0.23709096204E-01  0.00000000000E+00 0.  1.
     999901    1    3    3    0    0  0.17445977548E-01  0.11523293433E+00  0.83071769414E-01  0.89156262268E+00  0.88000000000E+00 0.  1.
        -11    1    4    4    0    0 -0.36386401043E-02 -0.67349661422E-01 -0.59515109015E-01  0.89952909444E-01  0.51100000000E-03 0. -1.
         11    1    4    4    0    0 -0.13943034189E-01 -0.24374952971E-01 -0.26632651773E-01  0.38705371671E-01  0.51100000000E-03 0.  1.
</event>
<event>
 8    1  0.1084146E+005  0.1043930E+01  0.7957747E-01            NaN
         13   -1    0    0    0    0  0.00000000000E+00  0.00000000000E+00  0.74505805969E-08  0.10566000000E+00  0.10566000000E+00 0. -1.
     999900   -1    0    0    0    0 -0.00000000000E+00 -0.00000000000E+00 -0.74505805969E-08  0.93827000000E+00  0.93827000000E+00 0. -1.
     999902    2    1    2    0    0 -0.13055407808E-01 -0.20393217976E-01 -0.29328613559E-02  0.10195388400E+01  0.10192470346E+01 0.  0.
     999903    2    3    3    0    0 -0.25856064161E-01  0.12095510994E+00 -0.21729477049E-01  0.12796914590E+00  0.24601980692E-01 0.  0.
         14    1    1    2    0    0  0.13055407808E-01  0.20393217976E-01  0.29328613559E-02  0.24391160042E-01  0.00000000000E+00 0. -1.
     999901    1    3    3    0    0  0.12800656353E-01 -0.14134832792E+00  0.18796615693E-01  0.89156969406E+00  0.88000000000E+00 0.  1.
        -11    1    4    4    0    0 -0.50430407463E-02  0.68218127428E-01 -0.38309806328E-02  0.68513376091E-01  0.51100000000E-03 0. -1.
         11    1    4    4    0    0 -0.20813023415E-01  0.52736982512E-01 -0.17898496416E-01  0.59455769805E-01  0.51100000000E-03 0.  1.
</event>
<event>
 8    1  0.1084146E+005  0.1043930E+01  0.7957747E-01            NaN
         13   -1    0    0    0    0  0.00000000000E+00  0.00000000000E+00  0.74505805969E-08  0.10566000000E+00  0.10566000000E+00 0. -1.
     999900   -1    0    0    0    0 -0.00000000000E+00 -0.00000000000E+00 -0.74505805969E-08  0.93827000000E+00  0.93827000000E+00 0. -1.
     999902    2    1    2    0    0 -0.44336670366E-02  0.20526179212E-01 -0.15015625493E-02  0.10228768262E+01  0.10226601417E+01 0.  0.
     999903    2    3    3    0    0 -0.35620262552E-01  0.26059814556E-01  0.12424898471E+00  0.13337335517E+00  0.20068000112E-01 0.  0.
         14    1    1    2    0    0  0.44336670366E-02 -0.20526179212E-01  0.15015625493E-02  0.21053173788E-01  0.00000000000E+00 0.  1.
     999901    1    3    3    0    0  0.31186595516E-01 -0.55336353435E-02 -0.12575054726E+00  0.88950347104E+00  0.88000000000E+00 0. -1.
        -11    1    4    4    0    0 -0.10752834204E-01  0.15031920121E-01  0.29675476883E-01  0.34963940213E-01  0.51100000000E-03 0.  1.
         11    1    4    4    0    0 -0.24867428348E-01  0.11027894435E-01  0.94573507828E-01  0.98409414957E-01  0.51100000000E-03 0. -1.
</event>
<event>
 8    1  0.1084146E+005  0.1043930E+01  0.7957747E-01            NaN
         13   -1    0    0    0    0  0.00000000000E+00  0.00000000000E+00  0.74505805969E-08  0.10566000000E+00  0.10566000000E+00 0. -1.
     999900   -1    0    0    0    0 -0.00000000000E+00 -0.00000000000E+00 -0.74505805969E-08  0.93827000000E+00  0.93827000000E+00 0.  1.
     999902    2    1    2    0    0 -0.97003522414E-02 -0.15106448133E-01 -0.14681192858E-01  0.10207386431E+01  0.10204751533E+01 0.  0.
     999903    2    3    3    0    0 -0.52648142773E-01 -0.73791493584E-01  0.92671448530E-01  0.13123707661E+00  0.20448996081E-01 0.  0.
         14    1    1    2    0    0  0.97003522414E-02  0.15106448133E-01  0.14681192858E-01  0.23191356850E-01  0.00000000000E+00 0. -1.
     999901    1    3    3    0    0  0.42947790532E-01  0.58685045450E-01 -0.10735264139E+00  0.88950156654E+00  0.88000000000E+00 0.  1.
        -11    1    4    4    0    0 -0.46167957489E-01 -0.49424062271E-01  0.65184356973E-01  0.93933379292E-01  0.51100000000E-03 0. -1.
         11    1    4    4    0    0 -0.64801852838E-02 -0.24367431313E-01  0.27487091556E-01  0.37303697314E-01  0.51100000000E-03 0.  1.
</event>
<event>
 8    1  0.1084146E+005  0.1043930E+01  0.7957747E-01            NaN
         13   -1    0    0    0    0  0.00000000000E+00  0.00000000000E+00  0.74505805969E-08  0.10566000000E+00  0.10566000000E+00 0. -1.
     999900   -1    0    0    0    0 -0.00000000000E+00 -0.00000000000E+00 -0.74505805969E-08  0.93827000000E+00  0.93827000000E+00 0.  1.
     999902    2    1    2    0    0 -0.85352936971E-02  0.44874000752E-02  0.21955424696E-01  0.10199502445E+01  0.10196683150E+01 0.  0.
     999903    2    3    3    0    0 -0.68325550655E-01 -0.92832747595E-01 -0.54760588477E-01  0.12925869713E+00  0.20561829554E-01 0.  0.
         14    1    1    2    0    0  0.85352936971E-02 -0.44874000752E-02 -0.21955424696E-01  0.23979755451E-01  0.00000000000E+00 0.  1.
     999901    1    3    3    0    0  0.59790256958E-01  0.97320147670E-01  0.76716013173E-01  0.89069154742E+00  0.88000000000E+00 0. -1.
        -11    1    4    4    0    0 -0.56099353182E-01 -0.61527025276E-01 -0.42466247723E-01  0.93468473741E-01  0.51100000000E-03 0. -1.
         11    1    4    4    0    0 -0.12226197474E-01 -0.31305722318E-01 -0.12294340754E-01  0.35790223387E-01  0.51100000000E-03 0.  1.
</event>
<event>
 8    1  0.1084146E+005  0.1043930E+01  0.7957747E-01            NaN
         13   -1    0    0    0    0  0.00000000000E+00  0.00000000000E+00  0.74505805969E-08  0.10566000000E+00  0.10566000000E+00 0.  1.
     999900   -1    0    0    0    0 -0.00000000000E+00 -0.00000000000E+00 -0.74505805969E-08  0.93827000000E+00  0.93827000000E+00 0.  1.
     999902    2    1    2    0    0  0.34489586968E-02  0.14000425947E-01  0.18819012119E-01  0.10202221435E+01  0.10199466455E+01 0.  0.
     999903    2    3    3    0    0 -0.23842964121E-01  0.11203419329E+00  0.64917869748E-01  0.13315925212E+00  0.19922580354E-01 0.  0.
         14    1    1    2    0    0 -0.34489586968E-02 -0.14000425947E-01 -0.18819012119E-01  0.23707856502E-01  0.00000000000E+00 0. -1.
     999901    1    3    3    0    0  0.27291922818E-01 -0.98033767342E-01 -0.46098857629E-01  0.88706289138E+00  0.88000000000E+00 0. -1.
        -11    1    4    4    0    0 -0.18397683052E-01  0.80156191018E-01  0.36011543995E-01  0.89780744718E-01  0.51100000000E-03 0.  1.
         11    1    4    4    0    0 -0.54452810692E-02  0.31878002271E-01  0.28906325753E-01  0.43378507400E-01  0.51100000000E-03 0. -1.
</event>
<event>
 8    1  0.1084146E+005  0.1043930E+01  0.7957747E-01            NaN
         13   -1    0    0    0    0  0.00000000000E+00  0.00000000000E+00  0.74505805969E-08  0.10566000000E+00  0.10566000000E+00 0. -1.
     999900   -1    0    0    0    0 -0.00000000000E+00 -0.00000000000E+00 -0.74505805969E-08  0.93827000000E+00  0.93827000000E+00 0.  1.
     999902    2    1    2    0    0  0.86806108299E-02  0.21688048265E-01  0.34883846352E-02  0.10203102356E+01  0.10200368050E+01 0.  0.
     999903    2    3    3    0    0 -0.86436844523E-01  0.77425922212E-01  0.58624135021E-01  0.13171922066E+00  0.21143849271E-01 0.  0.
         14    1    1    2    0    0 -0.86806108299E-02 -0.21688048265E-01 -0.34883846352E-02  0.23619764378E-01  0.00000000000E+00 0.  1.
     999901    1    3    3    0    0  0.95117455353E-01 -0.55737873947E-01 -0.55135750386E-01  0.88859101496E+00  0.88000000000E+00 0. -1.
        -11    1    4    4    0    0 -0.50120945233E-01  0.33088339199E-01  0.23471053552E-01  0.64483322014E-01  0.51100000000E-03 0. -1.
         11    1    4    4    0    0 -0.36315899290E-01  0.44337583013E-01  0.35153081469E-01  0.67235898644E-01  0.51100000000E-03 0.  1.
</event>
<event>
 8    1  0.1084146E+005  0.1043930E+01  0.7957747E-01            NaN
         13   -1    0    0    0    0  0.00000000000E+00  0.00000000000E+00  0.74505805969E-08  0.10566000000E+00  0.10566000000E+00 0. -1.
     999900   -1    0    0    0    0 -0.00000000000E+00 -0.00000000000E+00 -0.74505805969E-08  0.93827000000E+00  0.93827000000E+00 0. -1.
     999902    2    1    2    0    0  0.40009914916E-02  0.22043233029E-02 -0.23327199678E-01  0.10201597409E+01  0.10198827735E+01 0.  0.
     999903    2    3    3    0    0  0.56169252859E-02 -0.11731901357E+00 -0.55469138372E-01  0.13149695695E+00  0.20477391946E-01 0.  0.
         14    1    1    2    0    0 -0.40009914916E-02 -0.22043233029E-02  0.23327199678E-01  0.23770259127E-01  0.00000000000E+00 0. -1.
     999901    1    3    3    0    0 -0.16159337943E-02  0.11952333688E+00  0.32141938693E-01  0.88866278392E+00  0.88000000000E+00 0.  1.
        -11    1    4    4    0    0  0.88536767606E-02 -0.10609167781E+00 -0.54909248285E-01  0.11978780556E+00  0.51100000000E-03 0.  1.
         11    1    4    4    0    0 -0.32367514747E-02 -0.11227335759E-01 -0.55989008622E-03  0.11709151389E-01  0.51100000000E-03 0. -1.
</event>
<event>
 8    1  0.1084146E+005  0.1043930E+01  0.7957747E-01            NaN
         13   -1    0    0    0    0  0.00000000000E+00  0.00000000000E+00  0.74505805969E-08  0.10566000000E+00  0.10566000000E+00 0. -1.
     999900   -1    0    0    0    0 -0.00000000000E+00 -0.00000000000E+00 -0.74505805969E-08  0.93827000000E+00  0.93827000000E+00 0.  1.
     999902    2    1    2    0    0  0.19381688230E-02 -0.23928782316E-01 -0.21795512913E-03  0.10199218633E+01  0.10196392581E+01 0.  0.
     999903    2    3    3    0    0 -0.21889627353E-01  0.16408799180E-03 -0.12679397818E+00  0.13021982339E+00  0.20032643145E-01 0.  0.
         14    1    1    2    0    0 -0.19381688230E-02  0.23928782316E-01  0.21795512913E-03  0.24008136662E-01  0.00000000000E+00 0. -1.
     999901    1    3    3    0    0  0.23827796176E-01 -0.24092870308E-01  0.12657602305E+00  0.88970203994E+00  0.88000000000E+00 0. -1.
        -11    1    4    4    0    0 -0.41600377095E-02  0.88757149074E-02 -0.47163914947E-01  0.48174476884E-01  0.51100000000E-03 0.  1.
         11    1    4    4    0    0 -0.17729589644E-01 -0.87116269156E-02 -0.79630063233E-01  0.82045346510E-01  0.51100000000E-03 0. -1.
</event>
<event>
 8    1  0.1084146E+005  0.1043930E+01  0.7957747E-01            NaN
         13   -1    0    0    0    0  0.00000000000E+00  0.00000000000E+00  0.74505805969E-08  0.10566000000E+00  0.10566000000E+00 0. -1.
     999900   -1    0    0    0    0 -0.00000000000E+00 -0.00000000000E+00 -0.74505805969E-08  0.93827000000E+00  0.93827000000E+00 0.  1.
     999902    2    1    2    0    0  0.26916386882E-01  0.28938469399E-02  0.38504521596E-02  0.10165860388E+01  0.10162182256E+01 0.  0.
     999903    2    3    3    0    0 -0.73099850188E-01 -0.81725490452E-01 -0.56756899396E-01  0.12482545937E+00  0.18368608858E-01 0.  0.
         14    1    1    2    0    0 -0.26916386882E-01 -0.28938469399E-02 -0.38504521596E-02  0.27343961212E-01  0.00000000000E+00 0.  1.
     999901    1    3    3    0    0  0.10001623707E+00  0.84619337392E-01  0.60607351556E-01  0.89176057942E+00  0.88000000000E+00 0. -1.
        -11    1    4    4    0    0 -0.47952367945E-01 -0.64351523302E-01 -0.36585607035E-01  0.88200430305E-01  0.51100000000E-03 0. -1.
         11    1    4    4    0    0 -0.25147482242E-01 -0.17373967150E-01 -0.20171292362E-01  0.36625029068E-01  0.51100000000E-03 0.  1.
</event>
<event>
 8    1  0.1084146E+005  0.1043930E+01  0.7957747E-01            NaN
         13   -1    0    0    0    0  0.00000000000E+00  0.00000000000E+00  0.74505805969E-08  0.10566000000E+00  0.10566000000E+00 0. -1.
     999900   -1    0    0    0    0 -0.00000000000E+00 -0.00000000000E+00 -0.74505805969E-08  0.93827000000E+00  0.93827000000E+00 0.  1.
     999902    2    1    2    0    0  0.98645290557E-02  0.19687183934E-01  0.82646140632E-02  0.10204098386E+01  0.10201387361E+01 0.  0.
     999903    2    3    3    0    0 -0.22024037728E-01 -0.10198244966E+00  0.73444651950E-01  0.12908003561E+00  0.19546365838E-01 0.  0.
         14    1    1    2    0    0 -0.98645290557E-02 -0.19687183934E-01 -0.82646140632E-02  0.23520161359E-01  0.00000000000E+00 0.  1.
     999901    1    3    3    0    0  0.31888566784E-01  0.12166963359E+00 -0.65180037887E-01  0.89132980303E+00  0.88000000000E+00 0.  1.
        -11    1    4    4    0    0 -0.20230357829E-01 -0.53111901751E-01  0.33832379604E-01  0.66144028576E-01  0.51100000000E-03 0.  1.
         11    1    4    4    0    0 -0.17936798988E-02 -0.48870547905E-01  0.39612272346E-01  0.62936007035E-01  0.51100000000E-03 0. -1.
</event>
<event>
 8    1  0.1084146E+005  0.1043930E+01  0.7957747E-01            NaN
         13   -1    0    0    0    0  0.00000000000E+00  0.00000000000E+00  0.74505805969E-08  0.10566000000E+00  0.10566000000E+00 0. -1.
     999900   -1    0    0    0    0 -0.00000000000E+00 -0.00000000000E+00 -0.74505805969E-08  0.93827000000E+00  0.93827000000E+00 0. -1.
     999902    2    1    2    0    0 -0.19657216339E-01 -0.10591899491E-01  0.77560690903E-02  0.10202920835E+01  0.10200182276E+01 0.  0.
     999903    2    3    3    0    0 -0.17227716948E-01 -0.52478387041E-01  0.11871975317E+00  0.13233188197E+00  0.19146066274E-01 0.  0.
         14    1    1    2    0    0  0.19657216339E-01  0.10591899491E-01 -0.77560690903E-02  0.23637916507E-01  0.00000000000E+00 0.  1.
     999901    1    3    3    0    0 -0.24294993911E-02  0.41886487550E-01 -0.11096368408E+00  0.88796020152E+00  0.88000000000E+00 0. -1.
        -11    1    4    4    0    0  0.15268252259E-02 -0.25675126645E-01  0.50753677929E-01  0.56901144697E-01  0.51100000000E-03 0.  1.
         11    1    4    4    0    0 -0.18754542174E-01 -0.26803260397E-01  0.67966075246E-01  0.75430737272E-01  0.51100000000E-03 0. -1.
</event>
<event>
 8    1  0.1084146E+005  0.1043930E+01  0.7957747E-01            NaN
         13   -1    0    0    0    0  0.00000000000E+00  0.00000000000E+00  0.74505805969E-08  0.10566000000E+00  0.10566000000E+00 0. -1.
     999900   -1    0    0    0    0 -0.00000000000E+00 -0.00000000000E+00 -0.74505805969E-08  0.93827000000E+00  0.93827000000E+00 0.  1.
     999902    2    1    2    0    0 -0.25423590503E-02  0.23388063749E-01 -0.20310252782E-02  0.10203166525E+01  0.10200433722E+01 0.  0.
     999903    2    3    3    0    0  0.10555439888E+00 -0.24923043502E-01  0.67613599100E-01  0.12966001505E+00  0.21845628869E-01 0.  0.
         14    1    1    2    0    0  0.25423590503E-02 -0.23388063749E-01  0.20310252782E-02  0.23613347479E-01  0.00000000000E+00 0.  1.
     999901    1    3    3    0    0 -0.10809675793E+00  0.48311107251E-01 -0.69644624379E-01  0.89065663747E+00  0.88000000000E+00 0.  1.
        -11    1    4    4    0    0  0.59216871039E-01 -0.21787295949E-01  0.29875326725E-01  0.69814900618E-01  0.51100000000E-03 0.  1.
         11    1    4    4    0    0  0.46337527839E-01 -0.31357475522E-02  0.37738272376E-01  0.59845114436E-01  0.51100000000E-03 0. -1.
</event>
<event>
 8    1  0.1084146E+005  0.1043930E+01  0.7957747E-01            NaN
         13   -1    0    0    0    0  0.00000000000E+00  0.00000000000E+00  0.74505805969E-08  0.10566000000E+00  0.10566000000E+00 0. -1.
     999900   -1    0    0    0    0 -0.00000000000E+00 -0.00000000000E+00 -0.74505805969E-08  0.93827000000E+00  0.93827000000E+00 0.  1.
     999902    2    1    2    0    0  0.57044665643E-02  0.22862901605E-01 -0.85403972866E-02  0.10188662494E+01  0.10185579230E+01 0.  0.
     999903    2    3    3    0    0  0.57461833491E-01 -0.84303038342E-02 -0.11493716134E+00  0.13039657566E+00  0.20488620169E-01 0.  0.
         14    1    1    2    0    0 -0.57044665643E-02 -0.22862901605E-01  0.85403972866E-02  0.25063750605E-01  0.00000000000E+00 0. -1.
     999901    1    3    3    0    0 -0.51757366927E-01  0.31293205439E-01  0.10639676406E+00  0.88846967373E+00  0.88000000000E+00 0. -1.
        -11    1    4    4    0    0  0.45037498598E-01 -0.80703796740E-02 -0.68914682820E-01  0.82722439139E-01  0.51100000000E-03 0.  1.
         11    1    4    4    0    0  0.12424334893E-01 -0.35992416020E-03 -0.46022478523E-01  0.47674136524E-01  0.51100000000E-03 0. -1.
</event>
<event>
 8    1  0.1084146E+005  0.1043930E+01  0.7957747E-01            NaN
         13   -1    0    0    0    0  0.00000000000E+00  0.00000000000E+00  0.74505805969E-08  0.10566000000E+00  0.10566000000E+00 0.  1.
     999900   -1    0    0    0    0 -0.00000000000E+00 -0.00000000000E+00 -0.74505805969E-08  0.93827000000E+00  0.93827000000E+00 0. -1.
     999902    2    1    2    0    0  0.95151313418E-02  0.10834370911E-01 -0.15047806934E-01  0.10230887474E+01  0.10228764477E+01 0.  0.
     999903    2    3    3    0    0  0.12603203041E+00  0.83248306875E-02 -0.42899528661E-01  0.13496814522E+00  0.20558579003E-01 0.  0.
         14    1    1    2    0    0 -0.95151313418E-02 -0.10834370911E-01  0.15047806934E-01  0.20841252626E-01  0.00000000000E+00 0. -1.
     999901    1    3    3    0    0 -0.11651689907E+00  0.25095402238E-02  0.27851721728E-01  0.88812060215E+00  0.88000000000E+00 0. -1.
        -11    1    4    4    0    0  0.34284775535E-01  0.32522697505E-04 -0.21237710690E-01  0.40332968742E-01  0.51100000000E-03 0.  1.
         11    1    4    4    0    0  0.91747254876E-01  0.82923079900E-02 -0.21661817971E-01  0.94635176482E-01  0.51100000000E-03 0. -1.
</event>
<event>
 8    1  0.1210795E+005  0.1043930E+01  0.7957747E-01            NaN
         13   -1    0    0    0    0  0.00000000000E+00  0.00000000000E+00  0.74505805969E-08  0.10566000000E+00  0.10566000000E+00 0. -1.
     999900   -1    0    0    0    0 -0.00000000000E+00 -0.00000000000E+00 -0.74505805969E-08  0.93827000000E+00  0.93827000000E+00 0. -1.
     999902    2    1    2    0    0 -0.80913463948E-02  0.22016660142E-01  0.34135398556E-02  0.10202265094E+01  0.10199511141E+01 0.  0.
     999903    2    3    3    0    0  0.56925420925E-01  0.30048541363E-01  0.11249197968E+00  0.13107534278E+00  0.19567360728E-01 0.  0.
         14    1    1    2    0    0  0.80913463948E-02 -0.22016660142E-01 -0.34135398556E-02  0.23703490558E-01  0.00000000000E+00 0.  1.
     999901    1    3    3    0    0 -0.65016767320E-01 -0.80318812218E-02 -0.10907843983E+00  0.88915116667E+00  0.88000000000E+00 0. -1.
        -11    1    4    4    0    0  0.22002246369E-01  0.22405069636E-01  0.48743959407E-01  0.57985521385E-01  0.51100000000E-03 0.  1.
         11    1    4    4    0    0  0.34923174556E-01  0.76434717275E-02  0.63748020274E-01  0.73089821391E-01  0.51100000000E-03 0. -1.
</event>
<event>
 8    1  0.1084146E+005  0.1043930E+01  0.7957747E-01            NaN
         13   -1    0    0    0    0  0.00000000000E+00  0.00000000000E+00  0.74505805969E-08  0.10566000000E+00  0.10566000000E+00 0.  1.
     999900   -1    0    0    0    0 -0.00000000000E+00 -0.00000000000E+00 -0.74505805969E-08  0.93827000000E+00  0.93827000000E+00 0. -1.
     999902    2    1    2    0    0  0.17350019842E-01  0.12307823724E-01 -0.15361498684E-02  0.10226024247E+01  0.10223799946E+01 0.  0.
     999903    2    3    3    0    0 -0.85420879928E-01 -0.94492788106E-01 -0.17019432430E-01  0.13007345563E+00  0.20095498186E-01 0.  0.
         14    1    1    2    0    0 -0.17350019842E-01 -0.12307823724E-01  0.15361498684E-02  0.21327575337E-01  0.00000000000E+00 0.  1.
     999901    1    3    3    0    0  0.10277089977E+00  0.10680061183E+00  0.15483282561E-01  0.89252896903E+00  0.88000000000E+00 0. -1.
        -11    1    4    4    0    0 -0.18809458459E-02 -0.97682645295E-02 -0.89671835689E-03  0.10001108639E-01  0.51100000000E-03 0.  1.
         11    1    4    4    0    0 -0.83539934082E-01 -0.84724523576E-01 -0.16122714073E-01  0.12007234699E+00  0.51100000000E-03 0. -1.
</event>
<event>
 8    1  0.1084146E+005  0.1043930E+01  0.7957747E-01            NaN
         13   -1    0    0    0    0  0.00000000000E+00  0.00000000000E+00  0.74505805969E-08  0.10566000000E+00  0.10566000000E+00 0.  1.
     999900   -1    0    0    0    0 -0.00000000000E+00 -0.00000000000E+00 -0.74505805969E-08  0.93827000000E+00  0.93827000000E+00 0. -1.
     999902    2    1    2    0    0 -0.12045659309E-01  0.18340861854E-01 -0.94347026648E-02  0.10200448846E+01  0.10197652024E+01 0.  0.
     999903    2    3    3    0    0  0.48582564512E-01 -0.11025409684E+00 -0.38768610366E-01  0.12815199697E+00  0.20092230639E-01 0.  0.
         14    1    1    2    0    0  0.12045659309E-01 -0.18340861854E-01  0.94347026648E-02  0.23885115367E-01  0.00000000000E+00 0.  1.
     999901    1    3    3    0    0 -0.60628223822E-01  0.12859495870E+00  0.29333907701E-01  0.89189288766E+00  0.88000000000E+00 0. -1.
        -11    1    4    4    0    0  0.57329314682E-02 -0.27827111370E-01 -0.28862570970E-02  0.28562321884E-01  0.51100000000E-03 0. -1.
         11    1    4    4    0    0  0.42849633044E-01 -0.82426985473E-01 -0.35882353269E-01  0.99589675084E-01  0.51100000000E-03 0.  1.
</event>
<event>
 8    1  0.1084146E+005  0.1043930E+01  0.7957747E-01            NaN
         13   -1    0    0    0    0  0.00000000000E+00  0.00000000000E+00  0.74505805969E-08  0.10566000000E+00  0.10566000000E+00 0.  1.
     999900   -1    0    0    0    0 -0.00000000000E+00 -0.00000000000E+00 -0.74505805969E-08  0.93827000000E+00  0.93827000000E+00 0. -1.
     999902    2    1    2    0    0  0.16626433915E-01  0.17803304120E-01 -0.62142399241E-02  0.10187901368E+01  0.10184799115E+01 0.  0.
     999903    2    3    3    0    0  0.88090506027E-01 -0.82938440826E-01  0.39773069791E-01  0.12897507434E+00  0.20345773571E-01 0.  0.
         14    1    1    2    0    0 -0.16626433915E-01 -0.17803304120E-01  0.62142399241E-02  0.25139863169E-01  0.00000000000E+00 0. -1.
     999901    1    3    3    0    0 -0.71464072113E-01  0.10074174495E+00 -0.45987309715E-01  0.88981506249E+00  0.88000000000E+00 0. -1.
        -11    1    4    4    0    0  0.29171923923E-01 -0.16697538716E-01  0.15754679159E-01  0.37125193346E-01  0.51100000000E-03 0. -1.
         11    1    4    4    0    0  0.58918582104E-01 -0.66240902111E-01  0.24018390632E-01  0.91849880997E-01  0.51100000000E-03 0.  1.
</event>
<event>
 8    1  0.1084146E+005  0.1043930E+01  0.7957747E-01            NaN
         13   -1    0    0    0    0  0.00000000000E+00  0.00000000000E+00  0.74505805969E-08  0.10566000000E+00  0.10566000000E+00 0.  1.
     999900   -1    0    0    0    0 -0.00000000000E+00 -0.00000000000E+00 -0.74505805969E-08  0.93827000000E+00  0.93827000000E+00 0.  1.
     999902    2    1    2    0    0  0.19918474290E-01 -0.81707802437E-02  0.57294017171E-02  0.10216514607E+01  0.10214085245E+01 0.  0.
     999903    2    3    3    0    0  0.12141335670E-01 -0.10152481190E+00 -0.81201431569E-01  0.13242009102E+00  0.22061472160E-01 0.  0.
         14    1    1    2    0    0 -0.19918474290E-01  0.81707802437E-02 -0.57294017171E-02  0.22278539267E-01  0.00000000000E+00 0. -1.
     999901    1    3    3    0    0  0.77771386197E-02  0.93354031652E-01  0.86930833286E-01  0.88923136972E+00  0.88000000000E+00 0. -1.
        -11    1    4    4    0    0  0.12780127993E-01 -0.41232604368E-01 -0.43610732711E-01  0.61364618984E-01  0.51100000000E-03 0.  1.
         11    1    4    4    0    0 -0.63879232292E-03 -0.60292207528E-01 -0.37590698857E-01  0.71055472033E-01  0.51100000000E-03 0. -1.
</event>
<event>
 8    1  0.1084146E+005  0.1043930E+01  0.7957747E-01            NaN
         13   -1    0    0    0    0  0.00000000000E+00  0.00000000000E+00  0.74505805969E-08  0.10566000000E+00  0.10566000000E+00 0. -1.
     999900   -1    0    0    0    0 -0.00000000000E+00 -0.00000000000E+00 -0.74505805969E-08  0.93827000000E+00  0.93827000000E+00 0. -1.
     999902    2    1    2    0    0 -0.56398898756E-02 -0.20962886226E-01  0.80105976736E-02  0.10207908420E+01  0.10205285506E+01 0.  0.
     999903    2    3    3    0    0  0.35409578353E-01 -0.11658677345E+00 -0.49155680753E-01  0.13281732325E+00  0.19438272154E-01 0.  0.
         14    1    1    2    0    0  0.56398898756E-02  0.20962886226E-01 -0.80105976736E-02  0.23139157976E-01  0.00000000000E+00 0.  1.
     999901    1    3    3    0    0 -0.41049468229E-01  0.95623887220E-01  0.57166278427E-01  0.88797351877E+00  0.88000000000E+00 0.  1.
        -11    1    4    4    0    0  0.16031508818E-01 -0.80365831619E-01 -0.37434737394E-01  0.90096042375E-01  0.51100000000E-03 0. -1.
         11    1    4    4    0    0  0.19378069535E-01 -0.36220941826E-01 -0.11720943359E-01  0.42721280879E-01  0.51100000000E-03 0.  1.
</event>
<event>
 8    1  0.1084146E+005  0.1043930E+01  0.7957747E-01            NaN
         13   -1    0    0    0    0  0.00000000000E+00  0.00000000000E+00  0.74505805969E-08  0.10566000000E+00  0.10566000000E+00 0.  1.
     999900   -1    0    0    0    0 -0.00000000000E+00 -0.00000000000E+00 -0.74505805969E-08  0.93827000000E+00  0.93827000000E+00 0.  1.
     999902    2    1    2    0    0  0.12071021168E-01 -0.94212800040E-02 -0.19592405084E-01  0.10190637094E+01  0.10187602817E+01 0.  0.
     999903    2    3    3    0    0 -0.93600635992E-01 -0.22818103177E-01 -0.85244027557E-01  0.13021270420E+00  0.20175708399E-01 0.  0.
         14    1    1    2    0    0 -0.12071021168E-01  0.94212800040E-02  0.19592405084E-01  0.24866290554E-01  0.00000000000E+00 0.  1.
     999901    1    3    3    0    0  0.10567165716E+00  0.13396823173E-01  0.65651622473E-01  0.88885100525E+00  0.88000000000E+00 0. -1.
        -11    1    4    4    0    0 -0.80714484485E-01 -0.20798226923E-01 -0.81633399995E-01  0.11666905059E+00  0.51100000000E-03 0.  1.
         11    1    4    4    0    0 -0.12886151507E-01 -0.20198762538E-02 -0.36106275621E-02  0.13543653611E-01  0.51100000000E-03 0. -1.
</event>
<event>
 8    1  0.1084146E+005  0.1043930E+01  0.7957747E-01            NaN
         13   -1    0    0    0    0  0.00000000000E+00  0.00000000000E+00  0.74505805969E-08  0.10566000000E+00  0.10566000000E+00 0.  1.
     999900   -1    0    0    0    0 -0.00000000000E+00 -0.00000000000E+00 -0.74505805969E-08  0.93827000000E+00  0.93827000000E+00 0.  1.
     999902    2    1    2    0    0  0.11518151956E-01  0.14387023013E-01 -0.14106257928E-01  0.10207213644E+01  0.10204574773E+01 0.  0.
     999903    2    3    3    0    0 -0.86033433173E-01  0.97134568544E-01 -0.97605475505E-02  0.13146192345E+00  0.18710772239E-01 0.  0.
         14    1    1    2    0    0 -0.11518151956E-01 -0.14387023013E-01  0.14106257928E-01  0.23208635643E-01  0.00000000000E+00 0.  1.
     999901    1    3    3    0    0  0.97551585129E-01 -0.82747545530E-01 -0.43457103773E-02  0.88925944091E+00  0.88000000000E+00 0.  1.
        -11    1    4    4    0    0 -0.75191265465E-01  0.77415054832E-01 -0.30158686889E-02  0.10796376106E+00  0.51100000000E-03 0. -1.
         11    1    4    4    0    0 -0.10842167708E-01  0.19719513712E-01 -0.67446788616E-02  0.23498162388E-01  0.51100000000E-03 0.  1.
</event>
<event>
 8    1  0.1084146E+005  0.1043930E+01  0.7957747E-01            NaN
         13   -1    0    0    0    0  0.00000000000E+00  0.00000000000E+00  0.74505805969E-08  0.10566000000E+00  0.10566000000E+00 0.  1.
     999900   -1    0    0    0    0 -0.00000000000E+00 -0.00000000000E+00 -0.74505805969E-08  0.93827000000E+00  0.93827000000E+00 0.  1.
     999902    2    1    2    0    0 -0.13236729857E-01  0.14591891640E-01  0.99375170848E-02  0.10218644485E+01  0.10216261853E+01 0.  0.
     999903    2    3    3    0    0 -0.85431936279E-01 -0.36394725003E-01  0.93808583649E-01  0.13346918805E+00  0.19768208032E-01 0.  0.
         14    1    1    2    0    0  0.13236729857E-01 -0.14591891640E-01 -0.99375170848E-02  0.22065551540E-01  0.00000000000E+00 0. -1.
     999901    1    3    3    0    0  0.72195206422E-01  0.50986616644E-01 -0.83871066564E-01  0.88839526041E+00  0.88000000000E+00 0.  1.
        -11    1    4    4    0    0 -0.34033314466E-01 -0.89126595919E-02  0.24319652294E-01  0.42771586401E-01  0.51100000000E-03 0. -1.
         11    1    4    4    0    0 -0.51398621813E-01 -0.27482065411E-01  0.69488931355E-01  0.90697601652E-01  0.51100000000E-03 0.  1.
</event>
<event>
 8    1  0.1084146E+005  0.1043930E+01  0.7957747E-01            NaN
         13   -1    0    0    0    0  0.00000000000E+00  0.00000000000E+00  0.74505805969E-08  0.10566000000E+00  0.10566000000E+00 0.  1.
     999900   -1    0    0    0    0 -0.00000000000E+00 -0.00000000000E+00 -0.74505805969E-08  0.93827000000E+00  0.93827000000E+00 0.  1.
     999902    2    1    2    0    0 -0.17530414390E-01 -0.86620366490E-02 -0.15823337798E-01  0.10187759879E+01  0.10184654089E+01 0.  0.
     999903    2    3    3    0    0 -0.69690996177E-02 -0.11200627550E+00 -0.64648937080E-01  0.13132147510E+00  0.21722584044E-01 0.  0.
         14    1    1    2    0    0  0.17530414390E-01  0.86620366490E-02  0.15823337798E-01  0.25154012138E-01  0.00000000000E+00 0.  1.
     999901    1    3    3    0    0 -0.10561314772E-01  0.10334423885E+00  0.48825599282E-01  0.88745451276E+00  0.88000000000E+00 0. -1.
        -11    1    4    4    0    0 -0.10432265533E-01 -0.28969567698E-01 -0.22464860024E-01  0.38118224955E-01  0.51100000000E-03 0. -1.
         11    1    4    4    0    0  0.34631659158E-02 -0.83036707798E-01 -0.42184077055E-01  0.93203250147E-01  0.51100000000E-03 0.  1.
</event>
<event>
 8    1  0.1084146E+005  0.1043930E+01  0.7957747E-01            NaN
         13   -1    0    0    0    0  0.00000000000E+00  0.00000000000E+00  0.74505805969E-08  0.10566000000E+00  0.10566000000E+00 0. -1.
     999900   -1    0    0    0    0 -0.00000000000E+00 -0.00000000000E+00 -0.74505805969E-08  0.93827000000E+00  0.93827000000E+00 0. -1.
     999902    2    1    2    0    0  0.18691422393E-01  0.85041419107E-02 -0.11792086832E-01  0.10202499871E+01  0.10199751434E+01 0.  0.
     999903    2    3    3    0    0  0.61525049976E-01  0.89513990678E-01  0.71932669043E-01  0.13153903856E+00  0.18169300692E-01 0.  0.
         14    1    1    2    0    0 -0.18691422393E-01 -0.85041419107E-02  0.11792086832E-01  0.23680012935E-01  0.00000000000E+00 0.  1.
     999901    1    3    3    0    0 -0.42833627583E-01 -0.81009848767E-01 -0.83724755876E-01  0.88871094851E+00  0.88000000000E+00 0. -1.
        -11    1    4    4    0    0  0.60117754450E-02  0.16482494269E-01  0.59326299057E-02  0.18527581600E-01  0.51100000000E-03 0.  1.
         11    1    4    4    0    0  0.55513274531E-01  0.73031496409E-01  0.66000039138E-01  0.11301145696E+00  0.51100000000E-03 0. -1.
</event>
<event>
 8    1  0.1084146E+005  0.1043930E+01  0.7957747E-01            NaN
         13   -1    0    0    0    0  0.00000000000E+00  0.00000000000E+00  0.74505805969E-08  0.10566000000E+00  0.10566000000E+00 0. -1.
     999900   -1    0    0    0    0 -0.00000000000E+00 -0.00000000000E+00 -0.74505805969E-08  0.93827000000E+00  0.93827000000E+00 0.  1.
     999902    2    1    2    0    0  0.11885756083E-01 -0.19842180888E-01  0.56732990680E-02  0.10201146759E+01  0.10198366449E+01 0.  0.
     999903    2    3    3    0    0 -0.84977845787E-02  0.12582747200E+00  0.82569724191E-02  0.12790292307E+00  0.19652355715E-01 0.  0.
         14    1    1    2    0    0 -0.11885756083E-01  0.19842180888E-01 -0.56732990680E-02  0.23815324108E-01  0.00000000000E+00 0. -1.
     999901    1    3    3    0    0  0.20383540662E-01 -0.14566965288E+00 -0.25836733511E-02  0.89221175282E+00  0.88000000000E+00 0.  1.
        -11    1    4    4    0    0 -0.14033052869E-01  0.10706963853E+00  0.86735293529E-02  0.10833432189E+00  0.51100000000E-03 0. -1.
         11    1    4    4    0    0  0.55352682904E-02  0.18757833468E-01 -0.41655693382E-03  0.19568601180E-01  0.51100000000E-03 0.  1.
</event>
<event>
 8    1  0.1084146E+005  0.1043930E+01  0.7957747E-01            NaN
         13   -1    0    0    0    0  0.00000000000E+00  0.00000000000E+00  0.74505805969E-08  0.10566000000E+00  0.10566000000E+00 0.  1.
     999900   -1    0    0    0    0 -0.00000000000E+00 -0.00000000000E+00 -0.74505805969E-08  0.93827000000E+00  0.93827000000E+00 0. -1.
     999902    2    1    2    0    0 -0.55787228544E-02 -0.89818113064E-03 -0.22646212349E-01  0.10205894813E+01  0.10203225517E+01 0.  0.
     999903    2    3    3    0    0  0.90085399761E-01 -0.48117336430E-01 -0.81300385481E-01  0.13220804016E+00  0.20941726032E-01 0.  0.
         14    1    1    2    0    0  0.55787228544E-02  0.89818113064E-03  0.22646212349E-01  0.23340518670E-01  0.00000000000E+00 0.  1.
     999901    1    3    3    0    0 -0.95664122616E-01  0.47219155299E-01  0.58654173132E-01  0.88838144117E+00  0.88000000000E+00 0.  1.
        -11    1    4    4    0    0  0.20742735988E-01 -0.14182291663E-01 -0.97813406924E-02  0.26969134948E-01  0.51100000000E-03 0. -1.
         11    1    4    4    0    0  0.69342663773E-01 -0.33935044767E-01 -0.71519044789E-01  0.10523890522E+00  0.51100000000E-03 0.  1.
</event>
<event>
 8    1  0.1084146E+005  0.1043930E+01  0.7957747E-01            NaN
         13   -1    0    0    0    0  0.00000000000E+00  0.00000000000E+00  0.74505805969E-08  0.10566000000E+00  0.10566000000E+00 0.  1.
     999900   -1    0    0    0    0 -0.00000000000E+00 -0.00000000000E+00 -0.74505805969E-08  0.93827000000E+00  0.93827000000E+00 0.  1.
     999902    2    1    2    0    0  0.56743597462E-02 -0.17393624881E-02 -0.22774688785E-01  0.10203947033E+01  0.10201232476E+01 0.  0.
     999903    2    3    3    0    0 -0.22783004326E-01  0.20228155480E-01 -0.12708883353E+00  0.13350472469E+00  0.27270796575E-01 0.  0.
         14    1    1    2    0    0 -0.56743597462E-02  0.17393624881E-02  0.22774688785E-01  0.23535296676E-01  0.00000000000E+00 0.  1.
     999901    1    3    3    0    0  0.28457364072E-01 -0.21967517968E-01  0.10431414474E+00  0.88688997864E+00  0.88000000000E+00 0. -1.
        -11    1    4    4    0    0  0.25790153305E-02 -0.33039270819E-02 -0.32740398813E-01  0.33011544794E-01  0.51100000000E-03 0.  1.
         11    1    4    4    0    0 -0.25362019657E-01  0.23532082562E-01 -0.94348434714E-01  0.10049317989E+00  0.51100000000E-03 0. -1.
</event>
<event>
 8    1  0.1084146E+005  0.1043930E+01  0.7957747E-01            NaN
         13   -1    0    0    0    0  0.00000000000E+00  0.00000000000E+00  0.74505805969E-08  0.10566000000E+00  0.10566000000E+00 0. -1.
     999900   -1    0    0    0    0 -0.00000000000E+00 -0.00000000000E+00 -0.74505805969E-08  0.93827000000E+00  0.93827000000E+00 0.  1.
     999902    2    1    2    0    0 -0.59144720946E-02 -0.88993235881E-02 -0.21296727696E-01  0.10201029240E+01  0.10198246153E+01 0.  0.
     999903    2    3    3    0    0  0.12689096959E+00  0.16166583156E-01 -0.29037114284E-02  0.12959526649E+00  0.20587010062E-01 0.  0.
         14    1    1    2    0    0  0.59144720946E-02  0.88993235881E-02  0.21296727696E-01  0.23827076007E-01  0.00000000000E+00 0. -1.
     999901    1    3    3    0    0 -0.13280544168E+00 -0.25065906744E-01 -0.18393016268E-01  0.89050765750E+00  0.88000000000E+00 0.  1.
        -11    1    4    4    0    0  0.89167443946E-01  0.18656394245E-01  0.38808027425E-02  0.91182322065E-01  0.51100000000E-03 0. -1.
         11    1    4    4    0    0  0.37723525640E-01 -0.24898110892E-02 -0.67845141709E-02  0.38412944427E-01  0.51100000000E-03 0.  1.
</event>
<event>
 8    1  0.1084146E+005  0.1043930E+01  0.7957747E-01            NaN
         13   -1    0    0    0    0  0.00000000000E+00  0.00000000000E+00  0.74505805969E-08  0.10566000000E+00  0.10566000000E+00 0.  1.
     999900   -1    0    0    0    0 -0.00000000000E+00 -0.00000000000E+00 -0.74505805969E-08  0.93827000000E+00  0.93827000000E+00 0. -1.
     999902    2    1    2    0    0 -0.12578360583E-01 -0.17205320640E-01 -0.10252590898E-01  0.10202793376E+01  0.10200051828E+01 0.  0.
     999903    2    3    3    0    0  0.69500690051E-01  0.84815282802E-01 -0.64236301965E-01  0.12895480905E+00  0.21887488953E-01 0.  0.
         14    1    1    2    0    0  0.12578360583E-01  0.17205320640E-01  0.10252590898E-01  0.23650662431E-01  0.00000000000E+00 0.  1.
     999901    1    3    3    0    0 -0.82079050634E-01 -0.10202060344E+00  0.53983711067E-01  0.89132452852E+00  0.88000000000E+00 0.  1.
        -11    1    4    4    0    0  0.16183027389E-01  0.80316078305E-02 -0.13765685124E-01  0.22718985623E-01  0.51100000000E-03 0.  1.
         11    1    4    4    0    0  0.53317662661E-01  0.76783674972E-01 -0.50470616841E-01  0.10623582343E+00  0.51100000000E-03 0. -1.
</event>
<event>
 8    1  0.1084146E+005  0.1043930E+01  0.7957747E-01            NaN
         13   -1    0    0    0    0  0.00000000000E+00  0.00000000000E+00  0.74505805969E-08  0.10566000000E+00  0.10566000000E+00 0. -1.
     999900   -1    0    0    0    0 -0.00000000000E+00 -0.00000000000E+00 -0.74505805969E-08  0.93827000000E+00  0.93827000000E+00 0. -1.
     999902    2    1    2    0    0 -0.16894697236E-01  0.16933609400E-01  0.38822667070E-03  0.10200066089E+01  0.10197260189E+01 0.  0.
     999903    2    3    3    0    0 -0.82146361473E-01  0.44415459023E-01 -0.91819189213E-01  0.13236071143E+00  0.19179069813E-01 0.  0.
         14    1    1    2    0    0  0.16894697236E-01 -0.16933609400E-01 -0.38822667070E-03  0.23923391105E-01  0.00000000000E+00 0. -1.
     999901    1    3    3    0    0  0.65251664237E-01 -0.27481849623E-01  0.92207415884E-01  0.88764589747E+00  0.88000000000E+00 0.  1.
        -11    1    4    4    0    0 -0.24251228964E-01  0.47864458627E-02 -0.18493322556E-01  0.30875496279E-01  0.51100000000E-03 0. -1.
         11    1    4    4    0    0 -0.57895132509E-01  0.39629013160E-01 -0.73325866657E-01  0.10148521515E+00  0.51100000000E-03 0.  1.
</event>
<event>
 8    1  0.1084146E+005  0.1043930E+01  0.7957747E-01            NaN
         13   -1    0    0    0    0  0.00000000000E+00  0.00000000000E+00  0.74505805969E-08  0.10566000000E+00  0.10566000000E+00 0. -1.
     999900   -1    0    0    0    0 -0.00000000000E+00 -0.00000000000E+00 -0.74505805969E-08  0.93827000000E+00  0.93827000000E+00 0.  1.
     999902    2    1    2    0    0  0.22664446737E-01 -0.19935013257E-02 -0.49794358506E-02  0.10206395304E+01  0.10203737575E+01 0.  0.
     999903    2    3    3    0    0  0.10610939012E+00  0.22759096593E-01  0.74047148140E-01  0.13282144617E+00  0.19528882852E-01 0.  0.
         14    1    1    2    0    0 -0.22664446737E-01  0.19935013257E-02  0.49794358506E-02  0.23290469614E-01  0.00000000000E+00 0.  1.
     999901    1    3    3    0    0 -0.83444943387E-01 -0.24752597919E-01 -0.79026583990E-01  0.88781808421E+00  0.88000000000E+00 0.  1.
        -11    1    4    4    0    0  0.45767443748E-01  0.17303200422E-01  0.40792928777E-01  0.63705445696E-01  0.51100000000E-03 0.  1.
         11    1    4    4    0    0  0.60341946376E-01  0.54558961711E-02  0.33254219362E-01  0.69116000476E-01  0.51100000000E-03 0. -1.
</event>
<event>
 8    1  0.1084146E+005  0.1043930E+01  0.7957747E-01            NaN
         13   -1    0    0    0    0  0.00000000000E+00  0.00000000000E+00  0.74505805969E-08  0.10566000000E+00  0.10566000000E+00 0. -1.
     999900   -1    0    0    0    0 -0.00000000000E+00 -0.00000000000E+00 -0.74505805969E-08  0.93827000000E+00  0.93827000000E+00 0. -1.
     999902    2    1    2    0    0  0.21516865798E-01 -0.23859404241E-02 -0.11486550006E-01  0.10194226734E+01  0.10191280479E+01 0.  0.
     999903    2    3    3    0    0  0.10406327762E+00 -0.72973875855E-01  0.28091844554E-01  0.13186252556E+00  0.21076565449E-01 0.  0.
         14    1    1    2    0    0 -0.21516865798E-01  0.23859404241E-02  0.11486550006E-01  0.24507326589E-01  0.00000000000E+00 0. -1.
     999901    1    3    3    0    0 -0.82546411821E-01  0.70587935431E-01 -0.39578394560E-01  0.88756014785E+00  0.88000000000E+00 0. -1.
        -11    1    4    4    0    0  0.69387380965E-01 -0.50610159123E-01  0.88759349742E-02  0.86342574587E-01  0.51100000000E-03 0. -1.
         11    1    4    4    0    0  0.34675896654E-01 -0.22363716732E-01  0.19215909580E-01  0.45519950976E-01  0.51100000000E-03 0.  1.
</event>
<event>
 8    1  0.1084146E+005  0.1043930E+01  0.7957747E-01            NaN
         13   -1    0    0    0    0  0.00000000000E+00  0.00000000000E+00  0.74505805969E-08  0.10566000000E+00  0.10566000000E+00 0. -1.
     999900   -1    0    0    0    0 -0.00000000000E+00 -0.00000000000E+00 -0.74505805969E-08  0.93827000000E+00  0.93827000000E+00 0. -1.
     999902    2    1    2    0    0  0.21770715515E-01 -0.93764267557E-02 -0.14852880931E-02  0.10201794734E+01  0.10199029711E+01 0.  0.
     999903    2    3    3    0    0 -0.81620402184E-02 -0.10646481693E-01  0.12780145587E+00  0.13022855056E+00  0.21125737540E-01 0.  0.
         14    1    1    2    0    0 -0.21770715515E-01  0.93764267557E-02  0.14852880931E-02  0.23750526594E-01  0.00000000000E+00 0. -1.
     999901    1    3    3    0    0  0.29932755734E-01  0.12700549371E-02 -0.12928674396E+00  0.88995092284E+00  0.88000000000E+00 0. -1.
        -11    1    4    4    0    0 -0.35067498523E-02 -0.25364200342E-02  0.11023928145E+00  0.11032538700E+00  0.51100000000E-03 0.  1.
         11    1    4    4    0    0 -0.46552903661E-02 -0.81100616586E-02  0.17562174419E-01  0.19903163563E-01  0.51100000000E-03 0. -1.
</event>
<event>
 8    1  0.1084146E+005  0.1043930E+01  0.7957747E-01            NaN
         13   -1    0    0    0    0  0.00000000000E+00  0.00000000000E+00  0.74505805969E-08  0.10566000000E+00  0.10566000000E+00 0. -1.
     999900   -1    0    0    0    0 -0.00000000000E+00 -0.00000000000E+00 -0.74505805969E-08  0.93827000000E+00  0.93827000000E+00 0.  1.
     999902    2    1    2    0    0 -0.11906517740E-01  0.17825345397E-01 -0.12314239848E-01  0.10192085800E+01  0.10189087206E+01 0.  0.
     999903    2    3    3    0    0 -0.53621393595E-02 -0.47661757074E-01 -0.11954061481E+00  0.13026038975E+00  0.19427169715E-01 0.  0.
         14    1    1    2    0    0  0.11906517740E-01 -0.17825345397E-01  0.12314239848E-01  0.24721419988E-01  0.00000000000E+00 0. -1.
     999901    1    3    3    0    0 -0.65443783806E-02  0.65487102471E-01  0.10722637496E+00  0.88894819026E+00  0.88000000000E+00 0. -1.
        -11    1    4    4    0    0  0.19254225159E-02 -0.25596811509E-01 -0.41203253938E-01  0.48547639153E-01  0.51100000000E-03 0.  1.
         11    1    4    4    0    0 -0.72875618755E-02 -0.22064945565E-01 -0.78337360873E-01  0.81712750599E-01  0.51100000000E-03 0. -1.
</event>
<event>
 8    1  0.1084146E+005  0.1043930E+01  0.7957747E-01            NaN
         13   -1    0    0    0    0  0.00000000000E+00  0.00000000000E+00  0.74505805969E-08  0.10566000000E+00  0.10566000000E+00 0. -1.
     999900   -1    0    0    0    0 -0.00000000000E+00 -0.00000000000E+00 -0.74505805969E-08  0.93827000000E+00  0.93827000000E+00 0.  1.
     999902    2    1    2    0    0  0.64541133180E-02  0.22944297223E-01  0.36896250256E-02  0.10198113415E+01  0.10195260971E+01 0.  0.
     999903    2    3    3    0    0  0.86531373071E-01  0.22193136119E-01 -0.93537651451E-01  0.13084223348E+00  0.19753075866E-01 0.  0.
         14    1    1    2    0    0 -0.64541133180E-02 -0.22944297223E-01 -0.36896250256E-02  0.24118658475E-01  0.00000000000E+00 0.  1.
     999901    1    3    3    0    0 -0.80077259753E-01  0.75116110462E-03  0.97227276476E-01  0.88896910805E+00  0.88000000000E+00 0.  1.
        -11    1    4    4    0    0  0.50752260095E-01  0.97926388552E-02 -0.40476795276E-01  0.65653025500E-01  0.51100000000E-03 0.  1.
         11    1    4    4    0    0  0.35779112975E-01  0.12400497263E-01 -0.53060856175E-01  0.65189207977E-01  0.51100000000E-03 0. -1.
</event>
<event>
 8    1  0.1084146E+005  0.1043930E+01  0.7957747E-01            NaN
         13   -1    0    0    0    0  0.00000000000E+00  0.00000000000E+00  0.74505805969E-08  0.10566000000E+00  0.10566000000E+00 0. -1.
     999900   -1    0    0    0    0 -0.00000000000E+00 -0.00000000000E+00 -0.74505805969E-08  0.93827000000E+00  0.93827000000E+00 0. -1.
     999902    2    1    2    0    0 -0.81041643080E-02  0.20872401235E-01 -0.34789080106E-02  0.10212708426E+01  0.10210194399E+01 0.  0.
     999903    2    3    3    0    0 -0.83211255167E-01 -0.84185814021E-01  0.49553867272E-01  0.13026535501E+00  0.22407871055E-01 0.  0.
         14    1    1    2    0    0  0.81041643080E-02 -0.20872401235E-01  0.34789080106E-02  0.22659157385E-01  0.00000000000E+00 0. -1.
     999901    1    3    3    0    0  0.75107090859E-01  0.10505821526E+00 -0.53032775282E-01  0.89100548761E+00  0.88000000000E+00 0.  1.
        -11    1    4    4    0    0 -0.35383007812E-01 -0.43218418996E-01  0.34015467130E-01  0.65399557395E-01  0.51100000000E-03 0. -1.
         11    1    4    4    0    0 -0.47828247355E-01 -0.40967395025E-01  0.15538400141E-01  0.64865797614E-01  0.51100000000E-03 0.  1.
</event>
<event>
 8    1  0.1084146E+005  0.1043930E+01  0.7957747E-01            NaN
         13   -1    0    0    0    0  0.00000000000E+00  0.00000000000E+00  0.74505805969E-08  0.10566000000E+00  0.10566000000E+00 0.  1.
     999900   -1    0    0    0    0 -0.00000000000E+00 -0.00000000000E+00 -0.74505805969E-08  0.93827000000E+00  0.93827000000E+00 0.  1.
     999902    2    1    2    0    0  0.46059135768E-02  0.22367935718E-01  0.47977859190E-02  0.10205942391E+01  0.10203274196E+01 0.  0.
     999903    2    3    3    0    0  0.66693216145E-01 -0.93502670031E-01 -0.54014892859E-01  0.12888814310E+00  0.22445721161E-01 0.  0.
         14    1    1    2    0    0 -0.46059135768E-02 -0.22367935718E-01 -0.47977859190E-02  0.23335760924E-01  0.00000000000E+00 0. -1.
     999901    1    3    3    0    0 -0.62087302568E-01  0.11587060575E+00  0.58812678778E-01  0.89170609598E+00  0.88000000000E+00 0. -1.
        -11    1    4    4    0    0  0.48316354449E-01 -0.53167226326E-01 -0.40859753093E-01  0.82649891750E-01  0.51100000000E-03 0.  1.
         11    1    4    4    0    0  0.18376861697E-01 -0.40335443704E-01 -0.13155139767E-01  0.46238251350E-01  0.51100000000E-03 0. -1.
</event>
<event>
 8    1  0.1084146E+005  0.1043930E+01  0.7957747E-01            NaN
         13   -1    0    0    0    0  0.00000000000E+00  0.00000000000E+00  0.74505805969E-08  0.10566000000E+00  0.10566000000E+00 0.  1.
     999900   -1    0    0    0    0 -0.00000000000E+00 -0.00000000000E+00 -0.74505805969E-08  0.93827000000E+00  0.93827000000E+00 0.  1.
     999902    2    1    2    0    0  0.19043082688E-01  0.10591898420E-01 -0.88461273459E-02  0.10204123199E+01  0.10201412751E+01 0.  0.
     999903    2    3    3    0    0 -0.85761883254E-01  0.57321796207E-01 -0.77175348038E-01  0.13033555539E+00  0.19759395620E-01 0.  0.
         14    1    1    2    0    0 -0.19043082688E-01 -0.10591898420E-01  0.88461273459E-02  0.23517680145E-01  0.00000000000E+00 0.  1.
     999901    1    3    3    0    0  0.10480496594E+00 -0.46729897787E-01  0.68329220692E-01  0.89007676446E+00  0.88000000000E+00 0. -1.
        -11    1    4    4    0    0 -0.71177220149E-01  0.48312792949E-01 -0.54245109600E-01  0.10170110947E+00  0.51100000000E-03 0. -1.
         11    1    4    4    0    0 -0.14584663106E-01  0.90090032579E-02 -0.22930238438E-01  0.28634445925E-01  0.51100000000E-03 0.  1.
</event>
<event>
 8    1  0.1084146E+005  0.1043930E+01  0.7957747E-01            NaN
         13   -1    0    0    0    0  0.00000000000E+00  0.00000000000E+00  0.74505805969E-08  0.10566000000E+00  0.10566000000E+00 0.  1.
     999900   -1    0    0    0    0 -0.00000000000E+00 -0.00000000000E+00 -0.74505805969E-08  0.93827000000E+00  0.93827000000E+00 0.  1.
     999902    2    1    2    0    0 -0.41040814987E-02  0.21166582328E-01  0.90001990511E-02  0.10205661117E+01  0.10202986411E+01 0.  0.
     999903    2    3    3    0    0  0.12288458154E+00 -0.26261150751E-01 -0.24513874972E-01  0.12955617712E+00  0.19839469387E-01 0.  0.
         14    1    1    2    0    0  0.41040814987E-02 -0.21166582328E-01 -0.90001990511E-02  0.23363888275E-01  0.00000000000E+00 0. -1.
     999901    1    3    3    0    0 -0.12698866304E+00  0.47427733079E-01  0.33514074023E-01  0.89100993460E+00  0.88000000000E+00 0. -1.
        -11    1    4    4    0    0  0.56756278784E-01 -0.18853375454E-01 -0.40858119996E-02  0.59947309599E-01  0.51100000000E-03 0.  1.
         11    1    4    4    0    0  0.66128302754E-01 -0.74077752974E-02 -0.20428062972E-01  0.69608867522E-01  0.51100000000E-03 0. -1.
</event>
<event>
 8    1  0.1084146E+005  0.1043930E+01  0.7957747E-01            NaN
         13   -1    0    0    0    0  0.00000000000E+00  0.00000000000E+00  0.74505805969E-08  0.10566000000E+00  0.10566000000E+00 0. -1.
     999900   -1    0    0    0    0 -0.00000000000E+00 -0.00000000000E+00 -0.74505805969E-08  0.93827000000E+00  0.93827000000E+00 0. -1.
     999902    2    1    2    0    0  0.19405021176E-01 -0.95973721814E-02  0.10087239724E-01  0.10200465998E+01  0.10197669582E+01 0.  0.
     999903    2    3    3    0    0  0.26594060308E-01  0.15007111956E-01 -0.12429170284E+00  0.12947669063E+00  0.19578778547E-01 0.  0.
         14    1    1    2    0    0 -0.19405021176E-01  0.95973721814E-02 -0.10087239724E-01  0.23883400196E-01  0.00000000000E+00 0.  1.
     999901    1    3    3    0    0 -0.71890391315E-02 -0.24604484137E-01  0.13437894256E+00  0.89056990917E+00  0.88000000000E+00 0.  1.
        -11    1    4    4    0    0  0.23666264846E-01  0.19606825978E-01 -0.10267847124E+00  0.10718045202E+00  0.51100000000E-03 0.  1.
         11    1    4    4    0    0  0.29277954623E-02 -0.45997140225E-02 -0.21613231594E-01  0.22296238614E-01  0.51100000000E-03 0. -1.
</event>
<event>
 8    1  0.1084146E+005  0.1043930E+01  0.7957747E-01            NaN
         13   -1    0    0    0    0  0.00000000000E+00  0.00000000000E+00  0.74505805969E-08  0.10566000000E+00  0.10566000000E+00 0. -1.
     999900   -1    0    0    0    0 -0.00000000000E+00 -0.00000000000E+00 -0.74505805969E-08  0.93827000000E+00  0.93827000000E+00 0.  1.
     999902    2    1    2    0    0 -0.87739439186E-02 -0.22269144682E-01 -0.82124665800E-03  0.10199806505E+01  0.10196994440E+01 0.  0.
     999903    2    3    3    0    0 -0.48309086997E-01 -0.10613208810E+00 -0.61399350902E-01  0.13303886685E+00  0.18211858550E-01 0.  0.
         14    1    1    2    0    0  0.87739439186E-02  0.22269144682E-01  0.82124665800E-03  0.23949349529E-01  0.00000000000E+00 0. -1.
     999901    1    3    3    0    0  0.39535143079E-01  0.83862943414E-01  0.60578104244E-01  0.88694178362E+00  0.88000000000E+00 0.  1.
        -11    1    4    4    0    0 -0.13171777433E-01 -0.48438624886E-01 -0.30642730584E-01  0.58813554222E-01  0.51100000000E-03 0.  1.
         11    1    4    4    0    0 -0.35137309564E-01 -0.57693463211E-01 -0.30756620318E-01  0.74225312630E-01  0.51100000000E-03 0. -1.
</event>
<event>
 8    1  0.1084146E+005  0.1043930E+01  0.7957747E-01            NaN
         13   -1    0    0    0    0  0.00000000000E+00  0.00000000000E+00  0.74505805969E-08  0.10566000000E+00  0.10566000000E+00 0. -1.
     999900   -1    0    0    0    0 -0.00000000000E+00 -0.00000000000E+00 -0.74505805969E-08  0.93827000000E+00  0.93827000000E+00 0.  1.
     999902    2    1    2    0    0  0.22009885995E-01  0.37658442354E-02  0.11038032868E-01  0.10190210692E+01  0.10187165870E+01 0.  0.
     999903    2    3    3    0    0  0.11191053957E+00  0.22752414960E-01 -0.61486558865E-01  0.13126973363E+00  0.20236224777E-01 0.  0.
         14    1    1    2    0    0 -0.22009885995E-01 -0.37658442354E-02 -0.11038032868E-01  0.24908930807E-01  0.00000000000E+00 0. -1.
     999901    1    3    3    0    0 -0.89900653578E-01 -0.18986570724E-01  0.72524591733E-01  0.88775133556E+00  0.88000000000E+00 0. -1.
        -11    1    4    4    0    0  0.77384748517E-01  0.25020587252E-01 -0.44785677235E-01  0.92846362857E-01  0.51100000000E-03 0. -1.
         11    1    4    4    0    0  0.34525791056E-01 -0.22681722925E-02 -0.16700881630E-01  0.38423370777E-01  0.51100000000E-03 0.  1.
</event>
<event>
 8    1  0.1084146E+005  0.1043930E+01  0.7957747E-01            NaN
         13   -1    0    0    0    0  0.00000000000E+00  0.00000000000E+00  0.74505805969E-08  0.10566000000E+00  0.10566000000E+00 0.  1.
     999900   -1    0    0    0    0 -0.00000000000E+00 -0.00000000000E+00 -0.74505805969E-08  0.93827000000E+00  0.93827000000E+00 0. -1.
     999902    2    1    2    0    0 -0.20384024380E-01 -0.69253779580E-02 -0.98729820850E-02  0.10202457207E+01  0.10199707768E+01 0.  0.
     999903    2    3    3    0    0 -0.15705234979E-01 -0.57953923187E-01 -0.11627478585E+00  0.13235656810E+00  0.19827346653E-01 0.  0.
         14    1    1    2    0    0  0.20384024380E-01  0.69253779580E-02  0.98729820850E-02  0.23684279281E-01  0.00000000000E+00 0.  1.
     999901    1    3    3    0    0 -0.46787894011E-02  0.51028545229E-01  0.10640180377E+00  0.88788915262E+00  0.88000000000E+00 0.  1.
        -11    1    4    4    0    0 -0.15677303423E-01 -0.24655819927E-01 -0.44568526071E-01  0.53294483167E-01  0.51100000000E-03 0.  1.
         11    1    4    4    0    0 -0.27931555883E-04 -0.33298103259E-01 -0.71706259781E-01  0.79062084930E-01  0.51100000000E-03 0. -1.
</event>
<event>
 8    1  0.1084146E+005  0.1043930E+01  0.7957747E-01            NaN
         13   -1    0    0    0    0  0.00000000000E+00  0.00000000000E+00  0.74505805969E-08  0.10566000000E+00  0.10566000000E+00 0. -1.
     999900   -1    0    0    0    0 -0.00000000000E+00 -0.00000000000E+00 -0.74505805969E-08  0.93827000000E+00  0.93827000000E+00 0.  1.
     999902    2    1    2    0    0  0.15402228371E-01 -0.12736526196E-01  0.12403795056E-01  0.10204076304E+01  0.10201364763E+01 0.  0.
     999903    2    3    3    0    0  0.12638777675E+00  0.13432586248E-01 -0.25698200653E-01  0.13223288610E+00  0.25900466501E-01 0.  0.
         14    1    1    2    0    0 -0.15402228371E-01  0.12736526196E-01 -0.12403795056E-01  0.23522369569E-01  0.00000000000E+00 0.  1.
     999901    1    3    3    0    0 -0.11098554838E+00 -0.26169112444E-01  0.38101995708E-01  0.88817474433E+00  0.88000000000E+00 0. -1.
        -11    1    4    4    0    0  0.10917956605E-01 -0.28178732691E-02 -0.89966158367E-02  0.14434070933E-01  0.51100000000E-03 0.  1.
         11    1    4    4    0    0  0.11546982014E+00  0.16250459517E-01 -0.16701584816E-01  0.11779881517E+00  0.51100000000E-03 0. -1.
</event>
<event>
 8    1  0.1084146E+005  0.1043930E+01  0.7957747E-01            NaN
         13   -1    0    0    0    0  0.00000000000E+00  0.00000000000E+00  0.74505805969E-08  0.10566000000E+00  0.10566000000E+00 0. -1.
     999900   -1    0    0    0    0 -0.00000000000E+00 -0.00000000000E+00 -0.74505805969E-08  0.93827000000E+00  0.93827000000E+00 0. -1.
     999902    2    1    2    0    0  0.16633918431E-02  0.88454114246E-02  0.21518389921E-01  0.10206051360E+01  0.10203385685E+01 0.  0.
     999903    2    3    3    0    0  0.11201252052E+00 -0.61546220843E-01 -0.13344147323E-01  0.13024155375E+00  0.21214476232E-01 0.  0.
         14    1    1    2    0    0 -0.16633918431E-02 -0.88454114246E-02 -0.21518389921E-01  0.23324863997E-01  0.00000000000E+00 0.  1.
     999901    1    3    3    0    0 -0.11034912868E+00  0.70391632267E-01  0.34862537244E-01  0.89036358225E+00  0.88000000000E+00 0.  1.
        -11    1    4    4    0    0  0.72056333223E-01 -0.50583971996E-01 -0.69371313663E-02  0.88313296242E-01  0.51100000000E-03 0. -1.
         11    1    4    4    0    0  0.39956187301E-01 -0.10962248847E-01 -0.64070159563E-02  0.41928257511E-01  0.51100000000E-03 0.  1.
</event>
<event>
 8    1  0.1084146E+005  0.1043930E+01  0.7957747E-01            NaN
         13   -1    0    0    0    0  0.00000000000E+00  0.00000000000E+00  0.74505805969E-08  0.10566000000E+00  0.10566000000E+00 0.  1.
     999900   -1    0    0    0    0 -0.00000000000E+00 -0.00000000000E+00 -0.74505805969E-08  0.93827000000E+00  0.93827000000E+00 0.  1.
     999902    2    1    2    0    0  0.18259463183E-01 -0.21579784504E-02 -0.15695072798E-01  0.10197556298E+01  0.10194690502E+01 0.  0.
     999903    2    3    3    0    0  0.86533015392E-01 -0.74622879681E-01  0.61341890893E-01  0.13079717537E+00  0.16986364587E-01 0.  0.
         14    1    1    2    0    0 -0.18259463183E-01  0.21579784504E-02  0.15695072798E-01  0.24174370248E-01  0.00000000000E+00 0.  1.
     999901    1    3    3    0    0 -0.68273552209E-01  0.72464901230E-01 -0.77036963691E-01  0.88895845438E+00  0.88000000000E+00 0.  1.
        -11    1    4    4    0    0  0.35479737335E-01 -0.24561435484E-01  0.15470236140E-01  0.45843922189E-01  0.51100000000E-03 0. -1.
         11    1    4    4    0    0  0.51053278057E-01 -0.50061444197E-01  0.45871654753E-01  0.84953253182E-01  0.51100000000E-03 0.  1.
</event>
<event>
 8    1  0.1084146E+005  0.1043930E+01  0.7957747E-01            NaN
         13   -1    0    0    0    0  0.00000000000E+00  0.00000000000E+00  0.74505805969E-08  0.10566000000E+00  0.10566000000E+00 0.  1.
     999900   -1    0    0    0    0 -0.00000000000E+00 -0.00000000000E+00 -0.74505805969E-08  0.93827000000E+00  0.93827000000E+00 0. -1.
     999902    2    1    2    0    0 -0.20661432786E-01 -0.85388111997E-02 -0.95078464951E-02  0.10196358598E+01  0.10193463991E+01 0.  0.
     999903    2    3    3    0    0 -0.25124499103E-01 -0.12606686162E+00 -0.20920640411E-01  0.13173777252E+00  0.19826080261E-01 0.  0.
         14    1    1    2    0    0  0.20661432786E-01  0.85388111997E-02  0.95078464951E-02  0.24294140167E-01  0.00000000000E+00 0.  1.
     999901    1    3    3    0    0  0.44630663170E-02  0.11752805042E+00  0.11412793916E-01  0.88789808732E+00  0.88000000000E+00 0.  1.
        -11    1    4    4    0    0 -0.19204811644E-01 -0.70965357760E-01 -0.33418429382E-02  0.73595759575E-01  0.51100000000E-03 0. -1.
         11    1    4    4    0    0 -0.59196874591E-02 -0.55101503860E-01 -0.17578797473E-01  0.58142012941E-01  0.51100000000E-03 0.  1.
</event>
<event>
 8    1  0.1084146E+005  0.1043930E+01  0.7957747E-01            NaN
         13   -1    0    0    0    0  0.00000000000E+00  0.00000000000E+00  0.74505805969E-08  0.10566000000E+00  0.10566000000E+00 0. -1.
     999900   -1    0    0    0    0 -0.00000000000E+00 -0.00000000000E+00 -0.74505805969E-08  0.93827000000E+00  0.93827000000E+00 0.  1.
     999902    2    1    2    0    0 -0.76519686016E-02 -0.15944068582E-01 -0.16123042709E-01  0.10199984632E+01  0.10197176798E+01 0.  0.
     999903    2    3    3    0    0  0.75695538383E-01  0.32908887540E-01 -0.99318702786E-01  0.13081066748E+00  0.20842662802E-01 0.  0.
         14    1    1    2    0    0  0.76519686016E-02  0.15944068582E-01  0.16123042709E-01  0.23931536780E-01  0.00000000000E+00 0. -1.
     999901    1    3    3    0    0 -0.83347506984E-01 -0.48852956122E-01  0.83195660077E-01  0.88918779574E+00  0.88000000000E+00 0.  1.
        -11    1    4    4    0    0  0.54087375508E-01  0.25651378055E-01 -0.56582556776E-01  0.82372836771E-01  0.51100000000E-03 0. -1.
         11    1    4    4    0    0  0.21608162875E-01  0.72575094857E-02 -0.42736146010E-01  0.48437830706E-01  0.51100000000E-03 0.  1.
</event>
<event>
 8    1  0.1084146E+005  0.1043930E+01  0.7957747E-01            NaN
         13   -1    0    0    0    0  0.00000000000E+00  0.00000000000E+00  0.74505805969E-08  0.10566000000E+00  0.10566000000E+00 0.  1.
     999900   -1    0    0    0    0 -0.00000000000E+00 -0.00000000000E+00 -0.74505805969E-08  0.93827000000E+00  0.93827000000E+00 0.  1.
     999902    2    1    2    0    0  0.15967364483E-01 -0.14450210288E-01 -0.10998189343E-01  0.10197489025E+01  0.10194621615E+01 0.  0.
     999903    2    3    3    0    0  0.95800275015E-01 -0.87968228055E-01  0.12943450852E-01  0.13275882667E+00  0.23265238002E-01 0.  0.
         14    1    1    2    0    0 -0.15967364483E-01  0.14450210288E-01  0.10998189343E-01  0.24181097467E-01  0.00000000000E+00 0. -1.
     999901    1    3    3    0    0 -0.79832910531E-01  0.73518017767E-01 -0.23941640195E-01  0.88699007586E+00  0.88000000000E+00 0.  1.
        -11    1    4    4    0    0  0.36016203213E-01 -0.47558602185E-01  0.10348592549E-01  0.60550326377E-01  0.51100000000E-03 0.  1.
         11    1    4    4    0    0  0.59784071802E-01 -0.40409625870E-01  0.25948583035E-02  0.72208500295E-01  0.51100000000E-03 0. -1.
</event>
<event>
 8    1  0.1084146E+005  0.1043930E+01  0.7957747E-01            NaN
         13   -1    0    0    0    0  0.00000000000E+00  0.00000000000E+00  0.74505805969E-08  0.10566000000E+00  0.10566000000E+00 0.  1.
     999900   -1    0    0    0    0 -0.00000000000E+00 -0.00000000000E+00 -0.74505805969E-08  0.93827000000E+00  0.93827000000E+00 0.  1.
     999902    2    1    2    0    0  0.18821407244E-01 -0.23454278510E-02  0.14232627121E-01  0.10202168375E+01  0.10199412147E+01 0.  0.
     999903    2    3    3    0    0  0.47956334554E-01  0.12038470717E+00 -0.13121828743E-02  0.13108626711E+00  0.19738284011E-01 0.  0.
         14    1    1    2    0    0 -0.18821407244E-01  0.23454278510E-02 -0.14232627121E-01  0.23713162531E-01  0.00000000000E+00 0. -1.
     999901    1    3    3    0    0 -0.29134927310E-01 -0.12273013502E+00  0.15544809996E-01  0.88913057036E+00  0.88000000000E+00 0.  1.
        -11    1    4    4    0    0  0.20892322972E-01  0.32164646448E-01 -0.52917796880E-02  0.38721023922E-01  0.51100000000E-03 0.  1.
         11    1    4    4    0    0  0.27064011582E-01  0.88220060724E-01  0.39795968137E-02  0.92365243186E-01  0.51100000000E-03 0. -1.
</event>
<event>
 8    1  0.1084146E+005  0.1043930E+01  0.7957747E-01            NaN
         13   -1    0    0    0    0  0.00000000000E+00  0.00000000000E+00  0.74505805969E-08  0.10566000000E+00  0.10566000000E+00 0.  1.
     999900   -1    0    0    0    0 -0.00000000000E+00 -0.00000000000E+00 -0.74505805969E-08  0.93827000000E+00  0.93827000000E+00 0. -1.
     999902    2    1    2    0    0  0.19254655458E-01  0.91261394046E-02 -0.82799822861E-02  0.10210698538E+01  0.10208139204E+01 0.  0.
     999903    2    3    3    0    0  0.12279480486E+00  0.67445161464E-02  0.47576319105E-01  0.13323757175E+00  0.19096905163E-01 0.  0.
         14    1    1    2    0    0 -0.19254655458E-01 -0.91261394046E-02  0.82799822861E-02  0.22860146191E-01  0.00000000000E+00 0.  1.
     999901    1    3    3    0    0 -0.10354014940E+00  0.23816232582E-02 -0.55856301391E-01  0.88783228206E+00  0.88000000000E+00 0. -1.
        -11    1    4    4    0    0  0.88854357780E-01  0.95451884574E-03  0.42249093921E-01  0.98393368989E-01  0.51100000000E-03 0. -1.
         11    1    4    4    0    0  0.33940447079E-01  0.57899973006E-02  0.53272251840E-02  0.34844202758E-01  0.51100000000E-03 0.  1.
</event>
<event>
 8    1  0.1084146E+005  0.1043930E+01  0.7957747E-01            NaN
         13   -1    0    0    0    0  0.00000000000E+00  0.00000000000E+00  0.74505805969E-08  0.10566000000E+00  0.10566000000E+00 0. -1.
     999900   -1    0    0    0    0 -0.00000000000E+00 -0.00000000000E+00 -0.74505805969E-08  0.93827000000E+00  0.93827000000E+00 0.  1.
     999902    2    1    2    0    0 -0.44235107110E-02 -0.25194794177E-02  0.23293716793E-01  0.10200865006E+01  0.10198078035E+01 0.  0.
     999903    2    3    3    0    0  0.79447443673E-01 -0.10110479876E+00 -0.37428126677E-02  0.13020764582E+00  0.20148095339E-01 0.  0.
         14    1    1    2    0    0  0.44235107110E-02  0.25194794177E-02 -0.23293716793E-01  0.23843499440E-01  0.00000000000E+00 0.  1.
     999901    1    3    3    0    0 -0.83870954384E-01  0.98585319344E-01  0.27036529460E-01  0.88987885474E+00  0.88000000000E+00 0. -1.
        -11    1    4    4    0    0  0.25633883921E-01 -0.22230894758E-01  0.50952746420E-02  0.34315180771E-01  0.51100000000E-03 0.  1.
         11    1    4    4    0    0  0.53813559751E-01 -0.78873904004E-01 -0.88380873097E-02  0.95892465054E-01  0.51100000000E-03 0. -1.
</event>
<event>
 8    1  0.1084146E+005  0.1043930E+01  0.7957747E-01            NaN
         13   -1    0    0    0    0  0.00000000000E+00  0.00000000000E+00  0.74505805969E-08  0.10566000000E+00  0.10566000000E+00 0. -1.
     999900   -1    0    0    0    0 -0.00000000000E+00 -0.00000000000E+00 -0.74505805969E-08  0.93827000000E+00  0.93827000000E+00 0.  1.
     999902    2    1    2    0    0 -0.29459324422E-02  0.11574202843E-01  0.20851253140E-01  0.10199005296E+01  0.10196174159E+01 0.  0.
     999903    2    3    3    0    0  0.14773817589E-01  0.75692260237E-01 -0.10135489154E+00  0.12896873839E+00  0.20311019093E-01 0.  0.
         14    1    1    2    0    0  0.29459324422E-02 -0.11574202843E-01 -0.20851253140E-01  0.24029470384E-01  0.00000000000E+00 0.  1.
     999901    1    3    3    0    0 -0.17719750031E-01 -0.64118057394E-01  0.12220614468E+00  0.89093179123E+00  0.88000000000E+00 0.  1.
        -11    1    4    4    0    0  0.11108778980E-01  0.64003476245E-01 -0.95193209884E-01  0.11524694474E+00  0.51100000000E-03 0.  1.
         11    1    4    4    0    0  0.36650386088E-02  0.11688783992E-01 -0.61616816542E-02  0.13721793652E-01  0.51100000000E-03 0. -1.
</event>
<event>
 8    1  0.1084146E+005  0.1043930E+01  0.7957747E-01            NaN
         13   -1    0    0    0    0  0.00000000000E+00  0.00000000000E+00  0.74505805969E-08  0.10566000000E+00  0.10566000000E+00 0. -1.
     999900   -1    0    0    0    0 -0.00000000000E+00 -0.00000000000E+00 -0.74505805969E-08  0.93827000000E+00  0.93827000000E+00 0.  1.
     999902    2    1    2    0    0  0.79210697258E-02  0.22533254343E-01 -0.20977465679E-02  0.10199531062E+01  0.10196712447E+01 0.  0.
     999903    2    3    3    0    0 -0.18197727754E-01 -0.12426750553E+00 -0.79093572785E-02  0.12739138310E+00  0.19810005778E-01 0.  0.
         14    1    1    2    0    0 -0.79210697258E-02 -0.22533254343E-01  0.20977465679E-02  0.23976893826E-01  0.00000000000E+00 0.  1.
     999901    1    3    3    0    0  0.26118797480E-01  0.14680075987E+00  0.58116107106E-02  0.89256172308E+00  0.88000000000E+00 0.  1.
        -11    1    4    4    0    0 -0.20181242133E-01 -0.73015615548E-01 -0.22640117203E-02  0.75788848243E-01  0.51100000000E-03 0. -1.
         11    1    4    4    0    0  0.19835143780E-02 -0.51251889982E-01 -0.56453455582E-02  0.51602534855E-01  0.51100000000E-03 0.  1.
</event>
<event>
 8    1  0.1084146E+005  0.1043930E+01  0.7957747E-01            NaN
         13   -1    0    0    0    0  0.00000000000E+00  0.00000000000E+00  0.74505805969E-08  0.10566000000E+00  0.10566000000E+00 0.  1.
     999900   -1    0    0    0    0 -0.00000000000E+00 -0.00000000000E+00 -0.74505805969E-08  0.93827000000E+00  0.93827000000E+00 0.  1.
     999902    2    1    2    0    0  0.21571274806E-01  0.66659546813E-02  0.61916554688E-02  0.10205186471E+01  0.10202500760E+01 0.  0.
     999903    2    3    3    0    0 -0.10850888529E+00  0.47537938632E-01 -0.45635029733E-01  0.12851115135E+00  0.19963123158E-01 0.  0.
         14    1    1    2    0    0 -0.21571274806E-01 -0.66659546813E-02 -0.61916554688E-02  0.23411352930E-01  0.00000000000E+00 0. -1.
     999901    1    3    3    0    0  0.13008016010E+00 -0.40871983951E-01  0.51826685202E-01  0.89200749572E+00  0.88000000000E+00 0.  1.
        -11    1    4    4    0    0 -0.23231890281E-01  0.41085366261E-02 -0.15276336056E-01  0.28111000756E-01  0.51100000000E-03 0.  1.
         11    1    4    4    0    0 -0.85276995009E-01  0.43429402006E-01 -0.30358693677E-01  0.10040015059E+00  0.51100000000E-03 0. -1.
</event>
<event>
 8    1  0.1084146E+005  0.1043930E+01  0.7957747E-01            NaN
         13   -1    0    0    0    0  0.00000000000E+00  0.00000000000E+00  0.74505805969E-08  0.10566000000E+00  0.10566000000E+00 0. -1.
     999900   -1    0    0    0    0 -0.00000000000E+00 -0.00000000000E+00 -0.74505805969E-08  0.93827000000E+00  0.93827000000E+00 0. -1.
     999902    2    1    2    0    0 -0.49022968572E-02  0.18736848968E-01  0.12951926783E-01  0.10206307633E+01  0.10203647880E+01 0.  0.
     999903    2    3    3    0    0 -0.29976789145E-01  0.12200789192E+00 -0.38012825161E-01  0.13277320466E+00  0.19980375897E-01 0.  0.
         14    1    1    2    0    0  0.49022968572E-02 -0.18736848968E-01 -0.12951926783E-01  0.23299236707E-01  0.00000000000E+00 0.  1.
     999901    1    3    3    0    0  0.25074492287E-01 -0.10327104295E+00  0.50964751944E-01  0.88785755863E+00  0.88000000000E+00 0.  1.
        -11    1    4    4    0    0 -0.22427060945E-01  0.71315471494E-01 -0.13542080721E-01  0.75977092655E-01  0.51100000000E-03 0. -1.
         11    1    4    4    0    0 -0.75497282002E-02  0.50692420428E-01 -0.24470744440E-01  0.56796112008E-01  0.51100000000E-03 0.  1.
</event>
<event>
 8    1  0.1084146E+005  0.1043930E+01  0.7957747E-01            NaN
         13   -1    0    0    0    0  0.00000000000E+00  0.00000000000E+00  0.74505805969E-08  0.10566000000E+00  0.10566000000E+00 0.  1.
     999900   -1    0    0    0    0 -0.00000000000E+00 -0.00000000000E+00 -0.74505805969E-08  0.93827000000E+00  0.93827000000E+00 0. -1.
     999902    2    1    2    0    0 -0.26068387421E-02 -0.10440377946E-01 -0.21110188730E-01  0.10202353346E+01  0.10199601467E+01 0.  0.
     999903    2    3    3    0    0  0.37747017709E-02 -0.54752966017E-01 -0.12008600370E+00  0.13355583136E+00  0.20109106048E-01 0.  0.
         14    1    1    2    0    0  0.26068387421E-02  0.10440377946E-01  0.21110188730E-01  0.23694665394E-01  0.00000000000E+00 0.  1.
     999901    1    3    3    0    0 -0.63815405130E-02  0.44312588071E-01  0.98975814968E-01  0.88667950324E+00  0.88000000000E+00 0.  1.
        -11    1    4    4    0    0 -0.39829841260E-02 -0.21622966021E-01 -0.66830950171E-01  0.70356619048E-01  0.51100000000E-03 0.  1.
         11    1    4    4    0    0  0.77576858969E-02 -0.33129999996E-01 -0.53255053528E-01  0.63199212317E-01  0.51100000000E-03 0. -1.
</event>
<event>
 8    1  0.1084146E+005  0.1043930E+01  0.7957747E-01            NaN
         13   -1    0    0    0    0  0.00000000000E+00  0.00000000000E+00  0.74505805969E-08  0.10566000000E+00  0.10566000000E+00 0.  1.
     999900   -1    0    0    0    0 -0.00000000000E+00 -0.00000000000E+00 -0.74505805969E-08  0.93827000000E+00  0.93827000000E+00 0.  1.
     999902    2    1    2    0    0  0.69623559589E-02  0.26650070438E-02 -0.15846124985E-01  0.10264178231E+01  0.10262684206E+01 0.  0.
     999903    2    3    3    0    0 -0.93839200435E-01  0.72223456324E-01 -0.64825290741E-01  0.13658733906E+00  0.20778827912E-01 0.  0.
         14    1    1    2    0    0 -0.69623559589E-02 -0.26650070438E-02  0.15846124985E-01  0.17512176909E-01  0.00000000000E+00 0.  1.
     999901    1    3    3    0    0  0.10080155639E+00 -0.69558449280E-01  0.48979165756E-01  0.88983048403E+00  0.88000000000E+00 0. -1.
        -11    1    4    4    0    0 -0.59204525282E-01  0.50312461814E-01 -0.52559896369E-01  0.93804709130E-01  0.51100000000E-03 0. -1.
         11    1    4    4    0    0 -0.34634675153E-01  0.21910994510E-01 -0.12265394372E-01  0.42782629927E-01  0.51100000000E-03 0.  1.
</event>
<event>
 8    1  0.1084146E+005  0.1043930E+01  0.7957747E-01            NaN
         13   -1    0    0    0    0  0.00000000000E+00  0.00000000000E+00  0.74505805969E-08  0.10566000000E+00  0.10566000000E+00 0.  1.
     999900   -1    0    0    0    0 -0.00000000000E+00 -0.00000000000E+00 -0.74505805969E-08  0.93827000000E+00  0.93827000000E+00 0. -1.
     999902    2    1    2    0    0 -0.16073131844E-01 -0.16559377005E-01  0.20385874301E-02  0.10207629032E+01  0.10204999707E+01 0.  0.
     999903    2    3    3    0    0 -0.41721307136E-01 -0.10367908699E+00 -0.69659708858E-01  0.13318850158E+00  0.19916861390E-01 0.  0.
         14    1    1    2    0    0  0.16073131844E-01  0.16559377005E-01 -0.20385874301E-02  0.23167096771E-01  0.00000000000E+00 0.  1.
     999901    1    3    3    0    0  0.25648175292E-01  0.87119709986E-01  0.71698296288E-01  0.88757440164E+00  0.88000000000E+00 0.  1.
        -11    1    4    4    0    0 -0.40137516545E-01 -0.79020999724E-01 -0.51368411580E-01  0.10244175643E+00  0.51100000000E-03 0.  1.
         11    1    4    4    0    0 -0.15837905916E-02 -0.24658087267E-01 -0.18291297278E-01  0.30746745152E-01  0.51100000000E-03 0. -1.
</event>
<event>
 8    1  0.1084146E+005  0.1043930E+01  0.7957747E-01            NaN
         13   -1    0    0    0    0  0.00000000000E+00  0.00000000000E+00  0.74505805969E-08  0.10566000000E+00  0.10566000000E+00 0.  1.
     999900   -1    0    0    0    0 -0.00000000000E+00 -0.00000000000E+00 -0.74505805969E-08  0.93827000000E+00  0.93827000000E+00 0.  1.
     999902    2    1    2    0    0  0.11022580235E-01  0.10906804125E-01  0.17457456106E-01  0.10205800873E+01  0.10203129403E+01 0.  0.
     999903    2    3    3    0    0 -0.20430126578E-01 -0.85858171509E-01 -0.90738291171E-01  0.12813454102E+00  0.19899935455E-01 0.  0.
         14    1    1    2    0    0 -0.11022580235E-01 -0.10906804125E-01 -0.17457456106E-01  0.23349912740E-01  0.00000000000E+00 0. -1.
     999901    1    3    3    0    0  0.31452706813E-01  0.96764975634E-01  0.10819574728E+00  0.89244554624E+00  0.88000000000E+00 0.  1.
        -11    1    4    4    0    0 -0.17228317464E-01 -0.46605763776E-01 -0.39325629050E-01  0.63369380310E-01  0.51100000000E-03 0. -1.
         11    1    4    4    0    0 -0.32018091134E-02 -0.39252407733E-01 -0.51412662120E-01  0.64765160710E-01  0.51100000000E-03 0.  1.
</event>
<event>
 8    1  0.1084146E+005  0.1043930E+01  0.7957747E-01            NaN
         13   -1    0    0    0    0  0.00000000000E+00  0.00000000000E+00  0.74505805969E-08  0.10566000000E+00  0.10566000000E+00 0.  1.
     999900   -1    0    0    0    0 -0.00000000000E+00 -0.00000000000E+00 -0.74505805969E-08  0.93827000000E+00  0.93827000000E+00 0.  1.
     999902    2    1    2    0    0  0.31950682877E-02 -0.21388825774E-01 -0.11243136531E-01  0.10195558652E+01  0.10192644719E+01 0.  0.
     999903    2    3    3    0    0  0.10337985400E+00 -0.36206919139E-01 -0.70594276461E-01  0.13176133659E+00  0.19472101657E-01 0.  0.
         14    1    1    2    0    0 -0.31950682877E-02  0.21388825774E-01  0.11243136531E-01  0.24374134824E-01  0.00000000000E+00 0.  1.
     999901    1    3    3    0    0 -0.10018478572E+00  0.14818093365E-01  0.59351139931E-01  0.88779452859E+00  0.88000000000E+00 0. -1.
        -11    1    4    4    0    0  0.22317142060E-01 -0.98812922182E-02 -0.25631900740E-01  0.35397036913E-01  0.51100000000E-03 0. -1.
         11    1    4    4    0    0  0.81062711943E-01 -0.26325626921E-01 -0.44962375721E-01  0.96364299675E-01  0.51100000000E-03 0.  1.
</event>
<event>
 8    1  0.1084146E+005  0.1043930E+01  0.7957747E-01            NaN
         13   -1    0    0    0    0  0.00000000000E+00  0.00000000000E+00  0.74505805969E-08  0.10566000000E+00  0.10566000000E+00 0.  1.
     999900   -1    0    0    0    0 -0.00000000000E+00 -0.00000000000E+00 -0.74505805969E-08  0.93827000000E+00  0.93827000000E+00 0. -1.
     999902    2    1    2    0    0 -0.45046185377E-02  0.23054470743E-01 -0.70182552117E-03  0.10204290900E+01  0.10201584362E+01 0.  0.
     999903    2    3    3    0    0 -0.53176661454E-01 -0.92202941065E-01 -0.69845465122E-01  0.12889441230E+00  0.20155417602E-01 0.  0.
         14    1    1    2    0    0  0.45046185377E-02 -0.23054470743E-01  0.70182552117E-03  0.23500909950E-01  0.00000000000E+00 0.  1.
     999901    1    3    3    0    0  0.48672042916E-01  0.11525741181E+00  0.69143639601E-01  0.89153467775E+00  0.88000000000E+00 0.  1.
        -11    1    4    4    0    0 -0.19854760832E-01 -0.44846695913E-01 -0.42304392495E-01  0.64771601859E-01  0.51100000000E-03 0. -1.
         11    1    4    4    0    0 -0.33321900622E-01 -0.47356245152E-01 -0.27541072627E-01  0.64122810438E-01  0.51100000000E-03 0.  1.
</event>
<event>
 8    1  0.1084146E+005  0.1043930E+01  0.7957747E-01            NaN
         13   -1    0    0    0    0  0.00000000000E+00  0.00000000000E+00  0.74505805969E-08  0.10566000000E+00  0.10566000000E+00 0.  1.
     999900   -1    0    0    0    0 -0.00000000000E+00 -0.00000000000E+00 -0.74505805969E-08  0.93827000000E+00  0.93827000000E+00 0.  1.
     999902    2    1    2    0    0 -0.64184577271E-02 -0.22124566353E-01 -0.80992439819E-02  0.10195109339E+01  0.10192184523E+01 0.  0.
     999903    2    3    3    0    0  0.31410323645E-01  0.79157612409E-01  0.92143955530E-01  0.12724539300E+00  0.21174169772E-01 0.  0.
         14    1    1    2    0    0  0.64184577271E-02  0.22124566353E-01  0.80992439819E-02  0.24419066095E-01  0.00000000000E+00 0. -1.
     999901    1    3    3    0    0 -0.37828781372E-01 -0.10128217876E+00 -0.10024319951E+00  0.89226554090E+00  0.88000000000E+00 0.  1.
        -11    1    4    4    0    0  0.93919736395E-02  0.38862195190E-01  0.30059245222E-01  0.50022982000E-01  0.51100000000E-03 0.  1.
         11    1    4    4    0    0  0.22018350006E-01  0.40295417219E-01  0.62084710309E-01  0.77222411002E-01  0.51100000000E-03 0. -1.
</event>
<event>
 8    1  0.1084146E+005  0.1043930E+01  0.7957747E-01            NaN
         13   -1    0    0    0    0  0.00000000000E+00  0.00000000000E+00  0.74505805969E-08  0.10566000000E+00  0.10566000000E+00 0. -1.
     999900   -1    0    0    0    0 -0.00000000000E+00 -0.00000000000E+00 -0.74505805969E-08  0.93827000000E+00  0.93827000000E+00 0. -1.
     999902    2    1    2    0    0 -0.14778614028E-01 -0.12017225142E-01 -0.13981915120E-01  0.10203013081E+01  0.10200276683E+01 0.  0.
     999903    2    3    3    0    0  0.10961147399E-01 -0.22500415633E-01  0.12471203518E+00  0.12900537266E+00  0.21514622914E-01 0.  0.
         14    1    1    2    0    0  0.14778614028E-01  0.12017225142E-01  0.13981915120E-01  0.23628691947E-01  0.00000000000E+00 0. -1.
     999901    1    3    3    0    0 -0.25739761427E-01  0.10483190491E-01 -0.13869395030E+00  0.89129593540E+00  0.88000000000E+00 0. -1.
        -11    1    4    4    0    0 -0.61542996684E-02 -0.79043886098E-02  0.49219862275E-01  0.50231571020E-01  0.51100000000E-03 0.  1.
         11    1    4    4    0    0  0.17115447068E-01 -0.14596027024E-01  0.75492172908E-01  0.78773801639E-01  0.51100000000E-03 0. -1.
</event>
<event>
 8    1  0.1084146E+005  0.1043930E+01  0.7957747E-01            NaN
         13   -1    0    0    0    0  0.00000000000E+00  0.00000000000E+00  0.74505805969E-08  0.10566000000E+00  0.10566000000E+00 0. -1.
     999900   -1    0    0    0    0 -0.00000000000E+00 -0.00000000000E+00 -0.74505805969E-08  0.93827000000E+00  0.93827000000E+00 0.  1.
     999902    2    1    2    0    0  0.33852203105E-02  0.15824893004E-02 -0.24889797143E-01  0.10187612497E+01  0.10184503021E+01 0.  0.
     999903    2    3    3    0    0  0.12637580948E+00 -0.43587037193E-02  0.15234811877E-01  0.12928276934E+00  0.22183134038E-01 0.  0.
         14    1    1    2    0    0 -0.33852203105E-02 -0.15824893004E-02  0.24889797143E-01  0.25168750282E-01  0.00000000000E+00 0. -1.
     999901    1    3    3    0    0 -0.12299058917E+00  0.59411930197E-02 -0.40124609019E-01  0.88947848037E+00  0.88000000000E+00 0.  1.
        -11    1    4    4    0    0  0.69113119900E-01  0.86568444418E-02  0.85740101272E-02  0.70180759961E-01  0.51100000000E-03 0. -1.
         11    1    4    4    0    0  0.57262689583E-01 -0.13015548161E-01  0.66608017495E-02  0.59102009384E-01  0.51100000000E-03 0.  1.
</event>
<event>
 8    1  0.1084146E+005  0.1043930E+01  0.7957747E-01            NaN
         13   -1    0    0    0    0  0.00000000000E+00  0.00000000000E+00  0.74505805969E-08  0.10566000000E+00  0.10566000000E+00 0. -1.
     999900   -1    0    0    0    0 -0.00000000000E+00 -0.00000000000E+00 -0.74505805969E-08  0.93827000000E+00  0.93827000000E+00 0. -1.
     999902    2    1    2    0    0 -0.18074182930E-01  0.15202070326E-01  0.26289324207E-03  0.10203111909E+01  0.10200377827E+01 0.  0.
     999903    2    3    3    0    0  0.74003391284E-01 -0.40433006045E-01 -0.95132414391E-01  0.12864207843E+00  0.19679384559E-01 0.  0.
         14    1    1    2    0    0  0.18074182930E-01 -0.15202070326E-01 -0.26289324207E-03  0.23618809107E-01  0.00000000000E+00 0.  1.
     999901    1    3    3    0    0 -0.92077574213E-01  0.55635076371E-01  0.95395307633E-01  0.89166911246E+00  0.88000000000E+00 0.  1.
        -11    1    4    4    0    0  0.56943989012E-01 -0.22284615195E-01 -0.73805695558E-01  0.95847607048E-01  0.51100000000E-03 0. -1.
         11    1    4    4    0    0  0.17059402272E-01 -0.18148390850E-01 -0.21326718833E-01  0.32794471386E-01  0.51100000000E-03 0.  1.
</event>
<event>
 8    1  0.1084146E+005  0.1043930E+01  0.7957747E-01            NaN
         13   -1    0    0    0    0  0.00000000000E+00  0.00000000000E+00  0.74505805969E-08  0.10566000000E+00  0.10566000000E+00 0. -1.
     999900   -1    0    0    0    0 -0.00000000000E+00 -0.00000000000E+00 -0.74505805969E-08  0.93827000000E+00  0.93827000000E+00 0.  1.
     999902    2    1    2    0    0  0.93004675124E-02  0.15107327220E-01 -0.15921836194E-01  0.10200923219E+01  0.10198137625E+01 0.  0.
     999903    2    3    3    0    0 -0.87715504398E-01  0.72320238557E-01 -0.63466514283E-01  0.13164090931E+00  0.19419164572E-01 0.  0.
         14    1    1    2    0    0 -0.93004675124E-02 -0.15107327220E-01  0.15921836194E-01  0.23837678148E-01  0.00000000000E+00 0. -1.
     999901    1    3    3    0    0  0.97015971910E-01 -0.57212911337E-01  0.47544678089E-01  0.88845141254E+00  0.88000000000E+00 0. -1.
        -11    1    4    4    0    0 -0.14796600521E-01  0.19876003614E-01 -0.78611176980E-02  0.26001023039E-01  0.51100000000E-03 0. -1.
         11    1    4    4    0    0 -0.72918903877E-01  0.52444234943E-01 -0.55605396585E-01  0.10563988627E+00  0.51100000000E-03 0.  1.
</event>
<event>
 8    1  0.1084146E+005  0.1043930E+01  0.7957747E-01            NaN
         13   -1    0    0    0    0  0.00000000000E+00  0.00000000000E+00  0.74505805969E-08  0.10566000000E+00  0.10566000000E+00 0. -1.
     999900   -1    0    0    0    0 -0.00000000000E+00 -0.00000000000E+00 -0.74505805969E-08  0.93827000000E+00  0.93827000000E+00 0.  1.
     999902    2    1    2    0    0  0.54101329007E-02 -0.13756606706E-01  0.17337396638E-01  0.10211462539E+01  0.10208920475E+01 0.  0.
     999903    2    3    3    0    0  0.95598653182E-01 -0.88429172319E-01 -0.17298680534E-01  0.13271526662E+00  0.18848783475E-01 0.  0.
         14    1    1    2    0    0 -0.54101329007E-02  0.13756606706E-01 -0.17337396638E-01  0.22783746141E-01  0.00000000000E+00 0.  1.
     999901    1    3    3    0    0 -0.90188520281E-01  0.74672565613E-01  0.34636077172E-01  0.88843098724E+00  0.88000000000E+00 0.  1.
        -11    1    4    4    0    0  0.39435152103E-01 -0.32798406658E-01 -0.15709676677E-01  0.53646265136E-01  0.51100000000E-03 0.  1.
         11    1    4    4    0    0  0.56163501078E-01 -0.55630765661E-01 -0.15890038579E-02  0.79069001484E-01  0.51100000000E-03 0. -1.
</event>
<event>
 8    1  0.1084146E+005  0.1043930E+01  0.7957747E-01            NaN
         13   -1    0    0    0    0  0.00000000000E+00  0.00000000000E+00  0.74505805969E-08  0.10566000000E+00  0.10566000000E+00 0.  1.
     999900   -1    0    0    0    0 -0.00000000000E+00 -0.00000000000E+00 -0.74505805969E-08  0.93827000000E+00  0.93827000000E+00 0. -1.
     999902    2    1    2    0    0 -0.10196638101E-01  0.21858371877E-01  0.80460619746E-02  0.10185036561E+01  0.10181862298E+01 0.  0.
     999903    2    3    3    0    0 -0.44353181210E-01  0.10363994494E+00  0.66043175772E-01  0.13215239373E+00  0.19852234966E-01 0.  0.
         14    1    1    2    0    0  0.10196638101E-01 -0.21858371877E-01 -0.80460619746E-02  0.25426343878E-01  0.00000000000E+00 0. -1.
     999901    1    3    3    0    0  0.34156543109E-01 -0.81781573061E-01 -0.57997113798E-01  0.88635126239E+00  0.88000000000E+00 0. -1.
        -11    1    4    4    0    0 -0.34944369278E-02  0.10756753589E-01  0.14324792541E-01  0.18258686688E-01  0.51100000000E-03 0. -1.
         11    1    4    4    0    0 -0.40858744283E-01  0.92883191349E-01  0.51718383231E-01  0.11389370705E+00  0.51100000000E-03 0.  1.
</event>
<event>
 8    1  0.1084146E+005  0.1043930E+01  0.7957747E-01            NaN
         13   -1    0    0    0    0  0.00000000000E+00  0.00000000000E+00  0.74505805969E-08  0.10566000000E+00  0.10566000000E+00 0. -1.
     999900   -1    0    0    0    0 -0.00000000000E+00 -0.00000000000E+00 -0.74505805969E-08  0.93827000000E+00  0.93827000000E+00 0. -1.
     999902    2    1    2    0    0 -0.11250904575E-01 -0.21135857682E-01 -0.20492060087E-02  0.10198986334E+01  0.10196154745E+01 0.  0.
     999903    2    3    3    0    0 -0.58704205073E-01  0.27466569847E-01  0.11095543691E+00  0.13007614495E+00  0.20201444353E-01 0.  0.
         14    1    1    2    0    0  0.11250904575E-01  0.21135857682E-01  0.20492060087E-02  0.24031366565E-01  0.00000000000E+00 0.  1.
     999901    1    3    3    0    0  0.47453300498E-01 -0.48602427529E-01 -0.11300464292E+00  0.88982248848E+00  0.88000000000E+00 0. -1.
        -11    1    4    4    0    0 -0.29180526701E-01  0.19893241889E-01  0.43360030560E-01  0.55924928096E-01  0.51100000000E-03 0. -1.
         11    1    4    4    0    0 -0.29523678373E-01  0.75733279576E-02  0.67595406347E-01  0.74151216856E-01  0.51100000000E-03 0.  1.
</event>
<event>
 8    1  0.1084146E+005  0.1043930E+01  0.7957747E-01            NaN
         13   -1    0    0    0    0  0.00000000000E+00  0.00000000000E+00  0.74505805969E-08  0.10566000000E+00  0.10566000000E+00 0. -1.
     999900   -1    0    0    0    0 -0.00000000000E+00 -0.00000000000E+00 -0.74505805969E-08  0.93827000000E+00  0.93827000000E+00 0.  1.
     999902    2    1    2    0    0 -0.22873247040E-01 -0.27536602032E-02 -0.42046682212E-02  0.10205110481E+01  0.10202423006E+01 0.  0.
     999903    2    3    3    0    0 -0.99121616529E-01  0.76672967884E-01 -0.40075925025E-01  0.13292491131E+00  0.18950287948E-01 0.  0.
         14    1    1    2    0    0  0.22873247040E-01  0.27536602032E-02  0.42046682212E-02  0.23418951931E-01  0.00000000000E+00 0.  1.
     999901    1    3    3    0    0  0.76248369489E-01 -0.79426628087E-01  0.35871256804E-01  0.88758613676E+00  0.88000000000E+00 0.  1.
        -11    1    4    4    0    0 -0.32750987735E-01  0.15350064842E-01 -0.80979666313E-02  0.37068718252E-01  0.51100000000E-03 0.  1.
         11    1    4    4    0    0 -0.66370628793E-01  0.61322903042E-01 -0.31977958393E-01  0.95856193060E-01  0.51100000000E-03 0. -1.
</event>
<event>
 8    1  0.1084146E+005  0.1043930E+01  0.7957747E-01            NaN
         13   -1    0    0    0    0  0.00000000000E+00  0.00000000000E+00  0.74505805969E-08  0.10566000000E+00  0.10566000000E+00 0. -1.
     999900   -1    0    0    0    0 -0.00000000000E+00 -0.00000000000E+00 -0.74505805969E-08  0.93827000000E+00  0.93827000000E+00 0. -1.
     999902    2    1    2    0    0 -0.98163896320E-02 -0.29018433981E-02 -0.20747210585E-01  0.10207949844E+01  0.10205327879E+01 0.  0.
     999903    2    3    3    0    0  0.48643390068E-01 -0.80746246104E-01 -0.91149823218E-01  0.13263180977E+00  0.19919112254E-01 0.  0.
         14    1    1    2    0    0  0.98163896320E-02  0.29018433981E-02  0.20747210585E-01  0.23135015616E-01  0.00000000000E+00 0. -1.
     999901    1    3    3    0    0 -0.58459779700E-01  0.77844402706E-01  0.70402612633E-01  0.88816317461E+00  0.88000000000E+00 0. -1.
        -11    1    4    4    0    0  0.39344410612E-01 -0.47243273806E-01 -0.55421618548E-01  0.82775156236E-01  0.51100000000E-03 0. -1.
         11    1    4    4    0    0  0.92989794558E-02 -0.33502972297E-01 -0.35728204670E-01  0.49856653534E-01  0.51100000000E-03 0.  1.
</event>
<event>
 8    1  0.1084146E+005  0.1043930E+01  0.7957747E-01            NaN
         13   -1    0    0    0    0  0.00000000000E+00  0.00000000000E+00  0.74505805969E-08  0.10566000000E+00  0.10566000000E+00 0.  1.
     999900   -1    0    0    0    0 -0.00000000000E+00 -0.00000000000E+00 -0.74505805969E-08  0.93827000000E+00  0.93827000000E+00 0.  1.
     999902    2    1    2    0    0 -0.86163866484E-02 -0.60897127896E-03 -0.22475776674E-01  0.10198515137E+01  0.10195672300E+01 0.  0.
     999903    2    3    3    0    0  0.99866897327E-02  0.10458227206E+00 -0.76974989652E-01  0.13171783214E+00  0.19678736507E-01 0.  0.
         14    1    1    2    0    0  0.86163866484E-02  0.60897127896E-03  0.22475776674E-01  0.24078486290E-01  0.00000000000E+00 0.  1.
     999901    1    3    3    0    0 -0.18603076381E-01 -0.10519124334E+00  0.54499212978E-01  0.88813368157E+00  0.88000000000E+00 0.  1.
        -11    1    4    4    0    0  0.54183548683E-04  0.33264656112E-01 -0.14138587194E-01  0.36148320168E-01  0.51100000000E-03 0. -1.
         11    1    4    4    0    0  0.99325061841E-02  0.71317615948E-01 -0.62836402459E-01  0.95569511971E-01  0.51100000000E-03 0.  1.
</event>
<event>
 8    1  0.1084146E+005  0.1043930E+01  0.7957747E-01            NaN
         13   -1    0    0    0    0  0.00000000000E+00  0.00000000000E+00  0.74505805969E-08  0.10566000000E+00  0.10566000000E+00 0. -1.
     999900   -1    0    0    0    0 -0.00000000000E+00 -0.00000000000E+00 -0.74505805969E-08  0.93827000000E+00  0.93827000000E+00 0.  1.
     999902    2    1    2    0    0 -0.14156127982E-01  0.16432403867E-01  0.30281158667E-02  0.10220304716E+01  0.10217958190E+01 0.  0.
     999903    2    3    3    0    0 -0.56387804103E-01  0.90783158634E-01 -0.78480640797E-01  0.13413676933E+00  0.20305062513E-01 0.  0.
         14    1    1    2    0    0  0.14156127982E-01 -0.16432403867E-01 -0.30281158667E-02  0.21899528351E-01  0.00000000000E+00 0. -1.
     999901    1    3    3    0    0  0.42231676121E-01 -0.74350754767E-01  0.81508756664E-01  0.88789370232E+00  0.88000000000E+00 0. -1.
        -11    1    4    4    0    0 -0.11098441811E-01  0.36072454365E-01 -0.26312748569E-01  0.46011077284E-01  0.51100000000E-03 0.  1.
         11    1    4    4    0    0 -0.45289362292E-01  0.54710704269E-01 -0.52167892229E-01  0.88125692048E-01  0.51100000000E-03 0. -1.
</event>
<event>
 7    1  0.1084146E+005  0.1043930E+01  0.7957747E-01            NaN
         13   -1    0    0    0    0  0.00000000000E+00  0.00000000000E+00  0.74505805969E-08  0.10566000000E+00  0.10566000000E+00 0.  1.
     999900   -1    0    0    0    0 -0.00000000000E+00 -0.00000000000E+00 -0.74505805969E-08  0.93827000000E+00  0.93827000000E+00 0.  1.
     999903    2    1    2    0    0  0.92604689034E-01  0.66344098041E-01  0.35413121139E-02  0.11480578399E+00  0.13807945908E-01 0.  0.
         14    1    1    2    0    0 -0.57165461308E-02 -0.29871795981E-01  0.30988498543E-01  0.43419927876E-01  0.00000000000E+00 0.  1.
     999901    1    1    2    0    0 -0.86888142904E-01 -0.36472302060E-01 -0.34529810657E-01  0.88570428813E+00  0.88000000000E+00 0.  1.
        -11    1    3    3    0    0  0.76555086724E-01  0.56598143475E-01  0.78643965111E-02  0.95530837961E-01  0.51100000000E-03 0. -1.
         11    1    3    3    0    0  0.16049602310E-01  0.97459545662E-02 -0.43230843972E-02  0.19274946029E-01  0.51100000000E-03 0.  1.
</event>
<event>
 8    1  0.1084146E+005  0.1043930E+01  0.7957747E-01            NaN
         13   -1    0    0    0    0  0.00000000000E+00  0.00000000000E+00  0.74505805969E-08  0.10566000000E+00  0.10566000000E+00 0.  1.
     999900   -1    0    0    0    0 -0.00000000000E+00 -0.00000000000E+00 -0.74505805969E-08  0.93827000000E+00  0.93827000000E+00 0. -1.
     999902    2    1    2    0    0 -0.48265436106E-02  0.15289864692E-02  0.22995478692E-01  0.10203837612E+01  0.10201120501E+01 0.  0.
     999903    2    3    3    0    0  0.57167123001E-03 -0.83677572479E-01  0.10149725263E+00  0.13277358383E+00  0.18024131777E-01 0.  0.
         14    1    1    2    0    0  0.48265436106E-02 -0.15289864692E-02 -0.22995478692E-01  0.23546238832E-01  0.00000000000E+00 0. -1.
     999901    1    3    3    0    0 -0.53982148406E-02  0.85206558948E-01 -0.78501773939E-01  0.88761017734E+00  0.88000000000E+00 0. -1.
        -11    1    4    4    0    0  0.82014300722E-02 -0.24011766292E-01  0.32527946581E-01  0.41257203074E-01  0.51100000000E-03 0. -1.
         11    1    4    4    0    0 -0.76297588421E-02 -0.59665806187E-01  0.68969306050E-01  0.91516380752E-01  0.51100000000E-03 0.  1.
</event>
<event>
 8    1  0.1084146E+005  0.1043930E+01  0.7957747E-01            NaN
         13   -1    0    0    0    0  0.00000000000E+00  0.00000000000E+00  0.74505805969E-08  0.10566000000E+00  0.10566000000E+00 0. -1.
     999900   -1    0    0    0    0 -0.00000000000E+00 -0.00000000000E+00 -0.74505805969E-08  0.93827000000E+00  0.93827000000E+00 0. -1.
     999902    2    1    2    0    0  0.19696136537E-01  0.18366449675E-02  0.10544897569E-01  0.10215133561E+01  0.10212673650E+01 0.  0.
     999903    2    3    3    0    0 -0.11022863719E+00  0.59750950742E-01 -0.24771046955E-01  0.12939131872E+00  0.20198515316E-01 0.  0.
         14    1    1    2    0    0 -0.19696136537E-01 -0.18366449675E-02 -0.10544897569E-01  0.22416643905E-01  0.00000000000E+00 0.  1.
     999901    1    3    3    0    0  0.12992477372E+00 -0.57914305775E-01  0.35315944524E-01  0.89212203738E+00  0.88000000000E+00 0.  1.
        -11    1    4    4    0    0 -0.86038256592E-01  0.36567196741E-01 -0.18287806952E-01  0.95259889140E-01  0.51100000000E-03 0.  1.
         11    1    4    4    0    0 -0.24190380595E-01  0.23183754001E-01 -0.64832400030E-02  0.34131429576E-01  0.51100000000E-03 0. -1.
</event>
<event>
 8    1  0.1084146E+005  0.1043930E+01  0.7957747E-01            NaN
         13   -1    0    0    0    0  0.00000000000E+00  0.00000000000E+00  0.74505805969E-08  0.10566000000E+00  0.10566000000E+00 0. -1.
     999900   -1    0    0    0    0 -0.00000000000E+00 -0.00000000000E+00 -0.74505805969E-08  0.93827000000E+00  0.93827000000E+00 0. -1.
     999902    2    1    2    0    0 -0.95442405143E-02  0.60755911475E-03  0.21546245712E-01  0.10203566600E+01  0.10200843157E+01 0.  0.
     999903    2    3    3    0    0  0.20995036085E-02  0.12359086907E+00  0.40296095618E-01  0.13153045190E+00  0.19934232452E-01 0.  0.
         14    1    1    2    0    0  0.95442405143E-02 -0.60755911475E-03 -0.21546245712E-01  0.23573340012E-01  0.00000000000E+00 0.  1.
     999901    1    3    3    0    0 -0.11643744123E-01 -0.12298330995E+00 -0.18749849907E-01  0.88882620808E+00  0.88000000000E+00 0.  1.
        -11    1    4    4    0    0  0.68622754401E-02  0.11321821197E+00  0.39379069786E-01  0.12006842467E+00  0.51100000000E-03 0. -1.
         11    1    4    4    0    0 -0.47627718316E-02  0.10372657103E-01  0.91702583175E-03  0.11462027232E-01  0.51100000000E-03 0.  1.
</event>
<event>
 8    1  0.1084146E+005  0.1043930E+01  0.7957747E-01            NaN
         13   -1    0    0    0    0  0.00000000000E+00  0.00000000000E+00  0.74505805969E-08  0.10566000000E+00  0.10566000000E+00 0. -1.
     999900   -1    0    0    0    0 -0.00000000000E+00 -0.00000000000E+00 -0.74505805969E-08  0.93827000000E+00  0.93827000000E+00 0. -1.
     999902    2    1    2    0    0 -0.14784105520E-01  0.50333055371E-02  0.11007817998E-01  0.10248230380E+01  0.10246449059E+01 0.  0.
     999903    2    3    3    0    0 -0.22139250990E-01  0.38635822636E-01  0.12742031396E+00  0.13649027570E+00  0.20267849555E-01 0.  0.
         14    1    1    2    0    0  0.14784105520E-01 -0.50333055371E-02 -0.11007817998E-01  0.19106962022E-01  0.00000000000E+00 0.  1.
     999901    1    3    3    0    0  0.73551454705E-02 -0.33602517099E-01 -0.11641249596E+00  0.88833276228E+00  0.88000000000E+00 0. -1.
        -11    1    4    4    0    0 -0.77434020719E-02  0.20131949074E-02  0.11095182787E-01  0.13688587636E-01  0.51100000000E-03 0.  1.
         11    1    4    4    0    0 -0.14395848918E-01  0.36622627729E-01  0.11632513117E+00  0.12280168806E+00  0.51100000000E-03 0. -1.
</event>
<event>
 8    1  0.1084146E+005  0.1043930E+01  0.7957747E-01            NaN
         13   -1    0    0    0    0  0.00000000000E+00  0.00000000000E+00  0.74505805969E-08  0.10566000000E+00  0.10566000000E+00 0. -1.
     999900   -1    0    0    0    0 -0.00000000000E+00 -0.00000000000E+00 -0.74505805969E-08  0.93827000000E+00  0.93827000000E+00 0. -1.
     999902    2    1    2    0    0 -0.49704328632E-02 -0.52453113622E-02 -0.22435667057E-01  0.10203593053E+01  0.10200870228E+01 0.  0.
     999903    2    3    3    0    0  0.59175261886E-01 -0.54595141393E-01  0.97292001906E-01  0.12857189192E+00  0.24138282337E-01 0.  0.
         14    1    1    2    0    0  0.49704328632E-02  0.52453113622E-02  0.22435667057E-01  0.23570694738E-01  0.00000000000E+00 0. -1.
     999901    1    3    3    0    0 -0.64145694750E-01  0.49349830031E-01 -0.11972766896E+00  0.89178741334E+00  0.88000000000E+00 0. -1.
        -11    1    4    4    0    0  0.40974723756E-01 -0.21500583865E-01  0.52871616259E-01  0.70262877968E-01  0.51100000000E-03 0. -1.
         11    1    4    4    0    0  0.18200538130E-01 -0.33094557527E-01  0.44420385647E-01  0.58309013953E-01  0.51100000000E-03 0.  1.
</event>
<event>
 8    1  0.1084146E+005  0.1043930E+01  0.7957747E-01            NaN
         13   -1    0    0    0    0  0.00000000000E+00  0.00000000000E+00  0.74505805969E-08  0.10566000000E+00  0.10566000000E+00 0. -1.
     999900   -1    0    0    0    0 -0.00000000000E+00 -0.00000000000E+00 -0.74505805969E-08  0.93827000000E+00  0.93827000000E+00 0. -1.
     999902    2    1    2    0    0 -0.91006853875E-02 -0.29236632665E-01  0.15839686493E-01  0.10094553886E+01  0.10088665336E+01 0.  0.
     999903    2    3    3    0    0 -0.46523045627E-01 -0.11378606451E+00  0.34246901335E-02  0.12452422086E+00  0.19567596383E-01 0.  0.
         14    1    1    2    0    0  0.91006853875E-02  0.29236632665E-01 -0.15839686493E-01  0.34474611416E-01  0.00000000000E+00 0.  1.
     999901    1    3    3    0    0  0.37422360240E-01  0.84549431843E-01  0.12414996359E-01  0.88493116772E+00  0.88000000000E+00 0.  1.
        -11    1    4    4    0    0 -0.31295839620E-01 -0.84930904615E-01  0.10541378443E-01  0.91126669623E-01  0.51100000000E-03 0. -1.
         11    1    4    4    0    0 -0.15227206008E-01 -0.28855159893E-01 -0.71166883092E-02  0.33397551239E-01  0.51100000000E-03 0.  1.
</event>
<event>
 8    1  0.1084146E+005  0.1043930E+01  0.7957747E-01            NaN
         13   -1    0    0    0    0  0.00000000000E+00  0.00000000000E+00  0.74505805969E-08  0.10566000000E+00  0.10566000000E+00 0. -1.
     999900   -1    0    0    0    0 -0.00000000000E+00 -0.00000000000E+00 -0.74505805969E-08  0.93827000000E+00  0.93827000000E+00 0.  1.
     999902    2    1    2    0    0 -0.20849637194E-01 -0.62077780241E-02 -0.10057782192E-01  0.10199632968E+01  0.10196816778E+01 0.  0.
     999903    2    3    3    0    0 -0.90331928266E-01  0.36144068510E-01 -0.88076558089E-01  0.13277200004E+00  0.20116484702E-01 0.  0.
         14    1    1    2    0    0  0.20849637194E-01  0.62077780241E-02  0.10057782192E-01  0.23966703189E-01  0.00000000000E+00 0. -1.
     999901    1    3    3    0    0  0.69482291072E-01 -0.42351846534E-01  0.78018775896E-01  0.88719129677E+00  0.88000000000E+00 0. -1.
        -11    1    4    4    0    0 -0.27460468288E-01  0.82966899574E-02 -0.38428754865E-01  0.47957717881E-01  0.51100000000E-03 0. -1.
         11    1    4    4    0    0 -0.62871459978E-01  0.27847378553E-01 -0.49647803223E-01  0.84814282157E-01  0.51100000000E-03 0.  1.
</event>
<event>
 8    1  0.1084146E+005  0.1043930E+01  0.7957747E-01            NaN
         13   -1    0    0    0    0  0.00000000000E+00  0.00000000000E+00  0.74505805969E-08  0.10566000000E+00  0.10566000000E+00 0. -1.
     999900   -1    0    0    0    0 -0.00000000000E+00 -0.00000000000E+00 -0.74505805969E-08  0.93827000000E+00  0.93827000000E+00 0. -1.
     999902    2    1    2    0    0  0.28915246041E-02 -0.23417804605E-01  0.46380345510E-03  0.10203297966E+01  0.10200568240E+01 0.  0.
     999903    2    3    3    0    0  0.74856017492E-01  0.34851285222E-01  0.98474911409E-01  0.13005997663E+00  0.20006346658E-01 0.  0.
         14    1    1    2    0    0 -0.28915246041E-02  0.23417804605E-01 -0.46380345510E-03  0.23600203404E-01  0.00000000000E+00 0.  1.
     999901    1    3    3    0    0 -0.71964492888E-01 -0.58269089827E-01 -0.98011107954E-01  0.89026981997E+00  0.88000000000E+00 0. -1.
        -11    1    4    4    0    0  0.10151086518E-01  0.59479914533E-02  0.26758163488E-01  0.29234972107E-01  0.51100000000E-03 0.  1.
         11    1    4    4    0    0  0.64704930974E-01  0.28903293769E-01  0.71716747921E-01  0.10082500452E+00  0.51100000000E-03 0. -1.
</event>
<event>
 8    1  0.1084146E+005  0.1043930E+01  0.7957747E-01            NaN
         13   -1    0    0    0    0  0.00000000000E+00  0.00000000000E+00  0.74505805969E-08  0.10566000000E+00  0.10566000000E+00 0.  1.
     999900   -1    0    0    0    0 -0.00000000000E+00 -0.00000000000E+00 -0.74505805969E-08  0.93827000000E+00  0.93827000000E+00 0.  1.
     999902    2    1    2    0    0  0.22850339083E-02  0.22508759255E-01  0.57321499899E-02  0.10205906948E+01  0.10203237933E+01 0.  0.
     999903    2    3    3    0    0 -0.10711180601E+00 -0.44636904342E-01 -0.53436002031E-01  0.12931235504E+00  0.20022153669E-01 0.  0.
         14    1    1    2    0    0 -0.22850339083E-02 -0.22508759255E-01 -0.57321499899E-02  0.23339305189E-01  0.00000000000E+00 0. -1.
     999901    1    3    3    0    0  0.10939683992E+00  0.67145663597E-01  0.59168152021E-01  0.89127833977E+00  0.88000000000E+00 0. -1.
        -11    1    4    4    0    0 -0.23716112686E-01 -0.15074873030E-01 -0.53588504148E-02  0.28612657978E-01  0.51100000000E-03 0. -1.
         11    1    4    4    0    0 -0.83395693326E-01 -0.29562031312E-01 -0.48077151616E-01  0.10069969707E+00  0.51100000000E-03 0.  1.
</event>
<event>
 8    1  0.1084146E+005  0.1043930E+01  0.7957747E-01            NaN
         13   -1    0    0    0    0  0.00000000000E+00  0.00000000000E+00  0.74505805969E-08  0.10566000000E+00  0.10566000000E+00 0. -1.
     999900   -1    0    0    0    0 -0.00000000000E+00 -0.00000000000E+00 -0.74505805969E-08  0.93827000000E+00  0.93827000000E+00 0.  1.
     999902    2    1    2    0    0  0.95261328090E-02 -0.12757510595E-02  0.21990347665E-01  0.10199310388E+01  0.10196486521E+01 0.  0.
     999903    2    3    3    0    0 -0.85443990690E-01  0.94933693774E-01  0.10220113264E-01  0.12952993817E+00  0.18986110928E-01 0.  0.
         14    1    1    2    0    0 -0.95261328090E-02  0.12757510595E-02 -0.21990347665E-01  0.23998961175E-01  0.00000000000E+00 0.  1.
     999901    1    3    3    0    0  0.94970123499E-01 -0.96209444834E-01  0.11770234401E-01  0.89040110066E+00  0.88000000000E+00 0.  1.
        -11    1    4    4    0    0 -0.35373346323E-01  0.49167883781E-01  0.11628288015E-01  0.61678461628E-01  0.51100000000E-03 0. -1.
         11    1    4    4    0    0 -0.50070644367E-01  0.45765809993E-01 -0.14081747506E-02  0.67851476541E-01  0.51100000000E-03 0.  1.
</event>
<event>
 8    1  0.1084146E+005  0.1043930E+01  0.7957747E-01            NaN
         13   -1    0    0    0    0  0.00000000000E+00  0.00000000000E+00  0.74505805969E-08  0.10566000000E+00  0.10566000000E+00 0.  1.
     999900   -1    0    0    0    0 -0.00000000000E+00 -0.00000000000E+00 -0.74505805969E-08  0.93827000000E+00  0.93827000000E+00 0.  1.
     999902    2    1    2    0    0 -0.10507354857E-02  0.12557640024E-02 -0.22703275346E-01  0.10211677571E+01  0.10209140358E+01 0.  0.
     999903    2    3    3    0    0  0.63490038425E-01 -0.67386717984E-01 -0.93962104189E-01  0.13327411345E+00  0.19004145652E-01 0.  0.
         14    1    1    2    0    0  0.10507354857E-02 -0.12557640024E-02  0.22703275346E-01  0.22762242854E-01  0.00000000000E+00 0.  1.
     999901    1    3    3    0    0 -0.64540773911E-01  0.68642481987E-01  0.71258828842E-01  0.88789364370E+00  0.88000000000E+00 0. -1.
        -11    1    4    4    0    0  0.51917416719E-01 -0.43369371581E-01 -0.71212632257E-01  0.98223320368E-01  0.51100000000E-03 0.  1.
         11    1    4    4    0    0  0.11572621706E-01 -0.24017346403E-01 -0.22749471932E-01  0.35050793080E-01  0.51100000000E-03 0. -1.
</event>
<event>
 8    1  0.1084146E+005  0.1043930E+01  0.7957747E-01            NaN
         13   -1    0    0    0    0  0.00000000000E+00  0.00000000000E+00  0.74505805969E-08  0.10566000000E+00  0.10566000000E+00 0. -1.
     999900   -1    0    0    0    0 -0.00000000000E+00 -0.00000000000E+00 -0.74505805969E-08  0.93827000000E+00  0.93827000000E+00 0. -1.
     999902    2    1    2    0    0 -0.18993975763E-02 -0.46468779476E-02  0.23746657703E-01  0.10196585160E+01  0.10193696014E+01 0.  0.
     999903    2    3    3    0    0 -0.11642369845E-01  0.33799876963E-01  0.12581758190E+00  0.13287130808E+00  0.23382560576E-01 0.  0.
         14    1    1    2    0    0  0.18993975763E-02  0.46468779476E-02 -0.23746657703E-01  0.24271484048E-01  0.00000000000E+00 0.  1.
     999901    1    3    3    0    0  0.97429722687E-02 -0.38446754911E-01 -0.10207092419E+00  0.88678720787E+00  0.88000000000E+00 0. -1.
        -11    1    4    4    0    0  0.41104761457E-02  0.15386874373E-01  0.29253007342E-01  0.33311431621E-01  0.51100000000E-03 0.  1.
         11    1    4    4    0    0 -0.15752845991E-01  0.18413002590E-01  0.96564574556E-01  0.99559876463E-01  0.51100000000E-03 0. -1.
</event>
<event>
 8    1  0.1084146E+005  0.1043930E+01  0.7957747E-01            NaN
         13   -1    0    0    0    0  0.00000000000E+00  0.00000000000E+00  0.74505805969E-08  0.10566000000E+00  0.10566000000E+00 0.  1.
     999900   -1    0    0    0    0 -0.00000000000E+00 -0.00000000000E+00 -0.74505805969E-08  0.93827000000E+00  0.93827000000E+00 0. -1.
     999902    2    1    2    0    0  0.23794391200E-01 -0.71359862930E-02 -0.70671387519E-03  0.10190785454E+01  0.10187754840E+01 0.  0.
     999903    2    3    3    0    0 -0.84304036764E-01  0.87150223938E-01  0.31859996200E-01  0.12687018956E+00  0.19459020880E-01 0.  0.
         14    1    1    2    0    0 -0.23794391200E-01  0.71359862930E-02  0.70671387519E-03  0.24851454634E-01  0.00000000000E+00 0. -1.
     999901    1    3    3    0    0  0.10809842796E+00 -0.94286210231E-01 -0.32566710075E-01  0.89220835581E+00  0.88000000000E+00 0. -1.
        -11    1    4    4    0    0 -0.47317273593E-01  0.58040005919E-01  0.12263941973E-01  0.75883015630E-01  0.51100000000E-03 0. -1.
         11    1    4    4    0    0 -0.36986763170E-01  0.29110218019E-01  0.19596054227E-01  0.50987173928E-01  0.51100000000E-03 0.  1.
</event>
<event>
 8    1  0.1084146E+005  0.1043930E+01  0.7957747E-01            NaN
         13   -1    0    0    0    0  0.00000000000E+00  0.00000000000E+00  0.74505805969E-08  0.10566000000E+00  0.10566000000E+00 0.  1.
     999900   -1    0    0    0    0 -0.00000000000E+00 -0.00000000000E+00 -0.74505805969E-08  0.93827000000E+00  0.93827000000E+00 0. -1.
     999902    2    1    2    0    0 -0.14393002788E-01 -0.19598358282E-01  0.15187835748E-01  0.10152607738E+01  0.10148559081E+01 0.  0.
     999903    2    3    3    0    0 -0.10579404975E+00 -0.63942973553E-02  0.68437472878E-01  0.12882745850E+00  0.26068340343E-01 0.  0.
         14    1    1    2    0    0  0.14393002788E-01  0.19598358282E-01 -0.15187835748E-01  0.28669226207E-01  0.00000000000E+00 0. -1.
     999901    1    3    3    0    0  0.91401046962E-01 -0.13204060926E-01 -0.53249637129E-01  0.88643331530E+00  0.88000000000E+00 0. -1.
        -11    1    4    4    0    0 -0.72301510679E-01 -0.71373287905E-02  0.32187772562E-01  0.79465487680E-01  0.51100000000E-03 0.  1.
         11    1    4    4    0    0 -0.33492539071E-01  0.74303143520E-03  0.36249700316E-01  0.49361970819E-01  0.51100000000E-03 0. -1.
</event>
<event>
 8    1  0.1084146E+005  0.1043930E+01  0.7957747E-01            NaN
         13   -1    0    0    0    0  0.00000000000E+00  0.00000000000E+00  0.74505805969E-08  0.10566000000E+00  0.10566000000E+00 0.  1.
     999900   -1    0    0    0    0 -0.00000000000E+00 -0.00000000000E+00 -0.74505805969E-08  0.93827000000E+00  0.93827000000E+00 0. -1.
     999902    2    1    2    0    0 -0.16179631442E-01  0.17649085313E-02  0.20458086637E-01  0.10177875310E+01  0.10174517333E+01 0.  0.
     999903    2    3    3    0    0  0.12702782950E-01 -0.12568983094E+00 -0.28389779690E-03  0.12789476535E+00  0.19942319541E-01 0.  0.
         14    1    1    2    0    0  0.16179631442E-01 -0.17649085313E-02 -0.20458086637E-01  0.26142468984E-01  0.00000000000E+00 0.  1.
     999901    1    3    3    0    0 -0.28882414392E-01  0.12745473947E+00  0.20741984434E-01  0.88989276567E+00  0.88000000000E+00 0.  1.
        -11    1    4    4    0    0  0.12707318639E-01 -0.10398551898E+00 -0.74693085296E-02  0.10502626241E+00  0.51100000000E-03 0.  1.
         11    1    4    4    0    0 -0.45356893469E-05 -0.21704311957E-01  0.71854107327E-02  0.22868502935E-01  0.51100000000E-03 0. -1.
</event>
<event>
 8    1  0.1084146E+005  0.1043930E+01  0.7957747E-01            NaN
         13   -1    0    0    0    0  0.00000000000E+00  0.00000000000E+00  0.74505805969E-08  0.10566000000E+00  0.10566000000E+00 0.  1.
     999900   -1    0    0    0    0 -0.00000000000E+00 -0.00000000000E+00 -0.74505805969E-08  0.93827000000E+00  0.93827000000E+00 0. -1.
     999902    2    1    2    0    0 -0.69139398385E-02  0.17958428180E-01  0.13135903335E-01  0.10206306510E+01  0.10203646731E+01 0.  0.
     999903    2    3    3    0    0  0.56475059970E-01  0.78416522834E-01 -0.85940562329E-01  0.13074892148E+00  0.19259199436E-01 0.  0.
         14    1    1    2    0    0  0.69139398385E-02 -0.17958428180E-01 -0.13135903335E-01  0.23299348987E-01  0.00000000000E+00 0. -1.
     999901    1    3    3    0    0 -0.63388999809E-01 -0.60458094654E-01  0.99076465665E-01  0.88988172953E+00  0.88000000000E+00 0.  1.
        -11    1    4    4    0    0  0.32837318749E-01  0.47974995471E-01 -0.63721207099E-01  0.86258582461E-01  0.51100000000E-03 0.  1.
         11    1    4    4    0    0  0.23637741221E-01  0.30441527364E-01 -0.22219355231E-01  0.44490339020E-01  0.51100000000E-03 0. -1.
</event>
<event>
 8    1  0.1084146E+005  0.1043930E+01  0.7957747E-01            NaN
         13   -1    0    0    0    0  0.00000000000E+00  0.00000000000E+00  0.74505805969E-08  0.10566000000E+00  0.10566000000E+00 0.  1.
     999900   -1    0    0    0    0 -0.00000000000E+00 -0.00000000000E+00 -0.74505805969E-08  0.93827000000E+00  0.93827000000E+00 0. -1.
     999902    2    1    2    0    0  0.92857537761E-03 -0.18506553093E-01 -0.26643400584E-01  0.10114765633E+01  0.10109557916E+01 0.  0.
     999903    2    3    3    0    0 -0.11968325108E+00 -0.18431017212E-01 -0.10668118886E-01  0.12310590415E+00  0.19428635885E-01 0.  0.
         14    1    1    2    0    0 -0.92857537761E-03  0.18506553093E-01  0.26643400584E-01  0.32453436710E-01  0.00000000000E+00 0.  1.
     999901    1    3    3    0    0  0.12061182646E+00 -0.75535881493E-04 -0.15975281698E-01  0.88837065914E+00  0.88000000000E+00 0.  1.
        -11    1    4    4    0    0 -0.29610725598E-01 -0.12793759817E-01 -0.29758557064E-03  0.32261820142E-01  0.51100000000E-03 0. -1.
         11    1    4    4    0    0 -0.90072525483E-01 -0.56372573944E-02 -0.10370533315E-01  0.90844084013E-01  0.51100000000E-03 0.  1.
</event>
<event>
 8    1  0.1084146E+005  0.1043930E+01  0.7957747E-01            NaN
         13   -1    0    0    0    0  0.00000000000E+00  0.00000000000E+00  0.74505805969E-08  0.10566000000E+00  0.10566000000E+00 0.  1.
     999900   -1    0    0    0    0 -0.00000000000E+00 -0.00000000000E+00 -0.74505805969E-08  0.93827000000E+00  0.93827000000E+00 0.  1.
     999902    2    1    2    0    0 -0.60578962923E-02 -0.23083897646E-01 -0.42093219207E-02  0.10196960810E+01  0.10194080708E+01 0.  0.
     999903    2    3    3    0    0 -0.39966027187E-01  0.10838776351E+00  0.50624719129E-01  0.12759668573E+00  0.19309619717E-01 0.  0.
         14    1    1    2    0    0  0.60578962923E-02  0.23083897646E-01  0.42093219207E-02  0.24233918979E-01  0.00000000000E+00 0.  1.
     999901    1    3    3    0    0  0.33908130894E-01 -0.13147166116E+00 -0.54834041050E-01  0.89209939530E+00  0.88000000000E+00 0.  1.
        -11    1    4    4    0    0 -0.38984811296E-01  0.95754462674E-01  0.50143543642E-01  0.11490591248E+00  0.51100000000E-03 0.  1.
         11    1    4    4    0    0 -0.98121589030E-03  0.12633300836E-01  0.48117548726E-03  0.12690773242E-01  0.51100000000E-03 0. -1.
</event>
<event>
 8    1  0.1084146E+005  0.1043930E+01  0.7957747E-01            NaN
         13   -1    0    0    0    0  0.00000000000E+00  0.00000000000E+00  0.74505805969E-08  0.10566000000E+00  0.10566000000E+00 0. -1.
     999900   -1    0    0    0    0 -0.00000000000E+00 -0.00000000000E+00 -0.74505805969E-08  0.93827000000E+00  0.93827000000E+00 0.  1.
     999902    2    1    2    0    0  0.19967892854E-01  0.90236465193E-02 -0.10160997183E-01  0.10197765571E+01  0.10194904794E+01 0.  0.
     999903    2    3    3    0    0 -0.11546592932E+00  0.51147930083E-01 -0.38113838264E-02  0.12839723656E+00  0.22865522590E-01 0.  0.
         14    1    1    2    0    0 -0.19967892854E-01 -0.90236465193E-02  0.10160997183E-01  0.24153442928E-01  0.00000000000E+00 0.  1.
     999901    1    3    3    0    0  0.13543382217E+00 -0.42124283564E-01 -0.63496133562E-02  0.89137932052E+00  0.88000000000E+00 0.  1.
        -11    1    4    4    0    0 -0.49528031998E-01  0.25564457156E-01  0.91661624217E-02  0.56487583395E-01  0.51100000000E-03 0. -1.
         11    1    4    4    0    0 -0.65937897320E-01  0.25583472927E-01 -0.12977546248E-01  0.71909653160E-01  0.51100000000E-03 0.  1.
</event>
<event>
 8    1  0.1084146E+005  0.1043930E+01  0.7957747E-01            NaN
         13   -1    0    0    0    0  0.00000000000E+00  0.00000000000E+00  0.74505805969E-08  0.10566000000E+00  0.10566000000E+00 0. -1.
     999900   -1    0    0    0    0 -0.00000000000E+00 -0.00000000000E+00 -0.74505805969E-08  0.93827000000E+00  0.93827000000E+00 0. -1.
     999902    2    1    2    0    0  0.20349891609E-01 -0.10891416273E-01 -0.67105187702E-02  0.10198931096E+01  0.10196098190E+01 0.  0.
     999903    2    3    3    0    0 -0.11402837386E-01  0.57791257765E-02  0.12690633019E+00  0.12908470985E+00  0.19855041684E-01 0.  0.
         14    1    1    2    0    0 -0.20349891609E-01  0.10891416273E-01  0.67105187702E-02  0.24036890379E-01  0.00000000000E+00 0. -1.
     999901    1    3    3    0    0  0.31752728994E-01 -0.16670542050E-01 -0.13361684896E+00  0.89080839977E+00  0.88000000000E+00 0. -1.
        -11    1    4    4    0    0 -0.87125447908E-02  0.12844973787E-01  0.71832528920E-01  0.73492007187E-01  0.51100000000E-03 0. -1.
         11    1    4    4    0    0 -0.26902925949E-02 -0.70658480103E-02  0.55073801271E-01  0.55592702667E-01  0.51100000000E-03 0.  1.
</event>
<event>
 8    1  0.1084146E+005  0.1043930E+01  0.7957747E-01            NaN
         13   -1    0    0    0    0  0.00000000000E+00  0.00000000000E+00  0.74505805969E-08  0.10566000000E+00  0.10566000000E+00 0.  1.
     999900   -1    0    0    0    0 -0.00000000000E+00 -0.00000000000E+00 -0.74505805969E-08  0.93827000000E+00  0.93827000000E+00 0.  1.
     999902    2    1    2    0    0  0.96226907424E-02  0.21577226485E-01  0.13440227609E-02  0.10202661187E+01  0.10199916538E+01 0.  0.
     999903    2    3    3    0    0  0.76580472249E-01  0.86567197367E-01 -0.62592181576E-01  0.13302608410E+00  0.20486811993E-01 0.  0.
         14    1    1    2    0    0 -0.96226907424E-02 -0.21577226485E-01 -0.13440227609E-02  0.23663881277E-01  0.00000000000E+00 0. -1.
     999901    1    3    3    0    0 -0.66957781507E-01 -0.64989970882E-01  0.63936204337E-01  0.88724003463E+00  0.88000000000E+00 0. -1.
        -11    1    4    4    0    0  0.23023452139E-01  0.34017769893E-01 -0.31670173292E-01  0.51870502352E-01  0.51100000000E-03 0. -1.
         11    1    4    4    0    0  0.53557020110E-01  0.52549427474E-01 -0.30922008284E-01  0.81155581744E-01  0.51100000000E-03 0.  1.
</event>
<event>
 8    1  0.1084146E+005  0.1043930E+01  0.7957747E-01            NaN
         13   -1    0    0    0    0  0.00000000000E+00  0.00000000000E+00  0.74505805969E-08  0.10566000000E+00  0.10566000000E+00 0. -1.
     999900   -1    0    0    0    0 -0.00000000000E+00 -0.00000000000E+00 -0.74505805969E-08  0.93827000000E+00  0.93827000000E+00 0. -1.
     999902    2    1    2    0    0 -0.11762677200E-01  0.18143400465E-01  0.13899488234E-01  0.10182251497E+01  0.10179006416E+01 0.  0.
     999903    2    3    3    0    0  0.10710348722E+00  0.60510420077E-01  0.33503777744E-01  0.12900725877E+00  0.19690144267E-01 0.  0.
         14    1    1    2    0    0  0.11762677200E-01 -0.18143400465E-01 -0.13899488234E-01  0.25704850292E-01  0.00000000000E+00 0.  1.
     999901    1    3    3    0    0 -0.11886616441E+00 -0.42367019612E-01 -0.19604289509E-01  0.88921789094E+00  0.88000000000E+00 0.  1.
        -11    1    4    4    0    0  0.67088947985E-01  0.48525370954E-01  0.21649478137E-01  0.85583874606E-01  0.51100000000E-03 0.  1.
         11    1    4    4    0    0  0.40014539230E-01  0.11985049123E-01  0.11854299607E-01  0.43423384166E-01  0.51100000000E-03 0. -1.
</event>
<event>
 8    1  0.1084146E+005  0.1043930E+01  0.7957747E-01            NaN
         13   -1    0    0    0    0  0.00000000000E+00  0.00000000000E+00  0.74505805969E-08  0.10566000000E+00  0.10566000000E+00 0.  1.
     999900   -1    0    0    0    0 -0.00000000000E+00 -0.00000000000E+00 -0.74505805969E-08  0.93827000000E+00  0.93827000000E+00 0.  1.
     999902    2    1    2    0    0 -0.76760767244E-02  0.15813120191E-01 -0.16571436321E-01  0.10197724044E+01  0.10194862271E+01 0.  0.
     999903    2    3    3    0    0  0.36041752873E-01 -0.29043063964E-01 -0.12130901667E+00  0.13135060894E+00  0.19864476589E-01 0.  0.
         14    1    1    2    0    0  0.76760767244E-02 -0.15813120191E-01  0.16571436321E-01  0.24157595613E-01  0.00000000000E+00 0.  1.
     999901    1    3    3    0    0 -0.43717829597E-01  0.44856184154E-01  0.10473758035E+00  0.88842179544E+00  0.88000000000E+00 0. -1.
        -11    1    4    4    0    0  0.23398790512E-01 -0.29560169207E-01 -0.91332079671E-01  0.98808485967E-01  0.51100000000E-03 0. -1.
         11    1    4    4    0    0  0.12642962360E-01  0.51710524338E-03 -0.29976936998E-01  0.32542122977E-01  0.51100000000E-03 0.  1.
</event>
<event>
 8    1  0.1084146E+005  0.1043930E+01  0.7957747E-01            NaN
         13   -1    0    0    0    0  0.00000000000E+00  0.00000000000E+00  0.74505805969E-08  0.10566000000E+00  0.10566000000E+00 0.  1.
     999900   -1    0    0    0    0 -0.00000000000E+00 -0.00000000000E+00 -0.74505805969E-08  0.93827000000E+00  0.93827000000E+00 0. -1.
     999902    2    1    2    0    0  0.12436614182E-01  0.93464544519E-02  0.17446940041E-01  0.10205543439E+01  0.10202866007E+01 0.  0.
     999903    2    3    3    0    0  0.44133804934E-01  0.11477683543E-02  0.12434852869E+00  0.13348057015E+00  0.20134445835E-01 0.  0.
         14    1    1    2    0    0 -0.12436614182E-01 -0.93464544519E-02 -0.17446940041E-01  0.23375656139E-01  0.00000000000E+00 0.  1.
     999901    1    3    3    0    0 -0.31697190753E-01  0.81986860976E-02 -0.10690158865E+00  0.88707377371E+00  0.88000000000E+00 0. -1.
        -11    1    4    4    0    0  0.36676829841E-01 -0.52237541270E-02  0.11016437865E+00  0.11622791790E+00  0.51100000000E-03 0. -1.
         11    1    4    4    0    0  0.74569750929E-02  0.63715224813E-02  0.14184150038E-01  0.17252652247E-01  0.51100000000E-03 0.  1.
</event>
<event>
 8    1  0.1084146E+005  0.1043930E+01  0.7957747E-01            NaN
         13   -1    0    0    0    0  0.00000000000E+00  0.00000000000E+00  0.74505805969E-08  0.10566000000E+00  0.10566000000E+00 0. -1.
     999900   -1    0    0    0    0 -0.00000000000E+00 -0.00000000000E+00 -0.74505805969E-08  0.93827000000E+00  0.93827000000E+00 0.  1.
     999902    2    1    2    0    0 -0.73803137023E-02  0.24749570397E-01  0.26926411506E-03  0.10181020545E+01  0.10177743908E+01 0.  0.
     999903    2    3    3    0    0 -0.45902601463E-01 -0.93483651030E-03 -0.11869990526E+00  0.12889042690E+00  0.20375276648E-01 0.  0.
         14    1    1    2    0    0  0.73803137023E-02 -0.24749570397E-01 -0.26926411506E-03  0.25827945492E-01  0.00000000000E+00 0. -1.
     999901    1    3    3    0    0  0.38522287761E-01  0.25684406907E-01  0.11896916937E+00  0.88921162761E+00  0.88000000000E+00 0. -1.
        -11    1    4    4    0    0 -0.77758409598E-02  0.58555766237E-02 -0.40082990412E-01  0.41251166306E-01  0.51100000000E-03 0. -1.
         11    1    4    4    0    0 -0.38126760503E-01 -0.67904131340E-02 -0.78616914843E-01  0.87639260594E-01  0.51100000000E-03 0.  1.
</event>
<event>
 8    1  0.1084146E+005  0.1043930E+01  0.7957747E-01            NaN
         13   -1    0    0    0    0  0.00000000000E+00  0.00000000000E+00  0.74505805969E-08  0.10566000000E+00  0.10566000000E+00 0.  1.
     999900   -1    0    0    0    0 -0.00000000000E+00 -0.00000000000E+00 -0.74505805969E-08  0.93827000000E+00  0.93827000000E+00 0. -1.
     999902    2    1    2    0    0  0.19300487788E-01 -0.58843154170E-03 -0.13197656469E-01  0.10205412588E+01  0.10202732122E+01 0.  0.
     999903    2    3    3    0    0 -0.26759967837E-01  0.24527326790E-01 -0.12516867905E+00  0.13189629209E+00  0.20291574960E-01 0.  0.
         14    1    1    2    0    0 -0.19300487788E-01  0.58843154170E-03  0.13197656469E-01  0.23388741240E-01  0.00000000000E+00 0.  1.
     999901    1    3    3    0    0  0.46060455625E-01 -0.25115758331E-01  0.11197102258E+00  0.88864496667E+00  0.88000000000E+00 0.  1.
        -11    1    4    4    0    0 -0.61499211330E-03  0.12219917913E-01 -0.46540693610E-01  0.48124857318E-01  0.51100000000E-03 0.  1.
         11    1    4    4    0    0 -0.26144975723E-01  0.12307408877E-01 -0.78627985438E-01  0.83771434773E-01  0.51100000000E-03 0. -1.
</event>
<event>
 8    1  0.1084146E+005  0.1043930E+01  0.7957747E-01            NaN
         13   -1    0    0    0    0  0.00000000000E+00  0.00000000000E+00  0.74505805969E-08  0.10566000000E+00  0.10566000000E+00 0.  1.
     999900   -1    0    0    0    0 -0.00000000000E+00 -0.00000000000E+00 -0.74505805969E-08  0.93827000000E+00  0.93827000000E+00 0. -1.
     999902    2    1    2    0    0 -0.17677197226E-01  0.19438461079E-02 -0.13963579693E-01  0.10213193079E+01  0.10210689914E+01 0.  0.
     999903    2    3    3    0    0 -0.12159979710E+00 -0.49415136449E-01 -0.16719155241E-01  0.13371283820E+00  0.19267241204E-01 0.  0.
         14    1    1    2    0    0  0.17677197226E-01 -0.19438461079E-02  0.13963579693E-01  0.22610692101E-01  0.00000000000E+00 0.  1.
     999901    1    3    3    0    0  0.10392259987E+00  0.51358982557E-01  0.27555755481E-02  0.88760646970E+00  0.88000000000E+00 0.  1.
        -11    1    4    4    0    0 -0.10751534544E+00 -0.36633275041E-01 -0.13018207247E-01  0.11432970387E+00  0.51100000000E-03 0.  1.
         11    1    4    4    0    0 -0.14084451651E-01 -0.12781861408E-01 -0.37009479950E-02  0.19383134330E-01  0.51100000000E-03 0. -1.
</event>
<event>
 8    1  0.1084146E+005  0.1043930E+01  0.7957747E-01            NaN
         13   -1    0    0    0    0  0.00000000000E+00  0.00000000000E+00  0.74505805969E-08  0.10566000000E+00  0.10566000000E+00 0. -1.
     999900   -1    0    0    0    0 -0.00000000000E+00 -0.00000000000E+00 -0.74505805969E-08  0.93827000000E+00  0.93827000000E+00 0.  1.
     999902    2    1    2    0    0  0.54370112461E-02  0.21454508298E-01  0.92212731521E-02  0.10199531592E+01  0.10196712990E+01 0.  0.
     999903    2    3    3    0    0 -0.12241573753E+00  0.40147167769E-01  0.62038862721E-02  0.13051241044E+00  0.19939739177E-01 0.  0.
         14    1    1    2    0    0 -0.54370112461E-02 -0.21454508298E-01 -0.92212731521E-02  0.23976840829E-01  0.00000000000E+00 0. -1.
     999901    1    3    3    0    0  0.12785274877E+00 -0.18692659471E-01  0.30173868800E-02  0.88944074874E+00  0.88000000000E+00 0. -1.
        -11    1    4    4    0    0 -0.66466465619E-01  0.16391145939E-01  0.11801042262E-01  0.69469320110E-01  0.51100000000E-03 0. -1.
         11    1    4    4    0    0 -0.55949271909E-01  0.23756021830E-01 -0.55971559896E-02  0.61043090326E-01  0.51100000000E-03 0.  1.
</event>
<event>
 8    1  0.1084146E+005  0.1043930E+01  0.7957747E-01            NaN
         13   -1    0    0    0    0  0.00000000000E+00  0.00000000000E+00  0.74505805969E-08  0.10566000000E+00  0.10566000000E+00 0.  1.
     999900   -1    0    0    0    0 -0.00000000000E+00 -0.00000000000E+00 -0.74505805969E-08  0.93827000000E+00  0.93827000000E+00 0. -1.
     999902    2    1    2    0    0  0.76112576875E-02 -0.31316968773E-02  0.22457307806E-01  0.10200120268E+01  0.10197315653E+01 0.  0.
     999903    2    3    3    0    0 -0.17173783131E-01  0.12475210249E+00  0.26859716888E-01  0.13041214729E+00  0.20684725420E-01 0.  0.
         14    1    1    2    0    0 -0.76112576875E-02  0.31316968773E-02 -0.22457307806E-01  0.23917973217E-01  0.00000000000E+00 0.  1.
     999901    1    3    3    0    0  0.24785040819E-01 -0.12788379937E+00 -0.44024090818E-02  0.88959987949E+00  0.88000000000E+00 0.  1.
        -11    1    4    4    0    0 -0.13070178535E-01  0.11404329292E+00  0.18642967462E-01  0.11629498521E+00  0.51100000000E-03 0.  1.
         11    1    4    4    0    0 -0.41036045963E-02  0.10708809569E-01  0.82167494259E-02  0.14117162080E-01  0.51100000000E-03 0. -1.
</event>
<event>
 8    1  0.1084146E+005  0.1043930E+01  0.7957747E-01            NaN
         13   -1    0    0    0    0  0.00000000000E+00  0.00000000000E+00  0.74505805969E-08  0.10566000000E+00  0.10566000000E+00 0. -1.
     999900   -1    0    0    0    0 -0.00000000000E+00 -0.00000000000E+00 -0.74505805969E-08  0.93827000000E+00  0.93827000000E+00 0.  1.
     999902    2    1    2    0    0  0.10092638316E-03 -0.23518138727E-01  0.29632961509E-02  0.10202256932E+01  0.10199502787E+01 0.  0.
     999903    2    3    3    0    0 -0.12344855073E+00 -0.34673774508E-02  0.34902157403E-01  0.13079520287E+00  0.25251873588E-01 0.  0.
         14    1    1    2    0    0 -0.10092638316E-03  0.23518138727E-01 -0.29632961509E-02  0.23704306769E-01  0.00000000000E+00 0.  1.
     999901    1    3    3    0    0  0.12354947711E+00 -0.20050761276E-01 -0.31938861252E-01  0.88943049036E+00  0.88000000000E+00 0. -1.
        -11    1    4    4    0    0 -0.76485014793E-01  0.35961631701E-02  0.32666423845E-01  0.83248100551E-01  0.51100000000E-03 0. -1.
         11    1    4    4    0    0 -0.46963535935E-01 -0.70635406209E-02  0.22357335575E-02  0.47547102321E-01  0.51100000000E-03 0.  1.
</event>
<event>
 8    1  0.1084146E+005  0.1043930E+01  0.7957747E-01            NaN
         13   -1    0    0    0    0  0.00000000000E+00  0.00000000000E+00  0.74505805969E-08  0.10566000000E+00  0.10566000000E+00 0.  1.
     999900   -1    0    0    0    0 -0.00000000000E+00 -0.00000000000E+00 -0.74505805969E-08  0.93827000000E+00  0.93827000000E+00 0.  1.
     999902    2    1    2    0    0 -0.22697397713E-02 -0.15297175815E-01 -0.17484214861E-01  0.10205879119E+01  0.10203209460E+01 0.  0.
     999903    2    3    3    0    0  0.62029437657E-02  0.68203015485E-01 -0.11068840655E+00  0.13169472955E+00  0.20036232527E-01 0.  0.
         14    1    1    2    0    0  0.22697397713E-02  0.15297175815E-01  0.17484214861E-01  0.23342088078E-01  0.00000000000E+00 0. -1.
     999901    1    3    3    0    0 -0.84726835370E-02 -0.83500191300E-01  0.93204191692E-01  0.88889318237E+00  0.88000000000E+00 0. -1.
        -11    1    4    4    0    0  0.14962456093E-02  0.25086535568E-01 -0.59552775965E-01  0.64640291335E-01  0.51100000000E-03 0. -1.
         11    1    4    4    0    0  0.47066981564E-02  0.43116479917E-01 -0.51135630589E-01  0.67054438218E-01  0.51100000000E-03 0.  1.
</event>
<event>
 8    1  0.1084146E+005  0.1043930E+01  0.7957747E-01            NaN
         13   -1    0    0    0    0  0.00000000000E+00  0.00000000000E+00  0.74505805969E-08  0.10566000000E+00  0.10566000000E+00 0. -1.
     999900   -1    0    0    0    0 -0.00000000000E+00 -0.00000000000E+00 -0.74505805969E-08  0.93827000000E+00  0.93827000000E+00 0.  1.
     999902    2    1    2    0    0  0.21896762977E-01  0.11830880758E-01 -0.82784223918E-02  0.10177008131E+01  0.10173627547E+01 0.  0.
     999903    2    3    3    0    0  0.10618722082E+00  0.65341692338E-01 -0.36826031425E-01  0.13159514546E+00  0.20392721596E-01 0.  0.
         14    1    1    2    0    0 -0.21896762977E-01 -0.11830880758E-01  0.82784223918E-02  0.26229186904E-01  0.00000000000E+00 0. -1.
     999901    1    3    3    0    0 -0.84290457844E-01 -0.53510811580E-01  0.28547609033E-01  0.88610566764E+00  0.88000000000E+00 0. -1.
        -11    1    4    4    0    0  0.67825792116E-01  0.30642817689E-01 -0.18261255660E-01  0.76635859305E-01  0.51100000000E-03 0. -1.
         11    1    4    4    0    0  0.38361428705E-01  0.34698874649E-01 -0.18564775765E-01  0.54959286152E-01  0.51100000000E-03 0.  1.
</event>
<event>
 8    1  0.1084146E+005  0.1043930E+01  0.7957747E-01            NaN
         13   -1    0    0    0    0  0.00000000000E+00  0.00000000000E+00  0.74505805969E-08  0.10566000000E+00  0.10566000000E+00 0.  1.
     999900   -1    0    0    0    0 -0.00000000000E+00 -0.00000000000E+00 -0.74505805969E-08  0.93827000000E+00  0.93827000000E+00 0. -1.
     999902    2    1    2    0    0 -0.10892038060E-01  0.17495265521E-01 -0.94344557844E-02  0.10212643925E+01  0.10210128450E+01 0.  0.
     999903    2    3    3    0    0 -0.60247232966E-01 -0.83887757250E-01 -0.78660782962E-01  0.13137297384E+00  0.20111056255E-01 0.  0.
         14    1    1    2    0    0  0.10892038060E-01 -0.17495265521E-01  0.94344557844E-02  0.22665607530E-01  0.00000000000E+00 0. -1.
     999901    1    3    3    0    0  0.49355194906E-01  0.10138302277E+00  0.69226327178E-01  0.88989141863E+00  0.88000000000E+00 0.  1.
        -11    1    4    4    0    0 -0.40241023669E-01 -0.39002801183E-01 -0.40265532651E-01  0.69008207677E-01  0.51100000000E-03 0.  1.
         11    1    4    4    0    0 -0.20006209297E-01 -0.44884956067E-01 -0.38395250312E-01  0.62364766167E-01  0.51100000000E-03 0. -1.
</event>
<event>
 8    1  0.1084146E+005  0.1043930E+01  0.7957747E-01            NaN
         13   -1    0    0    0    0  0.00000000000E+00  0.00000000000E+00  0.74505805969E-08  0.10566000000E+00  0.10566000000E+00 0.  1.
     999900   -1    0    0    0    0 -0.00000000000E+00 -0.00000000000E+00 -0.74505805969E-08  0.93827000000E+00  0.93827000000E+00 0.  1.
     999902    2    1    2    0    0  0.93098160424E-02 -0.12950775419E-01 -0.17722934200E-01  0.10200868111E+01  0.10198081215E+01 0.  0.
     999903    2    3    3    0    0 -0.55357403933E-01 -0.94549734134E-01  0.66527701677E-01  0.12995288354E+00  0.21394449170E-01 0.  0.
         14    1    1    2    0    0 -0.93098160424E-02  0.12950775419E-01  0.17722934200E-01  0.23843188867E-01  0.00000000000E+00 0.  1.
     999901    1    3    3    0    0  0.64667219976E-01  0.81598958715E-01 -0.84250635877E-01  0.89013392759E+00  0.88000000000E+00 0.  1.
        -11    1    4    4    0    0 -0.20354573064E-01 -0.36107660639E-01  0.13411099501E-01  0.43568228243E-01  0.51100000000E-03 0.  1.
         11    1    4    4    0    0 -0.35002830869E-01 -0.58442073495E-01  0.53116602176E-01  0.86384655298E-01  0.51100000000E-03 0. -1.
</event>
<event>
 8    1  0.1084146E+005  0.1043930E+01  0.7957747E-01            NaN
         13   -1    0    0    0    0  0.00000000000E+00  0.00000000000E+00  0.74505805969E-08  0.10566000000E+00  0.10566000000E+00 0. -1.
     999900   -1    0    0    0    0 -0.00000000000E+00 -0.00000000000E+00 -0.74505805969E-08  0.93827000000E+00  0.93827000000E+00 0. -1.
     999902    2    1    2    0    0 -0.14013341239E-01  0.24397461519E-02  0.18505880843E-01  0.10205891834E+01  0.10203222469E+01 0.  0.
     999903    2    3    3    0    0  0.61147218023E-01  0.77508353727E-01  0.84906821212E-01  0.13171715077E+00  0.19842186069E-01 0.  0.
         14    1    1    2    0    0  0.14013341239E-01 -0.24397461519E-02 -0.18505880843E-01  0.23340816604E-01  0.00000000000E+00 0.  1.
     999901    1    3    3    0    0 -0.75160559262E-01 -0.75068607575E-01 -0.66400940369E-01  0.88887203263E+00  0.88000000000E+00 0. -1.
        -11    1    4    4    0    0  0.19467798010E-01  0.22576417711E-01  0.38082959714E-01  0.48365925377E-01  0.51100000000E-03 0.  1.
         11    1    4    4    0    0  0.41679420013E-01  0.54931936016E-01  0.46823861498E-01  0.83351225388E-01  0.51100000000E-03 0. -1.
</event>
<event>
 8    1  0.1318088E+005  0.1043930E+01  0.7957747E-01            NaN
         13   -1    0    0    0    0  0.00000000000E+00  0.00000000000E+00  0.74505805969E-08  0.10566000000E+00  0.10566000000E+00 0.  1.
     999900   -1    0    0    0    0 -0.00000000000E+00 -0.00000000000E+00 -0.74505805969E-08  0.93827000000E+00  0.93827000000E+00 0.  1.
     999902    2    1    2    0    0  0.50601067416E-02  0.20253037272E-01  0.11788939926E-01  0.10199556532E+01  0.10196738524E+01 0.  0.
     999903    2    3    3    0    0 -0.36811843780E-01  0.11999544388E+00 -0.38294835683E-01  0.13191838345E+00  0.13488775224E-01 0.  0.
         14    1    1    2    0    0 -0.50601067416E-02 -0.20253037272E-01 -0.11788939926E-01  0.23974346781E-01  0.00000000000E+00 0.  1.
     999901    1    3    3    0    0  0.41871950522E-01 -0.99742406611E-01  0.50083775609E-01  0.88803726977E+00  0.88000000000E+00 0.  1.
        -11    1    4    4    0    0 -0.31181925116E-01  0.85406977434E-01 -0.23754516548E-01  0.93974477523E-01  0.51100000000E-03 0.  1.
         11    1    4    4    0    0 -0.56299186638E-02  0.34588466450E-01 -0.14540319135E-01  0.37943905928E-01  0.51100000000E-03 0. -1.
</event>
<event>
 8    1  0.1084146E+005  0.1043930E+01  0.7957747E-01            NaN
         13   -1    0    0    0    0  0.00000000000E+00  0.00000000000E+00  0.74505805969E-08  0.10566000000E+00  0.10566000000E+00 0. -1.
     999900   -1    0    0    0    0 -0.00000000000E+00 -0.00000000000E+00 -0.74505805969E-08  0.93827000000E+00  0.93827000000E+00 0.  1.
     999902    2    1    2    0    0 -0.60761665917E-02 -0.15103774933E-01  0.17039271311E-01  0.10203634860E+01  0.10200913012E+01 0.  0.
     999903    2    3    3    0    0  0.42525759209E-01  0.11758942587E+00  0.24132751183E-01  0.12906109608E+00  0.20944296818E-01 0.  0.
         14    1    1    2    0    0  0.60761665917E-02  0.15103774933E-01 -0.17039271311E-01  0.23566514050E-01  0.00000000000E+00 0.  1.
     999901    1    3    3    0    0 -0.48601925800E-01 -0.13269320080E+00 -0.70934798730E-02  0.89130238987E+00  0.88000000000E+00 0.  1.
        -11    1    4    4    0    0  0.15962069403E-01  0.73961247320E-01  0.15946314138E-01  0.77327872209E-01  0.51100000000E-03 0. -1.
         11    1    4    4    0    0  0.26563689806E-01  0.43628178549E-01  0.81864370452E-02  0.51733223871E-01  0.51100000000E-03 0.  1.
</event>
<event>
 7    1  0.1084146E+005  0.1043930E+01  0.7957747E-01            NaN
         13   -1    0    0    0    0  0.00000000000E+00  0.00000000000E+00  0.74505805969E-08  0.10566000000E+00  0.10566000000E+00 0. -1.
     999900   -1    0    0    0    0 -0.00000000000E+00 -0.00000000000E+00 -0.74505805969E-08  0.93827000000E+00  0.93827000000E+00 0.  1.
     999903    2    1    2    0    0  0.61809397736E-01 -0.81981483344E-01  0.73724944474E-02  0.10497623985E+00  0.20598349408E-01 0.  0.
         14    1    1    2    0    0  0.23738545126E-01  0.36356556916E-01 -0.30938734062E-01  0.53315316944E-01  0.00000000000E+00 0.  1.
     999901    1    1    2    0    0 -0.85547942862E-01  0.45624926428E-01  0.23566239615E-01  0.88563844321E+00  0.88000000000E+00 0. -1.
        -11    1    3    3    0    0  0.17864228901E-01 -0.11217433164E-01 -0.17753289598E-02  0.21174852890E-01  0.51100000000E-03 0.  1.
         11    1    3    3    0    0  0.43945168835E-01 -0.70764050180E-01  0.91478234072E-02  0.83801386957E-01  0.51100000000E-03 0. -1.
</event>
<event>
 8    1  0.1084146E+005  0.1043930E+01  0.7957747E-01            NaN
         13   -1    0    0    0    0  0.00000000000E+00  0.00000000000E+00  0.74505805969E-08  0.10566000000E+00  0.10566000000E+00 0. -1.
     999900   -1    0    0    0    0 -0.00000000000E+00 -0.00000000000E+00 -0.74505805969E-08  0.93827000000E+00  0.93827000000E+00 0. -1.
     999902    2    1    2    0    0  0.22506663855E-01  0.55249633722E-02  0.54502459726E-02  0.10201228515E+01  0.10198450136E+01 0.  0.
     999903    2    3    3    0    0  0.10758736266E+00 -0.55264723437E-01 -0.49360924567E-01  0.13223863848E+00  0.20526236169E-01 0.  0.
         14    1    1    2    0    0 -0.22506663855E-01 -0.55249633722E-02 -0.54502459726E-02  0.23807148492E-01  0.00000000000E+00 0. -1.
     999901    1    3    3    0    0 -0.85080698807E-01  0.60789686809E-01  0.54811170539E-01  0.88788421303E+00  0.88000000000E+00 0. -1.
        -11    1    4    4    0    0  0.53583513581E-01 -0.20100547935E-01 -0.31666419877E-01  0.65408319225E-01  0.51100000000E-03 0. -1.
         11    1    4    4    0    0  0.54003849081E-01 -0.35164175501E-01 -0.17694504690E-01  0.66830319253E-01  0.51100000000E-03 0.  1.
</event>
<event>
 8    1  0.1084146E+005  0.1043930E+01  0.7957747E-01            NaN
         13   -1    0    0    0    0  0.00000000000E+00  0.00000000000E+00  0.74505805969E-08  0.10566000000E+00  0.10566000000E+00 0.  1.
     999900   -1    0    0    0    0 -0.00000000000E+00 -0.00000000000E+00 -0.74505805969E-08  0.93827000000E+00  0.93827000000E+00 0. -1.
     999902    2    1    2    0    0  0.24655141781E-01  0.23208842293E-02  0.40893297910E-02  0.10188304953E+01  0.10185212776E+01 0.  0.
     999903    2    3    3    0    0 -0.72068124224E-01  0.42823849291E-01  0.94611303751E-01  0.12799374920E+00  0.20084930671E-01 0.  0.
         14    1    1    2    0    0 -0.24655141781E-01 -0.23208842293E-02 -0.40893297910E-02  0.25099504735E-01  0.00000000000E+00 0. -1.
     999901    1    3    3    0    0  0.96723266004E-01 -0.40502965062E-01 -0.90521973960E-01  0.89083674606E+00  0.88000000000E+00 0. -1.
        -11    1    4    4    0    0 -0.46315607606E-01  0.36714443204E-01  0.57951140746E-01  0.82774885578E-01  0.51100000000E-03 0. -1.
         11    1    4    4    0    0 -0.25752516618E-01  0.61094060874E-02  0.36660163005E-01  0.45218863624E-01  0.51100000000E-03 0.  1.
</event>
<event>
 8    1  0.1084146E+005  0.1043930E+01  0.7957747E-01            NaN
         13   -1    0    0    0    0  0.00000000000E+00  0.00000000000E+00  0.74505805969E-08  0.10566000000E+00  0.10566000000E+00 0. -1.
     999900   -1    0    0    0    0 -0.00000000000E+00 -0.00000000000E+00 -0.74505805969E-08  0.93827000000E+00  0.93827000000E+00 0.  1.
     999902    2    1    2    0    0  0.15047718241E-01 -0.11611104462E-01 -0.14347385965E-01  0.10201161583E+01  0.10198381624E+01 0.  0.
     999903    2    3    3    0    0 -0.52310796676E-01  0.80135677982E-01  0.81878747960E-01  0.12758374409E+00  0.20379795233E-01 0.  0.
         14    1    1    2    0    0 -0.15047718241E-01  0.11611104462E-01  0.14347385965E-01  0.23813841670E-01  0.00000000000E+00 0. -1.
     999901    1    3    3    0    0  0.67358514917E-01 -0.91746782444E-01 -0.96226133924E-01  0.89253241424E+00  0.88000000000E+00 0.  1.
        -11    1    4    4    0    0 -0.53275838577E-01  0.71924669415E-01  0.73740914890E-01  0.11597179267E+00  0.51100000000E-03 0.  1.
         11    1    4    4    0    0  0.96504190061E-03  0.82110085678E-02  0.81378330700E-02  0.11611951414E-01  0.51100000000E-03 0. -1.
</event>
<event>
 7    1  0.1084146E+005  0.1043930E+01  0.7957747E-01            NaN
         13   -1    0    0    0    0  0.00000000000E+00  0.00000000000E+00  0.74505805969E-08  0.10566000000E+00  0.10566000000E+00 0. -1.
     999900   -1    0    0    0    0 -0.00000000000E+00 -0.00000000000E+00 -0.74505805969E-08  0.93827000000E+00  0.93827000000E+00 0.  1.
     999903    2    1    2    0    0 -0.79733354276E-03  0.82423090487E-01  0.76298555200E-01  0.11327806892E+00  0.14705433873E-01 0.  0.
         14    1    1    2    0    0 -0.38728017592E-01  0.13739998892E-01  0.15177837434E-02  0.41121169532E-01  0.00000000000E+00 0. -1.
     999901    1    1    2    0    0  0.39525351135E-01 -0.96163089379E-01 -0.77816338944E-01  0.88953076155E+00  0.88000000000E+00 0.  1.
        -11    1    3    3    0    0 -0.70997569504E-02  0.27696482538E-01  0.27769050300E-01  0.39860794891E-01  0.51100000000E-03 0. -1.
         11    1    3    3    0    0  0.63024234077E-02  0.54726607949E-01  0.48529504900E-01  0.73417274025E-01  0.51100000000E-03 0.  1.
</event>
<event>
 8    1  0.1084146E+005  0.1043930E+01  0.7957747E-01            NaN
         13   -1    0    0    0    0  0.00000000000E+00  0.00000000000E+00  0.74505805969E-08  0.10566000000E+00  0.10566000000E+00 0. -1.
     999900   -1    0    0    0    0 -0.00000000000E+00 -0.00000000000E+00 -0.74505805969E-08  0.93827000000E+00  0.93827000000E+00 0. -1.
     999902    2    1    2    0    0 -0.86813954795E-02 -0.22387191631E-01  0.32894379360E-02  0.10196942129E+01  0.10194061577E+01 0.  0.
     999903    2    3    3    0    0  0.12588329136E+00  0.12469234737E-01  0.13334359735E-01  0.12872646604E+00  0.19763933138E-01 0.  0.
         14    1    1    2    0    0  0.86813954795E-02  0.22387191631E-01 -0.32894379360E-02  0.24235787145E-01  0.00000000000E+00 0.  1.
     999901    1    3    3    0    0 -0.13456468684E+00 -0.34856426368E-01 -0.10044921799E-01  0.89096774681E+00  0.88000000000E+00 0.  1.
        -11    1    4    4    0    0  0.10681037503E+00  0.13655670475E-01  0.17678388205E-01  0.10912250034E+00  0.51100000000E-03 0. -1.
         11    1    4    4    0    0  0.19072916327E-01 -0.11864357377E-02 -0.43440284696E-02  0.19603965704E-01  0.51100000000E-03 0.  1.
</event>
<event>
 8    1  0.1084146E+005  0.1043930E+01  0.7957747E-01            NaN
         13   -1    0    0    0    0  0.00000000000E+00  0.00000000000E+00  0.74505805969E-08  0.10566000000E+00  0.10566000000E+00 0.  1.
     999900   -1    0    0    0    0 -0.00000000000E+00 -0.00000000000E+00 -0.74505805969E-08  0.93827000000E+00  0.93827000000E+00 0. -1.
     999902    2    1    2    0    0  0.63990757167E-02  0.22293330086E-01 -0.36421044785E-02  0.10204522305E+01  0.10201821156E+01 0.  0.
     999903    2    3    3    0    0 -0.69496569029E-01 -0.66335663326E-01  0.83374250160E-01  0.12849534064E+00  0.18154714020E-01 0.  0.
         14    1    1    2    0    0 -0.63990757167E-02 -0.22293330086E-01  0.36421044785E-02  0.23477769515E-01  0.00000000000E+00 0.  1.
     999901    1    3    3    0    0  0.75895644746E-01  0.88628993413E-01 -0.87016354638E-01  0.89195688984E+00  0.88000000000E+00 0. -1.
        -11    1    4    4    0    0 -0.23835421367E-01 -0.32313013370E-01  0.41991134778E-01  0.58101417072E-01  0.51100000000E-03 0. -1.
         11    1    4    4    0    0 -0.45661147662E-01 -0.34022649957E-01  0.41383115381E-01  0.70393923570E-01  0.51100000000E-03 0.  1.
</event>
<event>
 8    1  0.1084146E+005  0.1043930E+01  0.7957747E-01            NaN
         13   -1    0    0    0    0  0.00000000000E+00  0.00000000000E+00  0.74505805969E-08  0.10566000000E+00  0.10566000000E+00 0. -1.
     999900   -1    0    0    0    0 -0.00000000000E+00 -0.00000000000E+00 -0.74505805969E-08  0.93827000000E+00  0.93827000000E+00 0.  1.
     999902    2    1    2    0    0  0.22587259310E-01  0.39532400185E-02 -0.72679025264E-02  0.10198751710E+01  0.10195914523E+01 0.  0.
     999903    2    3    3    0    0  0.49457190824E-01  0.10242120484E+00  0.62432221448E-01  0.13123798938E+00  0.19736024382E-01 0.  0.
         14    1    1    2    0    0 -0.22587259310E-01 -0.39532400185E-02  0.72679025264E-02  0.24054828973E-01  0.00000000000E+00 0.  1.
     999901    1    3    3    0    0 -0.26869931513E-01 -0.98467964818E-01 -0.69700123974E-01  0.88863718164E+00  0.88000000000E+00 0.  1.
        -11    1    4    4    0    0  0.38895099887E-01  0.91774194858E-01  0.59050455976E-01  0.11585572540E+00  0.51100000000E-03 0. -1.
         11    1    4    4    0    0  0.10562090937E-01  0.10647009979E-01  0.33817654720E-02  0.15382263980E-01  0.51100000000E-03 0.  1.
</event>
<event>
 8    1  0.1084146E+005  0.1043930E+01  0.7957747E-01            NaN
         13   -1    0    0    0    0  0.00000000000E+00  0.00000000000E+00  0.74505805969E-08  0.10566000000E+00  0.10566000000E+00 0.  1.
     999900   -1    0    0    0    0 -0.00000000000E+00 -0.00000000000E+00 -0.74505805969E-08  0.93827000000E+00  0.93827000000E+00 0. -1.
     999902    2    1    2    0    0  0.16146034179E-01  0.65655546847E-02 -0.15850097889E-01  0.10203709989E+01  0.10200989898E+01 0.  0.
     999903    2    3    3    0    0 -0.75803600384E-02  0.20857872334E-01 -0.12997255451E+00  0.13256969953E+00  0.13760363761E-01 0.  0.
         14    1    1    2    0    0 -0.16146034179E-01 -0.65655546847E-02  0.15850097889E-01  0.23559001063E-01  0.00000000000E+00 0. -1.
     999901    1    3    3    0    0  0.23726394217E-01 -0.14292317649E-01  0.11412245662E+00  0.88780129941E+00  0.88000000000E+00 0.  1.
        -11    1    4    4    0    0  0.20807790060E-02  0.38310441436E-02 -0.51642003949E-01  0.51828218505E-01  0.51100000000E-03 0. -1.
         11    1    4    4    0    0 -0.96611390444E-02  0.17026828190E-01 -0.78330550560E-01  0.80741481023E-01  0.51100000000E-03 0.  1.
</event>
<event>
 8    1  0.1084146E+005  0.1043930E+01  0.7957747E-01            NaN
         13   -1    0    0    0    0  0.00000000000E+00  0.00000000000E+00  0.74505805969E-08  0.10566000000E+00  0.10566000000E+00 0.  1.
     999900   -1    0    0    0    0 -0.00000000000E+00 -0.00000000000E+00 -0.74505805969E-08  0.93827000000E+00  0.93827000000E+00 0.  1.
     999902    2    1    2    0    0 -0.12667714526E-01  0.30325207404E-02  0.19379160467E-01  0.10205800742E+01  0.10203129269E+01 0.  0.
     999903    2    3    3    0    0  0.78214385148E-01  0.64432342309E-01 -0.76654673202E-01  0.12858680556E+00  0.19738562797E-01 0.  0.
         14    1    1    2    0    0  0.12667714526E-01 -0.30325207404E-02 -0.19379160467E-01  0.23349925776E-01  0.00000000000E+00 0. -1.
     999901    1    3    3    0    0 -0.90882099674E-01 -0.61399821569E-01  0.96033833669E-01  0.89199326866E+00  0.88000000000E+00 0.  1.
        -11    1    4    4    0    0  0.61935848721E-01  0.39506396721E-01 -0.54312075911E-01  0.91361192250E-01  0.51100000000E-03 0.  1.
         11    1    4    4    0    0  0.16278536427E-01  0.24925945588E-01 -0.22342597291E-01  0.37225613311E-01  0.51100000000E-03 0. -1.
</event>
<event>
 8    1  0.1084146E+005  0.1043930E+01  0.7957747E-01            NaN
         13   -1    0    0    0    0  0.00000000000E+00  0.00000000000E+00  0.74505805969E-08  0.10566000000E+00  0.10566000000E+00 0.  1.
     999900   -1    0    0    0    0 -0.00000000000E+00 -0.00000000000E+00 -0.74505805969E-08  0.93827000000E+00  0.93827000000E+00 0.  1.
     999902    2    1    2    0    0 -0.78849797379E-02  0.17575521760E-02 -0.19873411598E-01  0.10224773921E+01  0.10222523187E+01 0.  0.
     999903    2    3    3    0    0  0.29009639990E-01 -0.11194130263E+00  0.58172636049E-01  0.13097314196E+00  0.19937248630E-01 0.  0.
         14    1    1    2    0    0  0.78849797379E-02 -0.17575521760E-02  0.19873411598E-01  0.21452607853E-01  0.00000000000E+00 0. -1.
     999901    1    3    3    0    0 -0.36894619728E-01  0.11369885481E+00 -0.78046047648E-01  0.89150425019E+00  0.88000000000E+00 0.  1.
        -11    1    4    4    0    0  0.15546439248E-01 -0.29915401909E-01  0.11400876475E-01  0.35593035134E-01  0.51100000000E-03 0. -1.
         11    1    4    4    0    0  0.13463200742E-01 -0.82025900722E-01  0.46771759574E-01  0.95380106825E-01  0.51100000000E-03 0.  1.
</event>
<event>
 8    1  0.1084146E+005  0.1043930E+01  0.7957747E-01            NaN
         13   -1    0    0    0    0  0.00000000000E+00  0.00000000000E+00  0.74505805969E-08  0.10566000000E+00  0.10566000000E+00 0. -1.
     999900   -1    0    0    0    0 -0.00000000000E+00 -0.00000000000E+00 -0.74505805969E-08  0.93827000000E+00  0.93827000000E+00 0.  1.
     999902    2    1    2    0    0 -0.46079352452E-02  0.19969187465E-01  0.11382880053E-01  0.10204870592E+01  0.10202177545E+01 0.  0.
     999903    2    3    3    0    0  0.45423544189E-01 -0.12243235171E-01 -0.11848533617E+00  0.12896782626E+00  0.19512307645E-01 0.  0.
         14    1    1    2    0    0  0.46079352452E-02 -0.19969187465E-01 -0.11382880053E-01  0.23442940804E-01  0.00000000000E+00 0.  1.
     999901    1    3    3    0    0 -0.50031479435E-01  0.32212422636E-01  0.12986821622E+00  0.89151923293E+00  0.88000000000E+00 0. -1.
        -11    1    4    4    0    0  0.34951929038E-01 -0.20532850722E-03 -0.80085816377E-01  0.87382370127E-01  0.51100000000E-03 0.  1.
         11    1    4    4    0    0  0.10471615151E-01 -0.12037906664E-01 -0.38399519792E-01  0.41585456135E-01  0.51100000000E-03 0. -1.
</event>
<event>
 8    1  0.1084146E+005  0.1043930E+01  0.7957747E-01            NaN
         13   -1    0    0    0    0  0.00000000000E+00  0.00000000000E+00  0.74505805969E-08  0.10566000000E+00  0.10566000000E+00 0. -1.
     999900   -1    0    0    0    0 -0.00000000000E+00 -0.00000000000E+00 -0.74505805969E-08  0.93827000000E+00  0.93827000000E+00 0.  1.
     999902    2    1    2    0    0 -0.98220256022E-02  0.10069921663E-01  0.18514938623E-01  0.10206775063E+01  0.10204126094E+01 0.  0.
     999903    2    3    3    0    0 -0.50927597750E-01 -0.53430916147E-01 -0.10382948288E+00  0.12899921125E+00  0.20291672550E-01 0.  0.
         14    1    1    2    0    0  0.98220256022E-02 -0.10069921663E-01 -0.18514938623E-01  0.23252493661E-01  0.00000000000E+00 0.  1.
     999901    1    3    3    0    0  0.41105572147E-01  0.63500837810E-01  0.12234442150E+00  0.89167829509E+00  0.88000000000E+00 0. -1.
        -11    1    4    4    0    0 -0.28750085984E-01 -0.19859398078E-01 -0.60497430788E-01  0.69865323223E-01  0.51100000000E-03 0.  1.
         11    1    4    4    0    0 -0.22177511765E-01 -0.33571518069E-01 -0.43332052091E-01  0.59133888025E-01  0.51100000000E-03 0. -1.
</event>
<event>
 8    1  0.1084146E+005  0.1043930E+01  0.7957747E-01            NaN
         13   -1    0    0    0    0  0.00000000000E+00  0.00000000000E+00  0.74505805969E-08  0.10566000000E+00  0.10566000000E+00 0. -1.
     999900   -1    0    0    0    0 -0.00000000000E+00 -0.00000000000E+00 -0.74505805969E-08  0.93827000000E+00  0.93827000000E+00 0.  1.
     999902    2    1    2    0    0 -0.57004449457E-02  0.14774784964E-01 -0.22264011163E-01  0.10166082955E+01  0.10162410890E+01 0.  0.
     999903    2    3    3    0    0 -0.79671965450E-01  0.84308505506E-01 -0.55229903989E-01  0.13015836786E+00  0.20864137888E-01 0.  0.
         14    1    1    2    0    0  0.57004449457E-02 -0.14774784964E-01  0.22264011163E-01  0.27321704492E-01  0.00000000000E+00 0. -1.
     999901    1    3    3    0    0  0.73971520504E-01 -0.69533720542E-01  0.32965892826E-01  0.88644992765E+00  0.88000000000E+00 0. -1.
        -11    1    4    4    0    0 -0.19694171656E-01  0.24920631574E-01 -0.25269492045E-01  0.40591952706E-01  0.51100000000E-03 0.  1.
         11    1    4    4    0    0 -0.59977793794E-01  0.59387873932E-01 -0.29960411944E-01  0.89566415153E-01  0.51100000000E-03 0. -1.
</event>
<event>
 8    1  0.1084146E+005  0.1043930E+01  0.7957747E-01            NaN
         13   -1    0    0    0    0  0.00000000000E+00  0.00000000000E+00  0.74505805969E-08  0.10566000000E+00  0.10566000000E+00 0.  1.
     999900   -1    0    0    0    0 -0.00000000000E+00 -0.00000000000E+00 -0.74505805969E-08  0.93827000000E+00  0.93827000000E+00 0.  1.
     999902    2    1    2    0    0  0.15024743100E-01  0.41970446369E-02 -0.17802615736E-01  0.10202595286E+01  0.10199849090E+01 0.  0.
     999903    2    3    3    0    0 -0.12302648685E+00  0.12788412789E-01  0.26304502316E-01  0.12836413588E+00  0.22053674797E-01 0.  0.
         14    1    1    2    0    0 -0.15024743100E-01 -0.41970446369E-02  0.17802615736E-01  0.23670471393E-01  0.00000000000E+00 0.  1.
     999901    1    3    3    0    0  0.13805122995E+00 -0.85913681525E-02 -0.44107118053E-01  0.89189539272E+00  0.88000000000E+00 0.  1.
        -11    1    4    4    0    0 -0.10036689652E+00  0.75408423258E-02  0.12794384686E-01  0.10146100542E+00  0.51100000000E-03 0.  1.
         11    1    4    4    0    0 -0.22659590325E-01  0.52475704636E-02  0.13510117630E-01  0.26903130466E-01  0.51100000000E-03 0. -1.
</event>
<event>
 8    1  0.1084146E+005  0.1043930E+01  0.7957747E-01            NaN
         13   -1    0    0    0    0  0.00000000000E+00  0.00000000000E+00  0.74505805969E-08  0.10566000000E+00  0.10566000000E+00 0.  1.
     999900   -1    0    0    0    0 -0.00000000000E+00 -0.00000000000E+00 -0.74505805969E-08  0.93827000000E+00  0.93827000000E+00 0.  1.
     999902    2    1    2    0    0  0.76483705961E-02  0.50524157700E-02 -0.21922463984E-01  0.10201682891E+01  0.10198915232E+01 0.  0.
     999903    2    3    3    0    0 -0.12709886558E+00  0.81502002033E-02 -0.16719184186E-01  0.12989109179E+00  0.19277375659E-01 0.  0.
         14    1    1    2    0    0 -0.76483705961E-02 -0.50524157700E-02  0.21922463984E-01  0.23761710903E-01  0.00000000000E+00 0.  1.
     999901    1    3    3    0    0  0.13474723617E+00 -0.30977844333E-02 -0.52032797981E-02  0.89027719731E+00  0.88000000000E+00 0.  1.
        -11    1    4    4    0    0 -0.11143338067E+00  0.14051038008E-02 -0.17503104338E-01  0.11280954049E+00  0.51100000000E-03 0. -1.
         11    1    4    4    0    0 -0.15665484907E-01  0.67450964024E-02  0.78392015148E-03  0.17081551295E-01  0.51100000000E-03 0.  1.
</event>
<event>
 7    1  0.1084146E+005  0.1043930E+01  0.7957747E-01            NaN
         13   -1    0    0    0    0  0.00000000000E+00  0.00000000000E+00  0.74505805969E-08  0.10566000000E+00  0.10566000000E+00 0. -1.
     999900   -1    0    0    0    0 -0.00000000000E+00 -0.00000000000E+00 -0.74505805969E-08  0.93827000000E+00  0.93827000000E+00 0.  1.
     999903    2    1    2    0    0 -0.87903172924E-01 -0.17686159196E-01 -0.64894346079E-01  0.11249153020E+00  0.20082334949E-01 0.  0.
         14    1    1    2    0    0  0.49352441496E-02 -0.12612851985E-01 -0.38670516667E-01  0.40973766355E-01  0.00000000000E+00 0.  1.
     999901    1    1    2    0    0  0.82967928774E-01  0.30299011181E-01  0.10356486275E+00  0.89046470344E+00  0.88000000000E+00 0. -1.
        -11    1    3    3    0    0 -0.23840720670E-01  0.97216289036E-03 -0.92053946634E-02  0.25579786446E-01  0.51100000000E-03 0. -1.
         11    1    3    3    0    0 -0.64062452254E-01 -0.18658322087E-01 -0.55688951415E-01  0.86911743756E-01  0.51100000000E-03 0.  1.
</event>
<event>
 8    1  0.1084146E+005  0.1043930E+01  0.7957747E-01            NaN
         13   -1    0    0    0    0  0.00000000000E+00  0.00000000000E+00  0.74505805969E-08  0.10566000000E+00  0.10566000000E+00 0. -1.
     999900   -1    0    0    0    0 -0.00000000000E+00 -0.00000000000E+00 -0.74505805969E-08  0.93827000000E+00  0.93827000000E+00 0. -1.
     999902    2    1    2    0    0 -0.10213124954E-01 -0.96401966992E-02 -0.25615145889E-01  0.10147173826E+01  0.10142967956E+01 0.  0.
     999903    2    3    3    0    0  0.37268221937E-01 -0.98975502265E-01  0.63092620847E-01  0.12449025264E+00  0.18222891687E-01 0.  0.
         14    1    1    2    0    0  0.10213124954E-01  0.96401966992E-02  0.25615145889E-01  0.29212617354E-01  0.00000000000E+00 0. -1.
     999901    1    3    3    0    0 -0.47481346891E-01  0.89335305566E-01 -0.88707766737E-01  0.89022713001E+00  0.88000000000E+00 0. -1.
        -11    1    4    4    0    0  0.21782445233E-01 -0.52556862859E-01  0.23554324627E-01  0.61577317930E-01  0.51100000000E-03 0. -1.
         11    1    4    4    0    0  0.15485776704E-01 -0.46418639406E-01  0.39538296220E-01  0.62912934707E-01  0.51100000000E-03 0.  1.
</event>
<event>
 8    1  0.1084146E+005  0.1043930E+01  0.7957747E-01            NaN
         13   -1    0    0    0    0  0.00000000000E+00  0.00000000000E+00  0.74505805969E-08  0.10566000000E+00  0.10566000000E+00 0.  1.
     999900   -1    0    0    0    0 -0.00000000000E+00 -0.00000000000E+00 -0.74505805969E-08  0.93827000000E+00  0.93827000000E+00 0.  1.
     999902    2    1    2    0    0  0.10006039404E-01  0.16179245190E-01 -0.13532064121E-01  0.10205846459E+01  0.10203176044E+01 0.  0.
     999903    2    3    3    0    0 -0.55257867565E-02 -0.12202693255E+00  0.34167433693E-01  0.12838655842E+00  0.19864246001E-01 0.  0.
         14    1    1    2    0    0 -0.10006039404E-01 -0.16179245190E-01  0.13532064121E-01  0.23345354117E-01  0.00000000000E+00 0.  1.
     999901    1    3    3    0    0  0.15531826160E-01  0.13820617774E+00 -0.47699497814E-01  0.89219808747E+00  0.88000000000E+00 0. -1.
        -11    1    4    4    0    0 -0.53010739993E-02 -0.95584986335E-01  0.18065983927E-01  0.97422953632E-01  0.51100000000E-03 0. -1.
         11    1    4    4    0    0 -0.22471275722E-03 -0.26441946217E-01  0.16101449766E-01  0.30963604783E-01  0.51100000000E-03 0.  1.
</event>
<event>
 8    1  0.1084146E+005  0.1043930E+01  0.7957747E-01            NaN
         13   -1    0    0    0    0  0.00000000000E+00  0.00000000000E+00  0.74505805969E-08  0.10566000000E+00  0.10566000000E+00 0.  1.
     999900   -1    0    0    0    0 -0.00000000000E+00 -0.00000000000E+00 -0.74505805969E-08  0.93827000000E+00  0.93827000000E+00 0. -1.
     999902    2    1    2    0    0  0.21526274323E-01  0.92721213757E-03  0.81680974768E-02  0.10208874736E+01  0.10206273931E+01 0.  0.
     999903    2    3    3    0    0  0.47091677478E-02 -0.10551097711E+00 -0.75313340589E-01  0.13039263713E+00  0.13243790774E-01 0.  0.
         14    1    1    2    0    0 -0.21526274323E-01 -0.92721213757E-03 -0.81680974768E-02  0.23042526445E-01  0.00000000000E+00 0. -1.
     999901    1    3    3    0    0  0.16817106575E-01  0.10643818925E+00  0.83481438065E-01  0.89049483643E+00  0.88000000000E+00 0.  1.
        -11    1    4    4    0    0 -0.17406737127E-02 -0.76049663603E-01 -0.57545108951E-01  0.95384914763E-01  0.51100000000E-03 0. -1.
         11    1    4    4    0    0  0.64498414604E-02 -0.29461313510E-01 -0.17768231638E-01  0.35007722364E-01  0.51100000000E-03 0.  1.
</event>
<event>
 8    1  0.1084146E+005  0.1043930E+01  0.7957747E-01            NaN
         13   -1    0    0    0    0  0.00000000000E+00  0.00000000000E+00  0.74505805969E-08  0.10566000000E+00  0.10566000000E+00 0. -1.
     999900   -1    0    0    0    0 -0.00000000000E+00 -0.00000000000E+00 -0.74505805969E-08  0.93827000000E+00  0.93827000000E+00 0.  1.
     999902    2    1    2    0    0 -0.74649563037E-02  0.42705628254E-02  0.22562975175E-01  0.10197835483E+01  0.10194976382E+01 0.  0.
     999903    2    3    3    0    0 -0.40569936667E-01  0.11670992481E+00 -0.35373947632E-01  0.13012336777E+00  0.20338346980E-01 0.  0.
         14    1    1    2    0    0  0.74649563037E-02 -0.42705628254E-02 -0.22562975175E-01  0.24146451669E-01  0.00000000000E+00 0.  1.
     999901    1    3    3    0    0  0.33104980363E-01 -0.11243936199E+00  0.57936922807E-01  0.88966018056E+00  0.88000000000E+00 0.  1.
        -11    1    4    4    0    0 -0.21115335696E-01  0.45401458164E-01 -0.23291461567E-01  0.55225927859E-01  0.51100000000E-03 0. -1.
         11    1    4    4    0    0 -0.19454600971E-01  0.71308466650E-01 -0.12082486065E-01  0.74897439912E-01  0.51100000000E-03 0.  1.
</event>
<event>
 8    1  0.1084146E+005  0.1043930E+01  0.7957747E-01            NaN
         13   -1    0    0    0    0  0.00000000000E+00  0.00000000000E+00  0.74505805969E-08  0.10566000000E+00  0.10566000000E+00 0. -1.
     999900   -1    0    0    0    0 -0.00000000000E+00 -0.00000000000E+00 -0.74505805969E-08  0.93827000000E+00  0.93827000000E+00 0. -1.
     999902    2    1    2    0    0  0.61636194423E-03 -0.56783340059E-02  0.22874553712E-01  0.10203531345E+01  0.10200807078E+01 0.  0.
     999903    2    3    3    0    0  0.42042112892E-01 -0.85406045238E-01  0.90988503304E-01  0.13315974470E+00  0.19770636200E-01 0.  0.
         14    1    1    2    0    0 -0.61636194423E-03  0.56783340059E-02 -0.22874553712E-01  0.23576865497E-01  0.00000000000E+00 0.  1.
     999901    1    3    3    0    0 -0.41425750948E-01  0.79727711232E-01 -0.68113949592E-01  0.88719338980E+00  0.88000000000E+00 0.  1.
        -11    1    4    4    0    0  0.64076065105E-02 -0.20587812191E-01  0.31801779693E-01  0.38425639157E-01  0.51100000000E-03 0.  1.
         11    1    4    4    0    0  0.35634506381E-01 -0.64818233047E-01  0.59186723611E-01  0.94734105544E-01  0.51100000000E-03 0. -1.
</event>
<event>
 8    1  0.1084146E+005  0.1043930E+01  0.7957747E-01            NaN
         13   -1    0    0    0    0  0.00000000000E+00  0.00000000000E+00  0.74505805969E-08  0.10566000000E+00  0.10566000000E+00 0.  1.
     999900   -1    0    0    0    0 -0.00000000000E+00 -0.00000000000E+00 -0.74505805969E-08  0.93827000000E+00  0.93827000000E+00 0. -1.
     999902    2    1    2    0    0  0.22083219522E-01 -0.80627079697E-03 -0.79366874908E-02  0.10204500156E+01  0.10201798492E+01 0.  0.
     999903    2    3    3    0    0  0.60076803140E-01 -0.97871915688E-01  0.61026571365E-01  0.13161865769E+00  0.20275465050E-01 0.  0.
         14    1    1    2    0    0 -0.22083219522E-01  0.80627079697E-03  0.79366874908E-02  0.23479984356E-01  0.00000000000E+00 0.  1.
     999901    1    3    3    0    0 -0.37993583619E-01  0.97065644891E-01 -0.68963258855E-01  0.88883135796E+00  0.88000000000E+00 0. -1.
        -11    1    4    4    0    0  0.20144926961E-01 -0.48430596794E-01  0.34287655820E-01  0.62667736920E-01  0.51100000000E-03 0. -1.
         11    1    4    4    0    0  0.39931876179E-01 -0.49441318894E-01  0.26738915545E-01  0.68950920768E-01  0.51100000000E-03 0.  1.
</event>
<event>
 8    1  0.1084146E+005  0.1043930E+01  0.7957747E-01            NaN
         13   -1    0    0    0    0  0.00000000000E+00  0.00000000000E+00  0.74505805969E-08  0.10566000000E+00  0.10566000000E+00 0.  1.
     999900   -1    0    0    0    0 -0.00000000000E+00 -0.00000000000E+00 -0.74505805969E-08  0.93827000000E+00  0.93827000000E+00 0. -1.
     999902    2    1    2    0    0 -0.21384756343E-02  0.96063283744E-03  0.22226501519E-01  0.10215802066E+01  0.10213356967E+01 0.  0.
     999903    2    3    3    0    0 -0.83691514394E-01 -0.60799631272E-01 -0.76324761769E-01  0.13018939457E+00  0.20565613383E-01 0.  0.
         14    1    1    2    0    0  0.21384756343E-02 -0.96063283744E-03 -0.22226501519E-01  0.22349793361E-01  0.00000000000E+00 0. -1.
     999901    1    3    3    0    0  0.81553038760E-01  0.61760264110E-01  0.98551263288E-01  0.89139081207E+00  0.88000000000E+00 0.  1.
        -11    1    4    4    0    0 -0.11372717306E-01 -0.11014629607E-01 -0.21401279025E-01  0.26625863915E-01  0.51100000000E-03 0.  1.
         11    1    4    4    0    0 -0.72318797088E-01 -0.49785001665E-01 -0.54923482743E-01  0.10356353065E+00  0.51100000000E-03 0. -1.
</event>
<event>
 8    1  0.1084146E+005  0.1043930E+01  0.7957747E-01            NaN
         13   -1    0    0    0    0  0.00000000000E+00  0.00000000000E+00  0.74505805969E-08  0.10566000000E+00  0.10566000000E+00 0.  1.
     999900   -1    0    0    0    0 -0.00000000000E+00 -0.00000000000E+00 -0.74505805969E-08  0.93827000000E+00  0.93827000000E+00 0.  1.
     999902    2    1    2    0    0  0.46860559593E-02  0.20536721526E-03 -0.23434083084E-01  0.10200310974E+01  0.10197510883E+01 0.  0.
     999903    2    3    3    0    0  0.93456943060E-01  0.82725299614E-01  0.29713830312E-01  0.13013531116E+00  0.21785593805E-01 0.  0.
         14    1    1    2    0    0 -0.46860559593E-02 -0.20536721526E-03  0.23434083084E-01  0.23898902613E-01  0.00000000000E+00 0.  1.
     999901    1    3    3    0    0 -0.88770887101E-01 -0.82519932398E-01 -0.53147913396E-01  0.88989578622E+00  0.88000000000E+00 0.  1.
        -11    1    4    4    0    0  0.22214358323E-01  0.31791920878E-01  0.13493487675E-01  0.41067496630E-01  0.51100000000E-03 0. -1.
         11    1    4    4    0    0  0.71242584737E-01  0.50933378735E-01  0.16220342637E-01  0.89067814533E-01  0.51100000000E-03 0.  1.
</event>
<event>
 8    1  0.1084146E+005  0.1043930E+01  0.7957747E-01            NaN
         13   -1    0    0    0    0  0.00000000000E+00  0.00000000000E+00  0.74505805969E-08  0.10566000000E+00  0.10566000000E+00 0.  1.
     999900   -1    0    0    0    0 -0.00000000000E+00 -0.00000000000E+00 -0.74505805969E-08  0.93827000000E+00  0.93827000000E+00 0. -1.
     999902    2    1    2    0    0 -0.12310420374E-01 -0.10118633865E-01  0.17985111926E-01  0.10199009041E+01  0.10196177993E+01 0.  0.
     999903    2    3    3    0    0  0.86644747832E-01 -0.88566290754E-01 -0.31900144100E-01  0.12948824750E+00  0.19957125571E-01 0.  0.
         14    1    1    2    0    0  0.12310420374E-01  0.10118633865E-01 -0.17985111926E-01  0.24029095948E-01  0.00000000000E+00 0. -1.
     999901    1    3    3    0    0 -0.98955168206E-01  0.78447656889E-01  0.49885256026E-01  0.89041265656E+00  0.88000000000E+00 0.  1.
        -11    1    4    4    0    0  0.26105646109E-01 -0.40529952241E-01 -0.11955910418E-01  0.49672796402E-01  0.51100000000E-03 0.  1.
         11    1    4    4    0    0  0.60539101723E-01 -0.48036338513E-01 -0.19944233682E-01  0.79815451094E-01  0.51100000000E-03 0. -1.
</event>
<event>
 8    1  0.1084146E+005  0.1043930E+01  0.7957747E-01            NaN
         13   -1    0    0    0    0  0.00000000000E+00  0.00000000000E+00  0.74505805969E-08  0.10566000000E+00  0.10566000000E+00 0. -1.
     999900   -1    0    0    0    0 -0.00000000000E+00 -0.00000000000E+00 -0.74505805969E-08  0.93827000000E+00  0.93827000000E+00 0. -1.
     999902    2    1    2    0    0  0.39030758073E-02  0.25067547660E-01 -0.74163488960E-02  0.10174986138E+01  0.10171552541E+01 0.  0.
     999903    2    3    3    0    0  0.28103197295E-01  0.87349616120E-01  0.89519191910E-01  0.12965786173E+00  0.19435283737E-01 0.  0.
         14    1    1    2    0    0 -0.39030758073E-02 -0.25067547660E-01  0.74163488960E-02  0.26431386218E-01  0.00000000000E+00 0.  1.
     999901    1    3    3    0    0 -0.24200121488E-01 -0.62282068459E-01 -0.96935540805E-01  0.88784075205E+00  0.88000000000E+00 0. -1.
        -11    1    4    4    0    0  0.56866045271E-02  0.22388518895E-01  0.34989868900E-01  0.41930123968E-01  0.51100000000E-03 0.  1.
         11    1    4    4    0    0  0.22416592768E-01  0.64961097225E-01  0.54529323009E-01  0.87727737762E-01  0.51100000000E-03 0. -1.
</event>
<event>
 8    1  0.1084146E+005  0.1043930E+01  0.7957747E-01            NaN
         13   -1    0    0    0    0  0.00000000000E+00  0.00000000000E+00  0.74505805969E-08  0.10566000000E+00  0.10566000000E+00 0. -1.
     999900   -1    0    0    0    0 -0.00000000000E+00 -0.00000000000E+00 -0.74505805969E-08  0.93827000000E+00  0.93827000000E+00 0. -1.
     999902    2    1    2    0    0 -0.98821398972E-02 -0.65335607854E-02 -0.20546215233E-01  0.10202131059E+01  0.10199373953E+01 0.  0.
     999903    2    3    3    0    0  0.39841184053E-01 -0.12024946948E+00 -0.27356324127E-01  0.13147799664E+00  0.22154915384E-01 0.  0.
         14    1    1    2    0    0  0.98821398972E-02  0.65335607854E-02  0.20546215233E-01  0.23716894103E-01  0.00000000000E+00 0.  1.
     999901    1    3    3    0    0 -0.49723323951E-01  0.11371590869E+00  0.68101088939E-02  0.88873510925E+00  0.88000000000E+00 0. -1.
        -11    1    4    4    0    0  0.26770401468E-01 -0.65371088491E-01 -0.50834512479E-02  0.70824686394E-01  0.51100000000E-03 0.  1.
         11    1    4    4    0    0  0.13070782585E-01 -0.54878380987E-01 -0.22272872879E-01  0.60653310251E-01  0.51100000000E-03 0. -1.
</event>
<event>
 8    1  0.1084146E+005  0.1043930E+01  0.7957747E-01            NaN
         13   -1    0    0    0    0  0.00000000000E+00  0.00000000000E+00  0.74505805969E-08  0.10566000000E+00  0.10566000000E+00 0. -1.
     999900   -1    0    0    0    0 -0.00000000000E+00 -0.00000000000E+00 -0.74505805969E-08  0.93827000000E+00  0.93827000000E+00 0. -1.
     999902    2    1    2    0    0 -0.20335646881E-01 -0.13099794369E-01  0.59304037969E-02  0.10190239197E+01  0.10187195081E+01 0.  0.
     999903    2    3    3    0    0  0.11727967336E+00  0.29889220135E-01  0.32821257890E-01  0.12688651450E+00  0.19366603445E-01 0.  0.
         14    1    1    2    0    0  0.20335646881E-01  0.13099794369E-01 -0.59304037969E-02  0.24906080298E-01  0.00000000000E+00 0.  1.
     999901    1    3    3    0    0 -0.13761532024E+00 -0.42989014504E-01 -0.26890854093E-01  0.89213740521E+00  0.88000000000E+00 0. -1.
        -11    1    4    4    0    0  0.16392994522E-01  0.63177413647E-02 -0.17576180369E-02  0.17663365125E-01  0.51100000000E-03 0. -1.
         11    1    4    4    0    0  0.10088667883E+00  0.23571478770E-01  0.34578875927E-01  0.10922314937E+00  0.51100000000E-03 0.  1.
</event>
<event>
 8    1  0.1084146E+005  0.1043930E+01  0.7957747E-01            NaN
         13   -1    0    0    0    0  0.00000000000E+00  0.00000000000E+00  0.74505805969E-08  0.10566000000E+00  0.10566000000E+00 0. -1.
     999900   -1    0    0    0    0 -0.00000000000E+00 -0.00000000000E+00 -0.74505805969E-08  0.93827000000E+00  0.93827000000E+00 0.  1.
     999902    2    1    2    0    0 -0.21569392440E-01  0.18438080995E-02  0.95380965870E-02  0.10202738464E+01  0.10199995627E+01 0.  0.
     999903    2    3    3    0    0  0.24907240393E-01 -0.11208537101E+00  0.58378649482E-01  0.13037197825E+00  0.20131690910E-01 0.  0.
         14    1    1    2    0    0  0.21569392440E-01 -0.18438080995E-02 -0.95380965870E-02  0.23656153640E-01  0.00000000000E+00 0. -1.
     999901    1    3    3    0    0 -0.46476632833E-01  0.11392917911E+00 -0.48840552895E-01  0.88990186811E+00  0.88000000000E+00 0.  1.
        -11    1    4    4    0    0  0.96977335819E-02 -0.32568187989E-01  0.27518754903E-01  0.43729576923E-01  0.51100000000E-03 0.  1.
         11    1    4    4    0    0  0.15209506811E-01 -0.79517183026E-01  0.30859894579E-01  0.86642401330E-01  0.51100000000E-03 0. -1.
</event>
<event>
 8    1  0.1084146E+005  0.1043930E+01  0.7957747E-01            NaN
         13   -1    0    0    0    0  0.00000000000E+00  0.00000000000E+00  0.74505805969E-08  0.10566000000E+00  0.10566000000E+00 0.  1.
     999900   -1    0    0    0    0 -0.00000000000E+00 -0.00000000000E+00 -0.74505805969E-08  0.93827000000E+00  0.93827000000E+00 0. -1.
     999902    2    1    2    0    0 -0.18609387826E-01 -0.27031508104E-02  0.14123447575E-01  0.10204121746E+01  0.10201411265E+01 0.  0.
     999903    2    3    3    0    0 -0.68159690244E-01 -0.46684479100E-01  0.10289116118E+00  0.13346837894E+00  0.20050764686E-01 0.  0.
         14    1    1    2    0    0  0.18609387826E-01  0.27031508104E-02 -0.14123447575E-01  0.23517825388E-01  0.00000000000E+00 0. -1.
     999901    1    3    3    0    0  0.49550302418E-01  0.43981328290E-01 -0.88767713604E-01  0.88694379567E+00  0.88000000000E+00 0. -1.
        -11    1    4    4    0    0 -0.30757768501E-01 -0.33170398480E-01  0.54281007550E-01  0.70661195575E-01  0.51100000000E-03 0.  1.
         11    1    4    4    0    0 -0.37401921744E-01 -0.13514080620E-01  0.48610153628E-01  0.62807183362E-01  0.51100000000E-03 0. -1.
</event>
<event>
 8    1  0.1084146E+005  0.1043930E+01  0.7957747E-01            NaN
         13   -1    0    0    0    0  0.00000000000E+00  0.00000000000E+00  0.74505805969E-08  0.10566000000E+00  0.10566000000E+00 0. -1.
     999900   -1    0    0    0    0 -0.00000000000E+00 -0.00000000000E+00 -0.74505805969E-08  0.93827000000E+00  0.93827000000E+00 0. -1.
     999902    2    1    2    0    0  0.17219575079E-01  0.17921562763E-01 -0.18068795273E-02  0.10190109111E+01  0.10187061774E+01 0.  0.
     999903    2    3    3    0    0 -0.26788719545E-01 -0.11363350112E+00 -0.44350548979E-01  0.12712895219E+00  0.23761128270E-01 0.  0.
         14    1    1    2    0    0 -0.17219575079E-01 -0.17921562763E-01  0.18068795273E-02  0.24919088896E-01  0.00000000000E+00 0.  1.
     999901    1    3    3    0    0  0.44008294625E-01  0.13155506389E+00  0.42543669452E-01  0.89188195892E+00  0.88000000000E+00 0.  1.
        -11    1    4    4    0    0 -0.23321767501E-01 -0.57754557813E-01 -0.30976442070E-01  0.69565040587E-01  0.51100000000E-03 0. -1.
         11    1    4    4    0    0 -0.34669520450E-02 -0.55878943312E-01 -0.13374106909E-01  0.57563911600E-01  0.51100000000E-03 0.  1.
</event>
<event>
 8    1  0.1084146E+005  0.1043930E+01  0.7957747E-01            NaN
         13   -1    0    0    0    0  0.00000000000E+00  0.00000000000E+00  0.74505805969E-08  0.10566000000E+00  0.10566000000E+00 0. -1.
     999900   -1    0    0    0    0 -0.00000000000E+00 -0.00000000000E+00 -0.74505805969E-08  0.93827000000E+00  0.93827000000E+00 0. -1.
     999902    2    1    2    0    0 -0.30896491212E-02  0.30607675734E-01  0.44946110981E-02  0.10128401741E+01  0.10123628999E+01 0.  0.
     999903    2    3    3    0    0 -0.10630231564E+00  0.67159286117E-02 -0.61204343952E-01  0.12405447282E+00  0.17270046296E-01 0.  0.
         14    1    1    2    0    0  0.30896491212E-02 -0.30607675734E-01 -0.44946110981E-02  0.31089825899E-01  0.00000000000E+00 0. -1.
     999901    1    3    3    0    0  0.10321266652E+00  0.23891747122E-01  0.65698955050E-01  0.88878570128E+00  0.88000000000E+00 0.  1.
        -11    1    4    4    0    0 -0.83088291450E-03 -0.36932518894E-03 -0.34327402392E-02  0.35877003864E-02  0.51100000000E-03 0.  1.
         11    1    4    4    0    0 -0.10547143273E+00  0.70852538007E-02 -0.57771603713E-01  0.12046677243E+00  0.51100000000E-03 0. -1.
</event>
<event>
 8    1  0.1084146E+005  0.1043930E+01  0.7957747E-01            NaN
         13   -1    0    0    0    0  0.00000000000E+00  0.00000000000E+00  0.74505805969E-08  0.10566000000E+00  0.10566000000E+00 0.  1.
     999900   -1    0    0    0    0 -0.00000000000E+00 -0.00000000000E+00 -0.74505805969E-08  0.93827000000E+00  0.93827000000E+00 0.  1.
     999902    2    1    2    0    0 -0.29304146793E-02 -0.14393573694E-01 -0.16007912262E-01  0.10222040812E+01  0.10219731738E+01 0.  0.
     999903    2    3    3    0    0 -0.83969844991E-01 -0.85533292654E-01  0.53817636223E-01  0.13287632601E+00  0.19821731150E-01 0.  0.
         14    1    1    2    0    0  0.29304146793E-02  0.14393573694E-01  0.16007912262E-01  0.21725918827E-01  0.00000000000E+00 0.  1.
     999901    1    3    3    0    0  0.81039430312E-01  0.71139718959E-01 -0.69825548485E-01  0.88932775516E+00  0.88000000000E+00 0.  1.
        -11    1    4    4    0    0 -0.68759839840E-01 -0.79481346452E-01  0.45851556713E-01  0.11466397160E+00  0.51100000000E-03 0. -1.
         11    1    4    4    0    0 -0.15210005151E-01 -0.60519462013E-02  0.79660795098E-02  0.18212354414E-01  0.51100000000E-03 0.  1.
</event>
<event>
 8    1  0.1084146E+005  0.1043930E+01  0.7957747E-01            NaN
         13   -1    0    0    0    0  0.00000000000E+00  0.00000000000E+00  0.74505805969E-08  0.10566000000E+00  0.10566000000E+00 0. -1.
     999900   -1    0    0    0    0 -0.00000000000E+00 -0.00000000000E+00 -0.74505805969E-08  0.93827000000E+00  0.93827000000E+00 0.  1.
     999902    2    1    2    0    0 -0.17949921402E-01  0.14697030111E-01  0.24797720753E-02  0.10205986554E+01  0.10203319380E+01 0.  0.
     999903    2    3    3    0    0  0.97280296112E-01 -0.41879780765E-01  0.70302109241E-01  0.12870246860E+00  0.20113846291E-01 0.  0.
         14    1    1    2    0    0  0.17949921402E-01 -0.14697030111E-01 -0.24797720753E-02  0.23331344625E-01  0.00000000000E+00 0.  1.
     999901    1    3    3    0    0 -0.11523021751E+00  0.56576810877E-01 -0.67822337166E-01  0.89189618677E+00  0.88000000000E+00 0.  1.
        -11    1    4    4    0    0  0.79928456141E-01 -0.42162632083E-01  0.60701699770E-01  0.10886323126E+00  0.51100000000E-03 0. -1.
         11    1    4    4    0    0  0.17351839971E-01  0.28285131802E-03  0.96004094713E-02  0.19839237341E-01  0.51100000000E-03 0.  1.
</event>
<event>
 8    1  0.1084146E+005  0.1043930E+01  0.7957747E-01            NaN
         13   -1    0    0    0    0  0.00000000000E+00  0.00000000000E+00  0.74505805969E-08  0.10566000000E+00  0.10566000000E+00 0. -1.
     999900   -1    0    0    0    0 -0.00000000000E+00 -0.00000000000E+00 -0.74505805969E-08  0.93827000000E+00  0.93827000000E+00 0. -1.
     999902    2    1    2    0    0  0.17594543548E-01  0.14936956900E-01 -0.55955393113E-02  0.10201815115E+01  0.10199050572E+01 0.  0.
     999903    2    3    3    0    0 -0.61444322387E-02 -0.10669290287E+00 -0.69862184031E-01  0.12917782839E+00  0.19622869821E-01 0.  0.
         14    1    1    2    0    0 -0.17594543548E-01 -0.14936956900E-01  0.55955393113E-02  0.23748488463E-01  0.00000000000E+00 0.  1.
     999901    1    3    3    0    0  0.23738975787E-01  0.12162985977E+00  0.64266644719E-01  0.89100368315E+00  0.88000000000E+00 0.  1.
        -11    1    4    4    0    0 -0.11901006264E-02 -0.25325170162E-01 -0.72098843419E-02  0.26363310423E-01  0.51100000000E-03 0. -1.
         11    1    4    4    0    0 -0.49543316123E-02 -0.81367732706E-01 -0.62652299689E-01  0.10281451797E+00  0.51100000000E-03 0.  1.
</event>
<event>
 8    1  0.1084146E+005  0.1043930E+01  0.7957747E-01            NaN
         13   -1    0    0    0    0  0.00000000000E+00  0.00000000000E+00  0.74505805969E-08  0.10566000000E+00  0.10566000000E+00 0. -1.
     999900   -1    0    0    0    0 -0.00000000000E+00 -0.00000000000E+00 -0.74505805969E-08  0.93827000000E+00  0.93827000000E+00 0. -1.
     999902    2    1    2    0    0 -0.56681305801E-02  0.22544558825E-01 -0.76722659314E-02  0.10194504473E+01  0.10191564973E+01 0.  0.
     999903    2    3    3    0    0  0.10990176568E+00 -0.46555496573E-01 -0.43880773800E-01  0.12847217896E+00  0.18269266462E-01 0.  0.
         14    1    1    2    0    0  0.56681305801E-02 -0.22544558825E-01  0.76722659314E-02  0.24479552721E-01  0.00000000000E+00 0.  1.
     999901    1    3    3    0    0 -0.11556989626E+00  0.69100055398E-01  0.36208507868E-01  0.89097826832E+00  0.88000000000E+00 0. -1.
        -11    1    4    4    0    0  0.31207912797E-01 -0.73636844226E-02 -0.18246568029E-01  0.36896558583E-01  0.51100000000E-03 0.  1.
         11    1    4    4    0    0  0.78693852880E-01 -0.39191812150E-01 -0.25634205770E-01  0.91575620376E-01  0.51100000000E-03 0. -1.
</event>
<event>
 8    1  0.1084146E+005  0.1043930E+01  0.7957747E-01            NaN
         13   -1    0    0    0    0  0.00000000000E+00  0.00000000000E+00  0.74505805969E-08  0.10566000000E+00  0.10566000000E+00 0. -1.
     999900   -1    0    0    0    0 -0.00000000000E+00 -0.00000000000E+00 -0.74505805969E-08  0.93827000000E+00  0.93827000000E+00 0.  1.
     999902    2    1    2    0    0  0.22651200942E-01  0.16592638814E-01  0.27348243918E-02  0.10157187995E+01  0.10153269463E+01 0.  0.
     999903    2    3    3    0    0  0.18511109512E-01  0.22112550888E-01 -0.12211324864E+00  0.12687986524E+00  0.18847509867E-01 0.  0.
         14    1    1    2    0    0 -0.22651200942E-01 -0.16592638814E-01 -0.27348243918E-02  0.28211200460E-01  0.00000000000E+00 0. -1.
     999901    1    3    3    0    0  0.41400914291E-02 -0.55199120735E-02  0.12484807303E+00  0.88883893430E+00  0.88000000000E+00 0. -1.
        -11    1    4    4    0    0 -0.15782095057E-02  0.40659381590E-02 -0.48348050550E-02  0.65313903019E-02  0.51100000000E-03 0.  1.
         11    1    4    4    0    0  0.20089319018E-01  0.18046612729E-01 -0.11727844358E+00  0.12034847494E+00  0.51100000000E-03 0. -1.
</event>
<event>
 8    1  0.1084146E+005  0.1043930E+01  0.7957747E-01            NaN
         13   -1    0    0    0    0  0.00000000000E+00  0.00000000000E+00  0.74505805969E-08  0.10566000000E+00  0.10566000000E+00 0.  1.
     999900   -1    0    0    0    0 -0.00000000000E+00 -0.00000000000E+00 -0.74505805969E-08  0.93827000000E+00  0.93827000000E+00 0.  1.
     999902    2    1    2    0    0  0.14012183387E-01  0.12417784753E-01 -0.14377718556E-01  0.10203236142E+01  0.10200504969E+01 0.  0.
     999903    2    3    3    0    0  0.10320909317E+00 -0.68476000255E-01  0.36492888064E-01  0.13066766280E+00  0.20030669000E-01 0.  0.
         14    1    1    2    0    0 -0.14012183387E-01 -0.12417784753E-01  0.14377718556E-01  0.23606385838E-01  0.00000000000E+00 0.  1.
     999901    1    3    3    0    0 -0.89196909779E-01  0.80893785008E-01 -0.50870606620E-01  0.88965595136E+00  0.88000000000E+00 0. -1.
        -11    1    4    4    0    0  0.47804915197E-01 -0.39560809642E-01  0.26067370601E-01  0.67306288767E-01  0.51100000000E-03 0. -1.
         11    1    4    4    0    0  0.55404177969E-01 -0.28915190612E-01  0.10425517463E-01  0.63361374038E-01  0.51100000000E-03 0.  1.
</event>
<event>
 8    1  0.1084146E+005  0.1043930E+01  0.7957747E-01            NaN
         13   -1    0    0    0    0  0.00000000000E+00  0.00000000000E+00  0.74505805969E-08  0.10566000000E+00  0.10566000000E+00 0.  1.
     999900   -1    0    0    0    0 -0.00000000000E+00 -0.00000000000E+00 -0.74505805969E-08  0.93827000000E+00  0.93827000000E+00 0.  1.
     999902    2    1    2    0    0  0.22809777775E-01 -0.56601822780E-02  0.28007607914E-02  0.10202621339E+01  0.10199875754E+01 0.  0.
     999903    2    3    3    0    0  0.11010549777E+00 -0.64357952825E-01 -0.33370772143E-01  0.13325911766E+00  0.19473501847E-01 0.  0.
         14    1    1    2    0    0 -0.22809777775E-01  0.56601822780E-02 -0.28007607914E-02  0.23667866118E-01  0.00000000000E+00 0.  1.
     999901    1    3    3    0    0 -0.87295719995E-01  0.58697770547E-01  0.36171532935E-01  0.88700301622E+00  0.88000000000E+00 0. -1.
        -11    1    4    4    0    0  0.15312573458E-01 -0.17787286671E-02 -0.37735038854E-02  0.15878892724E-01  0.51100000000E-03 0. -1.
         11    1    4    4    0    0  0.94792924313E-01 -0.62579224158E-01 -0.29597268258E-01  0.11738022493E+00  0.51100000000E-03 0.  1.
</event>
<event>
 8    1  0.1084146E+005  0.1043930E+01  0.7957747E-01            NaN
         13   -1    0    0    0    0  0.00000000000E+00  0.00000000000E+00  0.74505805969E-08  0.10566000000E+00  0.10566000000E+00 0.  1.
     999900   -1    0    0    0    0 -0.00000000000E+00 -0.00000000000E+00 -0.74505805969E-08  0.93827000000E+00  0.93827000000E+00 0.  1.
     999902    2    1    2    0    0 -0.18551279058E-01  0.87105266559E-02 -0.14587922504E-01  0.10187738733E+01  0.10184632414E+01 0.  0.
     999903    2    3    3    0    0  0.92313485006E-01 -0.52352560655E-01 -0.68846631516E-01  0.12806421011E+00  0.19950266107E-01 0.  0.
         14    1    1    2    0    0  0.18551279058E-01 -0.87105266559E-02  0.14587922504E-01  0.25156126735E-01  0.00000000000E+00 0.  1.
     999901    1    3    3    0    0 -0.11086476406E+00  0.61063087311E-01  0.54258709012E-01  0.89070966316E+00  0.88000000000E+00 0. -1.
        -11    1    4    4    0    0  0.90920641192E-02 -0.95856082014E-02 -0.27491753779E-02  0.13504391908E-01  0.51100000000E-03 0.  1.
         11    1    4    4    0    0  0.83221420886E-01 -0.42766952454E-01 -0.66097456138E-01  0.11455981820E+00  0.51100000000E-03 0. -1.
</event>
<event>
 8    1  0.1084146E+005  0.1043930E+01  0.7957747E-01            NaN
         13   -1    0    0    0    0  0.00000000000E+00  0.00000000000E+00  0.74505805969E-08  0.10566000000E+00  0.10566000000E+00 0.  1.
     999900   -1    0    0    0    0 -0.00000000000E+00 -0.00000000000E+00 -0.74505805969E-08  0.93827000000E+00  0.93827000000E+00 0. -1.
     999902    2    1    2    0    0 -0.21568023881E-01  0.70971834394E-02  0.27208502247E-02  0.10210618411E+01  0.10208057262E+01 0.  0.
     999903    2    3    3    0    0 -0.33971428756E-01 -0.70773212620E-01 -0.10275832181E+00  0.13126214520E+00  0.22529368950E-01 0.  0.
         14    1    1    2    0    0  0.21568023881E-01 -0.70971834394E-02 -0.27208502247E-02  0.22868158930E-01  0.00000000000E+00 0.  1.
     999901    1    3    3    0    0  0.12403404875E-01  0.77870396060E-01  0.10547917204E+00  0.88979969587E+00  0.88000000000E+00 0.  1.
        -11    1    4    4    0    0 -0.23782308020E-01 -0.32154009882E-01 -0.64857142447E-01  0.76198350203E-01  0.51100000000E-03 0. -1.
         11    1    4    4    0    0 -0.10189120736E-01 -0.38619202738E-01 -0.37901179363E-01  0.55063794999E-01  0.51100000000E-03 0.  1.
</event>
<event>
 8    1  0.1084146E+005  0.1043930E+01  0.7957747E-01            NaN
         13   -1    0    0    0    0  0.00000000000E+00  0.00000000000E+00  0.74505805969E-08  0.10566000000E+00  0.10566000000E+00 0.  1.
     999900   -1    0    0    0    0 -0.00000000000E+00 -0.00000000000E+00 -0.74505805969E-08  0.93827000000E+00  0.93827000000E+00 0.  1.
     999902    2    1    2    0    0 -0.77736093312E-02  0.54008640443E-02 -0.21721481731E-01  0.10202356736E+01  0.10199604936E+01 0.  0.
     999903    2    3    3    0    0 -0.10527833723E+00 -0.74372065545E-01  0.95669082320E-02  0.13071341104E+00  0.19486858890E-01 0.  0.
         14    1    1    2    0    0  0.77736093312E-02 -0.54008640443E-02  0.21721481731E-01  0.23694326390E-01  0.00000000000E+00 0.  1.
     999901    1    3    3    0    0  0.97504727900E-01  0.79772929590E-01 -0.31288389963E-01  0.88952226257E+00  0.88000000000E+00 0.  1.
        -11    1    4    4    0    0 -0.78837797353E-01 -0.65392980774E-01  0.79679151628E-02  0.10273942291E+00  0.51100000000E-03 0.  1.
         11    1    4    4    0    0 -0.26440539879E-01 -0.89790847713E-02  0.15989930692E-02  0.27973988136E-01  0.51100000000E-03 0. -1.
</event>
<event>
 8    1  0.1084146E+005  0.1043930E+01  0.7957747E-01            NaN
         13   -1    0    0    0    0  0.00000000000E+00  0.00000000000E+00  0.74505805969E-08  0.10566000000E+00  0.10566000000E+00 0.  1.
     999900   -1    0    0    0    0 -0.00000000000E+00 -0.00000000000E+00 -0.74505805969E-08  0.93827000000E+00  0.93827000000E+00 0. -1.
     999902    2    1    2    0    0  0.10154336477E-01 -0.64763540058E-02  0.51221812192E-02  0.10308422022E+01  0.10307591161E+01 0.  0.
     999903    2    3    3    0    0 -0.12664839395E+00  0.40854633349E-01  0.32767377752E-01  0.13858693251E+00  0.20584461671E-01 0.  0.
         14    1    1    2    0    0 -0.10154336477E-01  0.64763540058E-02 -0.51221812192E-02  0.13087797788E-01  0.00000000000E+00 0.  1.
     999901    1    3    3    0    0  0.13680273043E+00 -0.47330987355E-01 -0.27645196533E-01  0.89225526970E+00  0.88000000000E+00 0. -1.
        -11    1    4    4    0    0 -0.12142517572E+00  0.41388809540E-01  0.27639357745E-01  0.13122995874E+00  0.51100000000E-03 0. -1.
         11    1    4    4    0    0 -0.52232182335E-02 -0.53417619103E-03  0.51280200074E-02  0.73569737742E-02  0.51100000000E-03 0.  1.
</event>
<event>
 8    1  0.1084146E+005  0.1043930E+01  0.7957747E-01            NaN
         13   -1    0    0    0    0  0.00000000000E+00  0.00000000000E+00  0.74505805969E-08  0.10566000000E+00  0.10566000000E+00 0. -1.
     999900   -1    0    0    0    0 -0.00000000000E+00 -0.00000000000E+00 -0.74505805969E-08  0.93827000000E+00  0.93827000000E+00 0.  1.
     999902    2    1    2    0    0 -0.22996651684E-02 -0.39958912778E-02  0.21821002600E-01  0.10216272701E+01  0.10213838002E+01 0.  0.
     999903    2    3    3    0    0  0.12831711051E+00 -0.15356783534E-01  0.16900798893E-01  0.13190033425E+00  0.20271889912E-01 0.  0.
         14    1    1    2    0    0  0.22996651684E-02  0.39958912778E-02 -0.21821002600E-01  0.22302729910E-01  0.00000000000E+00 0.  1.
     999901    1    3    3    0    0 -0.13061677568E+00  0.11360892257E-01  0.49202037062E-02  0.88972693584E+00  0.88000000000E+00 0. -1.
        -11    1    4    4    0    0  0.44800209120E-01 -0.10240967922E-01  0.14496781731E-01  0.48190807866E-01  0.51100000000E-03 0.  1.
         11    1    4    4    0    0  0.83516901390E-01 -0.51158156123E-02  0.24040171621E-02  0.83709526380E-01  0.51100000000E-03 0. -1.
</event>
<event>
 8    1  0.1084146E+005  0.1043930E+01  0.7957747E-01            NaN
         13   -1    0    0    0    0  0.00000000000E+00  0.00000000000E+00  0.74505805969E-08  0.10566000000E+00  0.10566000000E+00 0.  1.
     999900   -1    0    0    0    0 -0.00000000000E+00 -0.00000000000E+00 -0.74505805969E-08  0.93827000000E+00  0.93827000000E+00 0. -1.
     999902    2    1    2    0    0  0.39984194652E-02  0.13565667702E-01 -0.10315330188E-01  0.10264251225E+01  0.10262758457E+01 0.  0.
     999903    2    3    3    0    0 -0.11003308759E+00 -0.75176011552E-01 -0.38196714967E-02  0.13461770844E+00  0.18671487858E-01 0.  0.
         14    1    1    2    0    0 -0.39984194652E-02 -0.13565667702E-01  0.10315330188E-01  0.17504877472E-01  0.00000000000E+00 0.  1.
     999901    1    3    3    0    0  0.11403150705E+00  0.88741679254E-01 -0.64956586909E-02  0.89180741409E+00  0.88000000000E+00 0.  1.
        -11    1    4    4    0    0 -0.21660626933E-01 -0.15686507123E-01 -0.82553045635E-02  0.27993935760E-01  0.51100000000E-03 0.  1.
         11    1    4    4    0    0 -0.88372460654E-01 -0.59489504429E-01  0.44356330668E-02  0.10662377268E+00  0.51100000000E-03 0. -1.
</event>
<event>
 8    1  0.1084146E+005  0.1043930E+01  0.7957747E-01            NaN
         13   -1    0    0    0    0  0.00000000000E+00  0.00000000000E+00  0.74505805969E-08  0.10566000000E+00  0.10566000000E+00 0. -1.
     999900   -1    0    0    0    0 -0.00000000000E+00 -0.00000000000E+00 -0.74505805969E-08  0.93827000000E+00  0.93827000000E+00 0.  1.
     999902    2    1    2    0    0  0.56851687745E-02 -0.18553656363E-01  0.13147308666E-01  0.10204904814E+01  0.10202212562E+01 0.  0.
     999903    2    3    3    0    0 -0.50375924191E-01 -0.96637086818E-01 -0.70206794141E-01  0.13134045201E+00  0.21091706994E-01 0.  0.
         14    1    1    2    0    0 -0.56851687745E-02  0.18553656363E-01 -0.13147308666E-01  0.23439518630E-01  0.00000000000E+00 0.  1.
     999901    1    3    3    0    0  0.56061092965E-01  0.78083430455E-01  0.83354102808E-01  0.88915002936E+00  0.88000000000E+00 0. -1.
        -11    1    4    4    0    0 -0.44459813239E-01 -0.64711020032E-01 -0.48718997819E-01  0.92401260685E-01  0.51100000000E-03 0.  1.
         11    1    4    4    0    0 -0.59161109520E-02 -0.31926066786E-01 -0.21487796322E-01  0.38939191325E-01  0.51100000000E-03 0. -1.
</event>
<event>
 8    1  0.1084146E+005  0.1043930E+01  0.7957747E-01            NaN
         13   -1    0    0    0    0  0.00000000000E+00  0.00000000000E+00  0.74505805969E-08  0.10566000000E+00  0.10566000000E+00 0.  1.
     999900   -1    0    0    0    0 -0.00000000000E+00 -0.00000000000E+00 -0.74505805969E-08  0.93827000000E+00  0.93827000000E+00 0.  1.
     999902    2    1    2    0    0 -0.17089179331E-01 -0.93526529211E-02 -0.10949324604E-01  0.10215827434E+01  0.10213382896E+01 0.  0.
     999903    2    3    3    0    0 -0.51961987642E-01  0.10418378184E+00  0.56664626182E-01  0.13103331689E+00  0.20113222401E-01 0.  0.
         14    1    1    2    0    0  0.17089179331E-01  0.93526529211E-02  0.10949324604E-01  0.22347256569E-01  0.00000000000E+00 0.  1.
     999901    1    3    3    0    0  0.34872808311E-01 -0.11353643476E+00 -0.67613950786E-01  0.89054942654E+00  0.88000000000E+00 0.  1.
        -11    1    4    4    0    0 -0.28440255047E-01  0.70978002430E-01  0.44889035383E-01  0.88667984948E-01  0.51100000000E-03 0.  1.
         11    1    4    4    0    0 -0.23521732595E-01  0.33205779412E-01  0.11775590799E-01  0.42365331939E-01  0.51100000000E-03 0. -1.
</event>
<event>
 8    1  0.1084146E+005  0.1043930E+01  0.7957747E-01            NaN
         13   -1    0    0    0    0  0.00000000000E+00  0.00000000000E+00  0.74505805969E-08  0.10566000000E+00  0.10566000000E+00 0. -1.
     999900   -1    0    0    0    0 -0.00000000000E+00 -0.00000000000E+00 -0.74505805969E-08  0.93827000000E+00  0.93827000000E+00 0.  1.
     999902    2    1    2    0    0 -0.58463516870E-02 -0.21621907489E-01 -0.58654679604E-02  0.10207763734E+01  0.10205137500E+01 0.  0.
     999903    2    3    3    0    0  0.21424796069E-01 -0.91082253426E-01 -0.92835353257E-01  0.13334625438E+00  0.20194602397E-01 0.  0.
         14    1    1    2    0    0  0.58463516870E-02  0.21621907489E-01  0.58654679604E-02  0.23153626626E-01  0.00000000000E+00 0.  1.
     999901    1    3    3    0    0 -0.27271147756E-01  0.69460345936E-01  0.86969885297E-01  0.88743011900E+00  0.88000000000E+00 0. -1.
        -11    1    4    4    0    0  0.46006934387E-02 -0.51434526700E-01 -0.60139069795E-01  0.79269450318E-01  0.51100000000E-03 0.  1.
         11    1    4    4    0    0  0.16824102630E-01 -0.39647726726E-01 -0.32696283462E-01  0.54076804057E-01  0.51100000000E-03 0. -1.
</event>
<event>
 8    1  0.1084146E+005  0.1043930E+01  0.7957747E-01            NaN
         13   -1    0    0    0    0  0.00000000000E+00  0.00000000000E+00  0.74505805969E-08  0.10566000000E+00  0.10566000000E+00 0. -1.
     999900   -1    0    0    0    0 -0.00000000000E+00 -0.00000000000E+00 -0.74505805969E-08  0.93827000000E+00  0.93827000000E+00 0. -1.
     999902    2    1    2    0    0 -0.15033966448E-01 -0.25857789528E-01  0.15202219454E-01  0.10103777586E+01  0.10098205099E+01 0.  0.
     999903    2    3    3    0    0  0.38070402013E-01  0.10994308363E+00  0.65217964426E-02  0.11833667163E+00  0.20596040327E-01 0.  0.
         14    1    1    2    0    0  0.15033966448E-01  0.25857789528E-01 -0.15202219454E-01  0.33552241397E-01  0.00000000000E+00 0.  1.
     999901    1    3    3    0    0 -0.53104368461E-01 -0.13580087316E+00  0.86804230113E-02  0.89204108697E+00  0.88000000000E+00 0. -1.
        -11    1    4    4    0    0  0.30076120954E-01  0.55516435526E-01  0.31548454919E-02  0.63220738972E-01  0.51100000000E-03 0. -1.
         11    1    4    4    0    0  0.79942810592E-02  0.54426648102E-01  0.33669509507E-02  0.55115932660E-01  0.51100000000E-03 0.  1.
</event>
<event>
 8    1  0.1084146E+005  0.1043930E+01  0.7957747E-01            NaN
         13   -1    0    0    0    0  0.00000000000E+00  0.00000000000E+00  0.74505805969E-08  0.10566000000E+00  0.10566000000E+00 0. -1.
     999900   -1    0    0    0    0 -0.00000000000E+00 -0.00000000000E+00 -0.74505805969E-08  0.93827000000E+00  0.93827000000E+00 0.  1.
     999902    2    1    2    0    0 -0.10754527120E-01 -0.98842922527E-02 -0.18487358067E-01  0.10203685591E+01  0.10200964930E+01 0.  0.
     999903    2    3    3    0    0  0.10461125687E+00  0.68443823392E-01  0.22371866200E-01  0.12845262475E+00  0.19274448984E-01 0.  0.
         14    1    1    2    0    0  0.10754527120E-01  0.98842922527E-02  0.18487358067E-01  0.23561440855E-01  0.00000000000E+00 0. -1.
     999901    1    3    3    0    0 -0.11536578399E+00 -0.78328115644E-01 -0.40859224267E-01  0.89191593439E+00  0.88000000000E+00 0. -1.
        -11    1    4    4    0    0  0.40567215093E-01  0.19761598183E-01  0.68378254372E-03  0.45132564549E-01  0.51100000000E-03 0.  1.
         11    1    4    4    0    0  0.64044041778E-01  0.48682225209E-01  0.21688083657E-01  0.83320060203E-01  0.51100000000E-03 0. -1.
</event>
<event>
 8    1  0.1084146E+005  0.1043930E+01  0.7957747E-01            NaN
         13   -1    0    0    0    0  0.00000000000E+00  0.00000000000E+00  0.74505805969E-08  0.10566000000E+00  0.10566000000E+00 0.  1.
     999900   -1    0    0    0    0 -0.00000000000E+00 -0.00000000000E+00 -0.74505805969E-08  0.93827000000E+00  0.93827000000E+00 0. -1.
     999902    2    1    2    0    0  0.12167243494E-01 -0.31851790238E-02 -0.20377034893E-01  0.10199840039E+01  0.10197028770E+01 0.  0.
     999903    2    3    3    0    0 -0.69946193263E-01 -0.36387092313E-02  0.10459424849E+00  0.12736950485E+00  0.19424824129E-01 0.  0.
         14    1    1    2    0    0 -0.12167243494E-01  0.31851790238E-02  0.20377034893E-01  0.23945996131E-01  0.00000000000E+00 0.  1.
     999901    1    3    3    0    0  0.82113436758E-01  0.45353020747E-03 -0.12497128338E+00  0.89261449902E+00  0.88000000000E+00 0. -1.
        -11    1    4    4    0    0 -0.33333212814E-01  0.68007207846E-02  0.41353205180E-01  0.53550925103E-01  0.51100000000E-03 0.  1.
         11    1    4    4    0    0 -0.36612980449E-01 -0.10439430016E-01  0.63241043309E-01  0.73818579749E-01  0.51100000000E-03 0. -1.
</event>
<event>
 8    1  0.1084146E+005  0.1043930E+01  0.7957747E-01            NaN
         13   -1    0    0    0    0  0.00000000000E+00  0.00000000000E+00  0.74505805969E-08  0.10566000000E+00  0.10566000000E+00 0. -1.
     999900   -1    0    0    0    0 -0.00000000000E+00 -0.00000000000E+00 -0.74505805969E-08  0.93827000000E+00  0.93827000000E+00 0.  1.
     999902    2    1    2    0    0  0.12655415047E-02 -0.21555873488E-01  0.80747027677E-02  0.10208766249E+01  0.10206162968E+01 0.  0.
     999903    2    3    3    0    0  0.11837722771E+00  0.13505401836E-01  0.52069604487E-01  0.13133742318E+00  0.18512457916E-01 0.  0.
         14    1    1    2    0    0 -0.12655415047E-02  0.21555873488E-01 -0.80747027677E-02  0.23053375066E-01  0.00000000000E+00 0.  1.
     999901    1    3    3    0    0 -0.11711168621E+00 -0.35061275324E-01 -0.43994901719E-01  0.88953920175E+00  0.88000000000E+00 0.  1.
        -11    1    4    4    0    0  0.11495287236E+00  0.10041279046E-01  0.51643780154E-01  0.12642124543E+00  0.51100000000E-03 0.  1.
         11    1    4    4    0    0  0.34243553541E-02  0.34641227902E-02  0.42582433347E-03  0.49161777490E-02  0.51100000000E-03 0. -1.
</event>
<event>
 8    1  0.1084146E+005  0.1043930E+01  0.7957747E-01            NaN
         13   -1    0    0    0    0  0.00000000000E+00  0.00000000000E+00  0.74505805969E-08  0.10566000000E+00  0.10566000000E+00 0. -1.
     999900   -1    0    0    0    0 -0.00000000000E+00 -0.00000000000E+00 -0.74505805969E-08  0.93827000000E+00  0.93827000000E+00 0.  1.
     999902    2    1    2    0    0  0.15855739556E-01 -0.36200489117E-02 -0.17049865263E-01  0.10203671662E+01  0.10200950675E+01 0.  0.
     999903    2    3    3    0    0  0.81570786200E-01  0.30487122114E-01  0.94852272328E-01  0.13019647759E+00  0.19259061115E-01 0.  0.
         14    1    1    2    0    0 -0.15855739556E-01  0.36200489117E-02  0.17049865263E-01  0.23562833795E-01  0.00000000000E+00 0.  1.
     999901    1    3    3    0    0 -0.65715046644E-01 -0.34107171026E-01 -0.11190213759E+00  0.89017068861E+00  0.88000000000E+00 0.  1.
        -11    1    4    4    0    0  0.37260303088E-01  0.87930664075E-02  0.29622303633E-01  0.48408575651E-01  0.51100000000E-03 0. -1.
         11    1    4    4    0    0  0.44310483112E-01  0.21694055707E-01  0.65229968695E-01  0.81787901939E-01  0.51100000000E-03 0.  1.
</event>
<event>
 8    1  0.1084146E+005  0.1043930E+01  0.7957747E-01            NaN
         13   -1    0    0    0    0  0.00000000000E+00  0.00000000000E+00  0.74505805969E-08  0.10566000000E+00  0.10566000000E+00 0. -1.
     999900   -1    0    0    0    0 -0.00000000000E+00 -0.00000000000E+00 -0.74505805969E-08  0.93827000000E+00  0.93827000000E+00 0.  1.
     999902    2    1    2    0    0 -0.81170605883E-02  0.17739940411E-01  0.14861076021E-01  0.10194056501E+01  0.10191106101E+01 0.  0.
     999903    2    3    3    0    0 -0.72306326224E-01 -0.98044684604E-01  0.37490814854E-01  0.12921553202E+00  0.21216209047E-01 0.  0.
         14    1    1    2    0    0  0.81170605883E-02 -0.17739940411E-01 -0.14861076021E-01  0.24524349917E-01  0.00000000000E+00 0.  1.
     999901    1    3    3    0    0  0.64189265636E-01  0.11578462501E+00 -0.22629738833E-01  0.89019011806E+00  0.88000000000E+00 0.  1.
        -11    1    4    4    0    0 -0.25541952899E-01 -0.22365588730E-01  0.16776025264E-01  0.37872246590E-01  0.51100000000E-03 0. -1.
         11    1    4    4    0    0 -0.46764373325E-01 -0.75679095874E-01  0.20714789590E-01  0.91343285432E-01  0.51100000000E-03 0.  1.
</event>
<event>
 8    1  0.1084146E+005  0.1043930E+01  0.7957747E-01            NaN
         13   -1    0    0    0    0  0.00000000000E+00  0.00000000000E+00  0.74505805969E-08  0.10566000000E+00  0.10566000000E+00 0.  1.
     999900   -1    0    0    0    0 -0.00000000000E+00 -0.00000000000E+00 -0.74505805969E-08  0.93827000000E+00  0.93827000000E+00 0. -1.
     999902    2    1    2    0    0 -0.16722163007E-01 -0.14209151623E-01  0.73166990097E-02  0.10207985320E+01  0.10205364169E+01 0.  0.
     999903    2    3    3    0    0  0.46339694720E-01 -0.82111468096E-01 -0.88334676717E-01  0.13077790972E+00  0.20253050641E-01 0.  0.
         14    1    1    2    0    0  0.16722163007E-01  0.14209151623E-01 -0.73166990097E-02  0.23131467957E-01  0.00000000000E+00 0. -1.
     999901    1    3    3    0    0 -0.63061857726E-01  0.67902316474E-01  0.95651375727E-01  0.89002062232E+00  0.88000000000E+00 0.  1.
        -11    1    4    4    0    0  0.40966970652E-01 -0.60423592194E-01 -0.75420371454E-01  0.10496569311E+00  0.51100000000E-03 0.  1.
         11    1    4    4    0    0  0.53727240676E-02 -0.21687875902E-01 -0.12914305263E-01  0.25812216613E-01  0.51100000000E-03 0. -1.
</event>
<event>
 8    1  0.1084146E+005  0.1043930E+01  0.7957747E-01            NaN
         13   -1    0    0    0    0  0.00000000000E+00  0.00000000000E+00  0.74505805969E-08  0.10566000000E+00  0.10566000000E+00 0.  1.
     999900   -1    0    0    0    0 -0.00000000000E+00 -0.00000000000E+00 -0.74505805969E-08  0.93827000000E+00  0.93827000000E+00 0.  1.
     999902    2    1    2    0    0 -0.97523367443E-02 -0.21299385536E-01  0.27114797319E-02  0.10203477181E+01  0.10200751648E+01 0.  0.
     999903    2    3    3    0    0  0.63800367144E-01  0.84060227998E-01 -0.69847830028E-01  0.12806104791E+00  0.19603669363E-01 0.  0.
         14    1    1    2    0    0  0.97523367443E-02  0.21299385536E-01 -0.27114797319E-02  0.23582281877E-01  0.00000000000E+00 0. -1.
     999901    1    3    3    0    0 -0.73552703889E-01 -0.10535961353E+00  0.72559309760E-01  0.89228667022E+00  0.88000000000E+00 0. -1.
        -11    1    4    4    0    0  0.32936704454E-01  0.38364118868E-01 -0.22367483887E-01  0.55291930453E-01  0.51100000000E-03 0. -1.
         11    1    4    4    0    0  0.30863662690E-01  0.45696109131E-01 -0.47480346141E-01  0.72769117454E-01  0.51100000000E-03 0.  1.
</event>
<event>
 8    1  0.1084146E+005  0.1043930E+01  0.7957747E-01            NaN
         13   -1    0    0    0    0  0.00000000000E+00  0.00000000000E+00  0.74505805969E-08  0.10566000000E+00  0.10566000000E+00 0.  1.
     999900   -1    0    0    0    0 -0.00000000000E+00 -0.00000000000E+00 -0.74505805969E-08  0.93827000000E+00  0.93827000000E+00 0. -1.
     999902    2    1    2    0    0  0.72990212174E-02 -0.14022935626E-01  0.17508230472E-01  0.10203406683E+01  0.10200679501E+01 0.  0.
     999903    2    3    3    0    0 -0.48098989702E-01 -0.10413300769E+00  0.63904952014E-01  0.13279268626E+00  0.19820659233E-01 0.  0.
         14    1    1    2    0    0 -0.72990212174E-02  0.14022935626E-01 -0.17508230472E-01  0.23589331669E-01  0.00000000000E+00 0. -1.
     999901    1    3    3    0    0  0.55398010920E-01  0.90110072065E-01 -0.46396721541E-01  0.88754798207E+00  0.88000000000E+00 0. -1.
        -11    1    4    4    0    0 -0.99398277929E-02 -0.78883797104E-02  0.48107730738E-02  0.13580551151E-01  0.51100000000E-03 0. -1.
         11    1    4    4    0    0 -0.38159161909E-01 -0.96244627980E-01  0.59094178940E-01  0.11921213511E+00  0.51100000000E-03 0.  1.
</event>
<event>
 8    1  0.1084146E+005  0.1043930E+01  0.7957747E-01            NaN
         13   -1    0    0    0    0  0.00000000000E+00  0.00000000000E+00  0.74505805969E-08  0.10566000000E+00  0.10566000000E+00 0. -1.
     999900   -1    0    0    0    0 -0.00000000000E+00 -0.00000000000E+00 -0.74505805969E-08  0.93827000000E+00  0.93827000000E+00 0.  1.
     999902    2    1    2    0    0  0.88275236569E-02  0.22418933475E-01  0.77667060720E-03  0.10198232174E+01  0.10195382571E+01 0.  0.
     999903    2    3    3    0    0  0.10528258003E+00  0.15387519514E-01  0.74575750823E-01  0.13145430586E+00  0.19937264204E-01 0.  0.
         14    1    1    2    0    0 -0.88275236569E-02 -0.22418933475E-01 -0.77667060720E-03  0.24106782641E-01  0.00000000000E+00 0.  1.
     999901    1    3    3    0    0 -0.96455056370E-01  0.70314139604E-02 -0.73799080216E-01  0.88836891150E+00  0.88000000000E+00 0. -1.
        -11    1    4    4    0    0  0.33743090011E-02 -0.31617307885E-02  0.27472894210E-02  0.54028902429E-02  0.51100000000E-03 0.  1.
         11    1    4    4    0    0  0.10190827103E+00  0.18549250303E-01  0.71828461402E-01  0.12605141561E+00  0.51100000000E-03 0. -1.
</event>
<event>
 8    1  0.1084146E+005  0.1043930E+01  0.7957747E-01            NaN
         13   -1    0    0    0    0  0.00000000000E+00  0.00000000000E+00  0.74505805969E-08  0.10566000000E+00  0.10566000000E+00 0. -1.
     999900   -1    0    0    0    0 -0.00000000000E+00 -0.00000000000E+00 -0.74505805969E-08  0.93827000000E+00  0.93827000000E+00 0. -1.
     999902    2    1    2    0    0 -0.53300294898E-02  0.19300734129E-01  0.11933159612E-01  0.10206206060E+01  0.10203543960E+01 0.  0.
     999903    2    3    3    0    0  0.13231822274E-01  0.12047531397E+00 -0.49656705342E-01  0.13249102678E+00  0.19967508443E-01 0.  0.
         14    1    1    2    0    0  0.53300294898E-02 -0.19300734129E-01 -0.11933159612E-01  0.23309394042E-01  0.00000000000E+00 0.  1.
     999901    1    3    3    0    0 -0.18561851764E-01 -0.10117457985E+00  0.61589864954E-01  0.88812957918E+00  0.88000000000E+00 0.  1.
        -11    1    4    4    0    0 -0.17011392734E-02  0.73170189398E-01 -0.28085769495E-01  0.78395421171E-01  0.51100000000E-03 0.  1.
         11    1    4    4    0    0  0.14932961547E-01  0.47305124576E-01 -0.21570935848E-01  0.54095605608E-01  0.51100000000E-03 0. -1.
</event>
<event>
 8    1  0.1084146E+005  0.1043930E+01  0.7957747E-01            NaN
         13   -1    0    0    0    0  0.00000000000E+00  0.00000000000E+00  0.74505805969E-08  0.10566000000E+00  0.10566000000E+00 0. -1.
     999900   -1    0    0    0    0 -0.00000000000E+00 -0.00000000000E+00 -0.74505805969E-08  0.93827000000E+00  0.93827000000E+00 0.  1.
     999902    2    1    2    0    0  0.13327041919E-01  0.14772130424E-01 -0.13272027560E-01  0.10200140514E+01  0.10197336380E+01 0.  0.
     999903    2    3    3    0    0 -0.10051612288E+00  0.65229991016E-01 -0.48009623616E-01  0.13056873970E+00  0.19617062451E-01 0.  0.
         14    1    1    2    0    0 -0.13327041919E-01 -0.14772130424E-01  0.13272027560E-01  0.23915948635E-01  0.00000000000E+00 0. -1.
     999901    1    3    3    0    0  0.11384316480E+00 -0.50457860593E-01  0.34737596056E-01  0.88944531167E+00  0.88000000000E+00 0.  1.
        -11    1    4    4    0    0 -0.11099764257E-01  0.99487712143E-02  0.19852279197E-03  0.14915875688E-01  0.51100000000E-03 0. -1.
         11    1    4    4    0    0 -0.89416358624E-01  0.55281219802E-01 -0.48208146408E-01  0.11565286401E+00  0.51100000000E-03 0.  1.
</event>
<event>
 8    1  0.1084146E+005  0.1043930E+01  0.7957747E-01            NaN
         13   -1    0    0    0    0  0.00000000000E+00  0.00000000000E+00  0.74505805969E-08  0.10566000000E+00  0.10566000000E+00 0.  1.
     999900   -1    0    0    0    0 -0.00000000000E+00 -0.00000000000E+00 -0.74505805969E-08  0.93827000000E+00  0.93827000000E+00 0.  1.
     999902    2    1    2    0    0  0.74549667099E-02 -0.19187996665E-01  0.13833168038E-01  0.10191285427E+01  0.10188267146E+01 0.  0.
     999903    2    3    3    0    0 -0.20229205386E-01  0.30035767929E-01  0.12271907158E+00  0.13062106816E+00  0.26277838801E-01 0.  0.
         14    1    1    2    0    0 -0.74549667099E-02  0.19187996665E-01 -0.13833168038E-01  0.24801457268E-01  0.00000000000E+00 0.  1.
     999901    1    3    3    0    0  0.27684172095E-01 -0.49223764594E-01 -0.10888590354E+00  0.88850747457E+00  0.88000000000E+00 0.  1.
        -11    1    4    4    0    0 -0.16888069686E-01  0.34032338635E-01  0.93301013431E-01  0.10074099066E+00  0.51100000000E-03 0. -1.
         11    1    4    4    0    0 -0.33411356995E-02 -0.39965707065E-02  0.29418058146E-01  0.29880077498E-01  0.51100000000E-03 0.  1.
</event>
<event>
 8    1  0.1084146E+005  0.1043930E+01  0.7957747E-01            NaN
         13   -1    0    0    0    0  0.00000000000E+00  0.00000000000E+00  0.74505805969E-08  0.10566000000E+00  0.10566000000E+00 0.  1.
     999900   -1    0    0    0    0 -0.00000000000E+00 -0.00000000000E+00 -0.74505805969E-08  0.93827000000E+00  0.93827000000E+00 0. -1.
     999902    2    1    2    0    0 -0.51759842833E-03 -0.15971834211E-01 -0.17400652438E-01  0.10203047994E+01  0.10200312415E+01 0.  0.
     999903    2    3    3    0    0  0.11111884325E+00  0.60355537303E-01  0.13219045341E-01  0.12944783637E+00  0.24327165357E-01 0.  0.
         14    1    1    2    0    0  0.51759842833E-03  0.15971834211E-01  0.17400652438E-01  0.23625200559E-01  0.00000000000E+00 0.  1.
     999901    1    3    3    0    0 -0.11163644168E+00 -0.76327371514E-01 -0.30619697779E-01  0.89085696307E+00  0.88000000000E+00 0. -1.
        -11    1    4    4    0    0  0.34108865451E-01  0.65013325683E-02  0.54732386432E-02  0.35155362177E-01  0.51100000000E-03 0.  1.
         11    1    4    4    0    0  0.77009977797E-01  0.53854204734E-01  0.77458066976E-02  0.94292474197E-01  0.51100000000E-03 0. -1.
</event>
<event>
 8    1  0.1084146E+005  0.1043930E+01  0.7957747E-01            NaN
         13   -1    0    0    0    0  0.00000000000E+00  0.00000000000E+00  0.74505805969E-08  0.10566000000E+00  0.10566000000E+00 0. -1.
     999900   -1    0    0    0    0 -0.00000000000E+00 -0.00000000000E+00 -0.74505805969E-08  0.93827000000E+00  0.93827000000E+00 0.  1.
     999902    2    1    2    0    0 -0.11765148085E-02 -0.16008313891E-01 -0.17976791197E-01  0.10198298896E+01  0.10195450889E+01 0.  0.
     999903    2    3    3    0    0  0.85478960410E-01 -0.26465202114E-01  0.90039995031E-01  0.12893924309E+00  0.22606815490E-01 0.  0.
         14    1    1    2    0    0  0.11765148085E-02  0.16008313891E-01  0.17976791197E-01  0.24100110424E-01  0.00000000000E+00 0. -1.
     999901    1    3    3    0    0 -0.86655475219E-01  0.10456888223E-01 -0.10801678623E+00  0.89089064649E+00  0.88000000000E+00 0.  1.
        -11    1    4    4    0    0  0.22857647865E-01  0.26048663672E-02  0.18592151335E-01  0.29583552981E-01  0.51100000000E-03 0. -1.
         11    1    4    4    0    0  0.62621312545E-01 -0.29070068481E-01  0.71447843696E-01  0.99355690105E-01  0.51100000000E-03 0.  1.
</event>
<event>
 8    1  0.1084146E+005  0.1043930E+01  0.7957747E-01            NaN
         13   -1    0    0    0    0  0.00000000000E+00  0.00000000000E+00  0.74505805969E-08  0.10566000000E+00  0.10566000000E+00 0. -1.
     999900   -1    0    0    0    0 -0.00000000000E+00 -0.00000000000E+00 -0.74505805969E-08  0.93827000000E+00  0.93827000000E+00 0. -1.
     999902    2    1    2    0    0 -0.65686689437E-02 -0.83760420650E-02  0.21035217564E-01  0.10203548888E+01  0.10200825031E+01 0.  0.
     999903    2    3    3    0    0 -0.34748376233E-01  0.12263031569E+00 -0.12033640979E-01  0.12959661005E+00  0.20120358906E-01 0.  0.
         14    1    1    2    0    0  0.65686689437E-02  0.83760420650E-02 -0.21035217564E-01  0.23575111247E-01  0.00000000000E+00 0.  1.
     999901    1    3    3    0    0  0.28179707289E-01 -0.13100635776E+00  0.33068858543E-01  0.89075827871E+00  0.88000000000E+00 0.  1.
        -11    1    4    4    0    0 -0.73069485652E-02  0.18111472865E-01 -0.89529510384E-02  0.21490309443E-01  0.51100000000E-03 0. -1.
         11    1    4    4    0    0 -0.27441427668E-01  0.10451884283E+00 -0.30806899410E-02  0.10810630060E+00  0.51100000000E-03 0.  1.
</event>
<event>
 8    1  0.1084146E+005  0.1043930E+01  0.7957747E-01            NaN
         13   -1    0    0    0    0  0.00000000000E+00  0.00000000000E+00  0.74505805969E-08  0.10566000000E+00  0.10566000000E+00 0.  1.
     999900   -1    0    0    0    0 -0.00000000000E+00 -0.00000000000E+00 -0.74505805969E-08  0.93827000000E+00  0.93827000000E+00 0.  1.
     999902    2    1    2    0    0  0.11855154283E-01  0.19929536642E-01  0.66364239554E-02  0.10198100241E+01  0.10195247481E+01 0.  0.
     999903    2    3    3    0    0  0.50611987075E-01 -0.11600066625E+00 -0.79598177023E-02  0.12841103241E+00  0.20206601367E-01 0.  0.
         14    1    1    2    0    0 -0.11855154283E-01 -0.19929536642E-01 -0.66364239554E-02  0.24119975886E-01  0.00000000000E+00 0. -1.
     999901    1    3    3    0    0 -0.38756832792E-01  0.13593020290E+00  0.14596241658E-01  0.89139899171E+00  0.88000000000E+00 0. -1.
        -11    1    4    4    0    0  0.27885018345E-01 -0.69979385898E-01  0.49114158831E-02  0.75492197118E-01  0.51100000000E-03 0.  1.
         11    1    4    4    0    0  0.22726968729E-01 -0.46021280356E-01 -0.12871233585E-01  0.52918835288E-01  0.51100000000E-03 0. -1.
</event>
<event>
 8    1  0.1084146E+005  0.1043930E+01  0.7957747E-01            NaN
         13   -1    0    0    0    0  0.00000000000E+00  0.00000000000E+00  0.74505805969E-08  0.10566000000E+00  0.10566000000E+00 0. -1.
     999900   -1    0    0    0    0 -0.00000000000E+00 -0.00000000000E+00 -0.74505805969E-08  0.93827000000E+00  0.93827000000E+00 0.  1.
     999902    2    1    2    0    0  0.47532663317E-02  0.54832863117E-02  0.23390613898E-01  0.10194395776E+01  0.10191453634E+01 0.  0.
     999903    2    3    3    0    0 -0.31218193884E-01 -0.34231393864E-02  0.12714854738E+00  0.13256924938E+00  0.20531908481E-01 0.  0.
         14    1    1    2    0    0 -0.47532663317E-02 -0.54832863117E-02 -0.23390613898E-01  0.24490422375E-01  0.00000000000E+00 0.  1.
     999901    1    3    3    0    0  0.35971460215E-01  0.89064256980E-02 -0.10375793348E+00  0.88687032825E+00  0.88000000000E+00 0.  1.
        -11    1    4    4    0    0 -0.10430587069E-01 -0.11203596497E-01  0.51009769390E-01  0.53259510093E-01  0.51100000000E-03 0. -1.
         11    1    4    4    0    0 -0.20787606815E-01  0.77804571110E-02  0.76138777992E-01  0.79309739282E-01  0.51100000000E-03 0.  1.
</event>
<event>
 8    1  0.1084146E+005  0.1043930E+01  0.7957747E-01            NaN
         13   -1    0    0    0    0  0.00000000000E+00  0.00000000000E+00  0.74505805969E-08  0.10566000000E+00  0.10566000000E+00 0. -1.
     999900   -1    0    0    0    0 -0.00000000000E+00 -0.00000000000E+00 -0.74505805969E-08  0.93827000000E+00  0.93827000000E+00 0.  1.
     999902    2    1    2    0    0  0.19668843946E-01  0.15012164696E-01  0.36481509516E-02  0.10189192520E+01  0.10186122445E+01 0.  0.
     999903    2    3    3    0    0 -0.12226226814E+00 -0.32779461412E-02 -0.26692986462E-01  0.12684327240E+00  0.20442433455E-01 0.  0.
         14    1    1    2    0    0 -0.19668843946E-01 -0.15012164696E-01 -0.36481509516E-02  0.25010748017E-01  0.00000000000E+00 0.  1.
     999901    1    3    3    0    0  0.14193111208E+00  0.18290110837E-01  0.30341137413E-01  0.89207597958E+00  0.88000000000E+00 0. -1.
        -11    1    4    4    0    0 -0.29155163400E-01  0.76052071052E-02 -0.40601885252E-02  0.30407383640E-01  0.51100000000E-03 0.  1.
         11    1    4    4    0    0 -0.93107104737E-01 -0.10883153246E-01 -0.22632797937E-01  0.96435888758E-01  0.51100000000E-03 0. -1.
</event>
<event>
 8    1  0.1084146E+005  0.1043930E+01  0.7957747E-01            NaN
         13   -1    0    0    0    0  0.00000000000E+00  0.00000000000E+00  0.74505805969E-08  0.10566000000E+00  0.10566000000E+00 0. -1.
     999900   -1    0    0    0    0 -0.00000000000E+00 -0.00000000000E+00 -0.74505805969E-08  0.93827000000E+00  0.93827000000E+00 0. -1.
     999902    2    1    2    0    0 -0.12629666392E-01 -0.19514332854E-01 -0.43447911217E-02  0.10202826985E+01  0.10200086225E+01 0.  0.
     999903    2    3    3    0    0  0.49370270675E-01 -0.32001157689E-01 -0.11547525823E+00  0.13104150863E+00  0.19386696485E-01 0.  0.
         14    1    1    2    0    0  0.12629666392E-01  0.19514332854E-01  0.43447911217E-02  0.23647301533E-01  0.00000000000E+00 0.  1.
     999901    1    3    3    0    0 -0.61999937068E-01  0.12486824834E-01  0.11113046710E+00  0.88924118984E+00  0.88000000000E+00 0.  1.
        -11    1    4    4    0    0  0.11708406480E-01 -0.16901668948E-01 -0.29394374594E-01  0.35875389535E-01  0.51100000000E-03 0. -1.
         11    1    4    4    0    0  0.37661864195E-01 -0.15099488741E-01 -0.86080883632E-01  0.95166119090E-01  0.51100000000E-03 0.  1.
</event>
<event>
 8    1  0.1084146E+005  0.1043930E+01  0.7957747E-01            NaN
         13   -1    0    0    0    0  0.00000000000E+00  0.00000000000E+00  0.74505805969E-08  0.10566000000E+00  0.10566000000E+00 0. -1.
     999900   -1    0    0    0    0 -0.00000000000E+00 -0.00000000000E+00 -0.74505805969E-08  0.93827000000E+00  0.93827000000E+00 0. -1.
     999902    2    1    2    0    0  0.14588011189E-01  0.12587670648E-01 -0.13739147005E-01  0.10202651805E+01  0.10199906935E+01 0.  0.
     999903    2    3    3    0    0  0.12308701634E+00  0.63060650218E-02 -0.45582544153E-01  0.13300789274E+00  0.20570638156E-01 0.  0.
         14    1    1    2    0    0 -0.14588011189E-01 -0.12587670648E-01  0.13739147005E-01  0.23664819527E-01  0.00000000000E+00 0. -1.
     999901    1    3    3    0    0 -0.10849900515E+00  0.62816056263E-02  0.31843397148E-01  0.88725728773E+00  0.88000000000E+00 0. -1.
        -11    1    4    4    0    0  0.79839688582E-01  0.13427333564E-01 -0.32748444145E-01  0.87334935017E-01  0.51100000000E-03 0. -1.
         11    1    4    4    0    0  0.43247327753E-01 -0.71212685421E-02 -0.12834100008E-01  0.45672957727E-01  0.51100000000E-03 0.  1.
</event>
<event>
 8    1  0.1084146E+005  0.1043930E+01  0.7957747E-01            NaN
         13   -1    0    0    0    0  0.00000000000E+00  0.00000000000E+00  0.74505805969E-08  0.10566000000E+00  0.10566000000E+00 0. -1.
     999900   -1    0    0    0    0 -0.00000000000E+00 -0.00000000000E+00 -0.74505805969E-08  0.93827000000E+00  0.93827000000E+00 0. -1.
     999902    2    1    2    0    0  0.23174031335E-01  0.55528211818E-02  0.19334201557E-02  0.10200216821E+01  0.10197414497E+01 0.  0.
     999903    2    3    3    0    0 -0.42394443552E-01  0.81069864311E-01  0.90136921234E-01  0.12997566851E+00  0.19984946625E-01 0.  0.
         14    1    1    2    0    0 -0.23174031335E-01 -0.55528211818E-02 -0.19334201557E-02  0.23908317902E-01  0.00000000000E+00 0. -1.
     999901    1    3    3    0    0  0.65568474887E-01 -0.75517043129E-01 -0.88203501078E-01  0.89004601359E+00  0.88000000000E+00 0. -1.
        -11    1    4    4    0    0 -0.33533470884E-02  0.12658211683E-01  0.23024979884E-01  0.26493132683E-01  0.51100000000E-03 0. -1.
         11    1    4    4    0    0 -0.39041096464E-01  0.68411652628E-01  0.67111941349E-01  0.10348253583E+00  0.51100000000E-03 0.  1.
</event>
<event>
 8    1  0.1084146E+005  0.1043930E+01  0.7957747E-01            NaN
         13   -1    0    0    0    0  0.00000000000E+00  0.00000000000E+00  0.74505805969E-08  0.10566000000E+00  0.10566000000E+00 0.  1.
     999900   -1    0    0    0    0 -0.00000000000E+00 -0.00000000000E+00 -0.74505805969E-08  0.93827000000E+00  0.93827000000E+00 0.  1.
     999902    2    1    2    0    0 -0.48904757297E-02  0.19412514958E-01  0.15204359761E-01  0.10187916817E+01  0.10184814950E+01 0.  0.
     999903    2    3    3    0    0 -0.16981527806E-03 -0.89233981620E-01 -0.87534673833E-01  0.12616541342E+00  0.17107311494E-01 0.  0.
         14    1    1    2    0    0  0.48904757297E-02 -0.19412514958E-01 -0.15204359761E-01  0.25138318273E-01  0.00000000000E+00 0.  1.
     999901    1    3    3    0    0 -0.47206604516E-02  0.10864649658E+00  0.10273903359E+00  0.89262626831E+00  0.88000000000E+00 0. -1.
        -11    1    4    4    0    0  0.75607759572E-02 -0.32014971320E-01 -0.36034914637E-01  0.48794466034E-01  0.51100000000E-03 0. -1.
         11    1    4    4    0    0 -0.77305912352E-02 -0.57219010300E-01 -0.51499759196E-01  0.77370947382E-01  0.51100000000E-03 0.  1.
</event>
<event>
 8    1  0.1084146E+005  0.1043930E+01  0.7957747E-01            NaN
         13   -1    0    0    0    0  0.00000000000E+00  0.00000000000E+00  0.74505805969E-08  0.10566000000E+00  0.10566000000E+00 0. -1.
     999900   -1    0    0    0    0 -0.00000000000E+00 -0.00000000000E+00 -0.74505805969E-08  0.93827000000E+00  0.93827000000E+00 0. -1.
     999902    2    1    2    0    0  0.12314104594E-01 -0.18759952307E-01 -0.65510023377E-02  0.10205529041E+01  0.10202851275E+01 0.  0.
     999903    2    3    3    0    0  0.64108186925E-01 -0.54670026908E-01 -0.10118376107E+00  0.13323812371E+00  0.20385598617E-01 0.  0.
         14    1    1    2    0    0 -0.12314104594E-01  0.18759952307E-01  0.65510023377E-02  0.23377095931E-01  0.00000000000E+00 0. -1.
     999901    1    3    3    0    0 -0.51794082331E-01  0.35910074601E-01  0.94632758737E-01  0.88731478036E+00  0.88000000000E+00 0.  1.
        -11    1    4    4    0    0  0.41674657595E-01 -0.29455865594E-01 -0.46881316125E-01  0.69300389798E-01  0.51100000000E-03 0. -1.
         11    1    4    4    0    0  0.22433529330E-01 -0.25214161314E-01 -0.54302444950E-01  0.63937733909E-01  0.51100000000E-03 0.  1.
</event>
<event>
 8    1  0.1084146E+005  0.1043930E+01  0.7957747E-01            NaN
         13   -1    0    0    0    0  0.00000000000E+00  0.00000000000E+00  0.74505805969E-08  0.10566000000E+00  0.10566000000E+00 0.  1.
     999900   -1    0    0    0    0 -0.00000000000E+00 -0.00000000000E+00 -0.74505805969E-08  0.93827000000E+00  0.93827000000E+00 0. -1.
     999902    2    1    2    0    0 -0.27220211301E-02 -0.16246524163E-01 -0.16203618104E-01  0.10208233735E+01  0.10205618275E+01 0.  0.
     999903    2    3    3    0    0 -0.10560177985E+00  0.65284898688E-01 -0.36162215272E-01  0.13086272090E+00  0.20087110352E-01 0.  0.
         14    1    1    2    0    0  0.27220211301E-02  0.16246524163E-01  0.16203618104E-01  0.23106626454E-01  0.00000000000E+00 0.  1.
     999901    1    3    3    0    0  0.10287975872E+00 -0.81531422851E-01  0.19958597168E-01  0.88996065265E+00  0.88000000000E+00 0.  1.
        -11    1    4    4    0    0 -0.90590344782E-01  0.47506291586E-01 -0.32297248769E-01  0.10726990122E+00  0.51100000000E-03 0.  1.
         11    1    4    4    0    0 -0.15011435068E-01  0.17778607102E-01 -0.38649665037E-02  0.23592819678E-01  0.51100000000E-03 0. -1.
</event>
<event>
 7    1  0.1084146E+005  0.1043930E+01  0.7957747E-01            NaN
         13   -1    0    0    0    0  0.00000000000E+00  0.00000000000E+00  0.74505805969E-08  0.10566000000E+00  0.10566000000E+00 0.  1.
     999900   -1    0    0    0    0 -0.00000000000E+00 -0.00000000000E+00 -0.74505805969E-08  0.93827000000E+00  0.93827000000E+00 0.  1.
     999903    2    1    2    0    0 -0.55105224825E-01 -0.98610736315E-01 -0.74649146805E-02  0.11481677437E+00  0.19144283884E-01 0.  0.
         14    1    1    2    0    0  0.10433695743E-02 -0.13106653430E-01  0.37662390611E-01  0.39891460875E-01  0.00000000000E+00 0.  1.
     999901    1    1    2    0    0  0.54061855251E-01  0.11171738975E+00 -0.30197475931E-01  0.88922176476E+00  0.88000000000E+00 0.  1.
        -11    1    3    3    0    0 -0.93983162991E-02 -0.34830613329E-01 -0.34780017208E-02  0.36247173560E-01  0.51100000000E-03 0. -1.
         11    1    3    3    0    0 -0.45706908526E-01 -0.63780122986E-01 -0.39869129597E-02  0.78569600808E-01  0.51100000000E-03 0.  1.
</event>
<event>
 8    1  0.1084146E+005  0.1043930E+01  0.7957747E-01            NaN
         13   -1    0    0    0    0  0.00000000000E+00  0.00000000000E+00  0.74505805969E-08  0.10566000000E+00  0.10566000000E+00 0. -1.
     999900   -1    0    0    0    0 -0.00000000000E+00 -0.00000000000E+00 -0.74505805969E-08  0.93827000000E+00  0.93827000000E+00 0. -1.
     999902    2    1    2    0    0 -0.11126143656E-01 -0.19963491852E-01  0.49248566013E-03  0.10210701089E+01  0.10208141812E+01 0.  0.
     999903    2    3    3    0    0 -0.12790023995E+00  0.25243100687E-01  0.85057300419E-02  0.13216964333E+00  0.20019532071E-01 0.  0.
         14    1    1    2    0    0  0.11126143656E-01  0.19963491852E-01 -0.49248566013E-03  0.22859891113E-01  0.00000000000E+00 0. -1.
     999901    1    3    3    0    0  0.11677409629E+00 -0.45206592539E-01 -0.80132443818E-02  0.88890046555E+00  0.88000000000E+00 0. -1.
        -11    1    4    4    0    0 -0.19175527243E-01  0.82272828716E-02  0.73052743147E-02  0.22113732890E-01  0.51100000000E-03 0. -1.
         11    1    4    4    0    0 -0.10872471271E+00  0.17015817815E-01  0.12004557272E-02  0.11005591044E+00  0.51100000000E-03 0.  1.
</event>
<event>
 8    1  0.1084146E+005  0.1043930E+01  0.7957747E-01            NaN
         13   -1    0    0    0    0  0.00000000000E+00  0.00000000000E+00  0.74505805969E-08  0.10566000000E+00  0.10566000000E+00 0.  1.
     999900   -1    0    0    0    0 -0.00000000000E+00 -0.00000000000E+00 -0.74505805969E-08  0.93827000000E+00  0.93827000000E+00 0.  1.
     999902    2    1    2    0    0 -0.54697281347E-02 -0.13040932046E-01  0.19226031747E-01  0.10200632002E+01  0.10197839518E+01 0.  0.
     999903    2    3    3    0    0  0.36174151265E-01 -0.12054928389E+00 -0.30543350484E-01  0.13114855314E+00  0.20648187918E-01 0.  0.
         14    1    1    2    0    0  0.54697281347E-02  0.13040932046E-01 -0.19226031747E-01  0.23866799769E-01  0.00000000000E+00 0. -1.
     999901    1    3    3    0    0 -0.41643879399E-01  0.10750835185E+00  0.49769382231E-01  0.88891464709E+00  0.88000000000E+00 0.  1.
        -11    1    4    4    0    0  0.96169365144E-02 -0.62391581366E-01 -0.95188733994E-02  0.63844067579E-01  0.51100000000E-03 0.  1.
         11    1    4    4    0    0  0.26557214750E-01 -0.58157702528E-01 -0.21024477085E-01  0.67304485558E-01  0.51100000000E-03 0. -1.
</event>
<event>
 8    1  0.1084146E+005  0.1043930E+01  0.7957747E-01            NaN
         13   -1    0    0    0    0  0.00000000000E+00  0.00000000000E+00  0.74505805969E-08  0.10566000000E+00  0.10566000000E+00 0.  1.
     999900   -1    0    0    0    0 -0.00000000000E+00 -0.00000000000E+00 -0.74505805969E-08  0.93827000000E+00  0.93827000000E+00 0. -1.
     999902    2    1    2    0    0  0.20750877688E-01 -0.71957346538E-02 -0.85767461185E-02  0.10203516604E+01  0.10200791993E+01 0.  0.
     999903    2    3    3    0    0 -0.99419340350E-01 -0.11215907253E-01  0.77225288080E-01  0.12804059800E+00  0.20509700309E-01 0.  0.
         14    1    1    2    0    0 -0.20750877688E-01  0.71957346538E-02  0.85767461185E-02  0.23578339551E-01  0.00000000000E+00 0.  1.
     999901    1    3    3    0    0  0.12017021804E+00  0.40201725996E-02 -0.85802034199E-01  0.89231106245E+00  0.88000000000E+00 0. -1.
        -11    1    4    4    0    0 -0.58995532531E-01 -0.16741186228E-01  0.46143248807E-01  0.76747643002E-01  0.51100000000E-03 0.  1.
         11    1    4    4    0    0 -0.40423807819E-01  0.55252789746E-02  0.31082039273E-01  0.51292955001E-01  0.51100000000E-03 0. -1.
</event>
<event>
 8    1  0.1084146E+005  0.1043930E+01  0.7957747E-01            NaN
         13   -1    0    0    0    0  0.00000000000E+00  0.00000000000E+00  0.74505805969E-08  0.10566000000E+00  0.10566000000E+00 0.  1.
     999900   -1    0    0    0    0 -0.00000000000E+00 -0.00000000000E+00 -0.74505805969E-08  0.93827000000E+00  0.93827000000E+00 0.  1.
     999902    2    1    2    0    0 -0.21666911047E-01  0.28758256290E-02  0.10499467057E-01  0.10196820266E+01  0.10193936782E+01 0.  0.
     999903    2    3    3    0    0 -0.12347259408E+00 -0.37625482496E-01 -0.21990035784E-01  0.13229241605E+00  0.18882882377E-01 0.  0.
         14    1    1    2    0    0  0.21666911047E-01 -0.28758256290E-02 -0.10499467057E-01  0.24247973438E-01  0.00000000000E+00 0. -1.
     999901    1    3    3    0    0  0.10180568304E+00  0.40501308125E-01  0.32489502841E-01  0.88738961052E+00  0.88000000000E+00 0. -1.
        -11    1    4    4    0    0 -0.11155948512E+00 -0.28573910708E-01 -0.16454947232E-01  0.11633148113E+00  0.51100000000E-03 0.  1.
         11    1    4    4    0    0 -0.11913108964E-01 -0.90515717877E-02 -0.55350885527E-02  0.15960934913E-01  0.51100000000E-03 0. -1.
</event>
<event>
 8    1  0.1084146E+005  0.1043930E+01  0.7957747E-01            NaN
         13   -1    0    0    0    0  0.00000000000E+00  0.00000000000E+00  0.74505805969E-08  0.10566000000E+00  0.10566000000E+00 0.  1.
     999900   -1    0    0    0    0 -0.00000000000E+00 -0.00000000000E+00 -0.74505805969E-08  0.93827000000E+00  0.93827000000E+00 0. -1.
     999902    2    1    2    0    0  0.13767343162E-01 -0.14983700149E-01 -0.11190930992E-01  0.10207074260E+01  0.10204432182E+01 0.  0.
     999903    2    3    3    0    0 -0.11285434811E+00 -0.52900397437E-01 -0.34653861500E-01  0.13052697363E+00  0.17373680975E-01 0.  0.
         14    1    1    2    0    0 -0.13767343162E-01  0.14983700149E-01  0.11190930992E-01  0.23222574025E-01  0.00000000000E+00 0.  1.
     999901    1    3    3    0    0  0.12662169127E+00  0.37916697288E-01  0.23462930508E-01  0.89018045235E+00  0.88000000000E+00 0. -1.
        -11    1    4    4    0    0 -0.32038611524E-01 -0.21455097420E-01 -0.50387253404E-02  0.38890149238E-01  0.51100000000E-03 0.  1.
         11    1    4    4    0    0 -0.80815736587E-01 -0.31445300017E-01 -0.29615136159E-01  0.91636824389E-01  0.51100000000E-03 0. -1.
</event>
<event>
 8    1  0.1084146E+005  0.1043930E+01  0.7957747E-01            NaN
         13   -1    0    0    0    0  0.00000000000E+00  0.00000000000E+00  0.74505805969E-08  0.10566000000E+00  0.10566000000E+00 0. -1.
     999900   -1    0    0    0    0 -0.00000000000E+00 -0.00000000000E+00 -0.74505805969E-08  0.93827000000E+00  0.93827000000E+00 0. -1.
     999902    2    1    2    0    0  0.18879361372E-01 -0.14233155290E-01 -0.64991285299E-02  0.10194095663E+01  0.10191146218E+01 0.  0.
     999903    2    3    3    0    0  0.99002273506E-01 -0.76329504977E-01  0.37389454467E-01  0.13250379603E+00  0.23057345184E-01 0.  0.
         14    1    1    2    0    0 -0.18879361372E-01  0.14233155290E-01  0.64991285299E-02  0.24520433662E-01  0.00000000000E+00 0.  1.
     999901    1    3    3    0    0 -0.80122912134E-01  0.62096349687E-01 -0.43888582997E-01  0.88690577031E+00  0.88000000000E+00 0. -1.
        -11    1    4    4    0    0  0.97146953078E-01 -0.68045180142E-01  0.35206195186E-01  0.12372313580E+00  0.51100000000E-03 0. -1.
         11    1    4    4    0    0  0.18553204282E-02 -0.82843248343E-02  0.21832592810E-02  0.87806602223E-02  0.51100000000E-03 0.  1.
</event>
<event>
 8    1  0.1084146E+005  0.1043930E+01  0.7957747E-01            NaN
         13   -1    0    0    0    0  0.00000000000E+00  0.00000000000E+00  0.74505805969E-08  0.10566000000E+00  0.10566000000E+00 0.  1.
     999900   -1    0    0    0    0 -0.00000000000E+00 -0.00000000000E+00 -0.74505805969E-08  0.93827000000E+00  0.93827000000E+00 0. -1.
     999902    2    1    2    0    0  0.19958939026E-01 -0.11007997192E-01  0.49221583747E-02  0.10206112759E+01  0.10203448504E+01 0.  0.
     999903    2    3    3    0    0  0.11845506025E+00  0.48313021375E-01 -0.28147408855E-01  0.13251552354E+00  0.20058365365E-01 0.  0.
         14    1    1    2    0    0 -0.19958939026E-01  0.11007997192E-01 -0.49221583747E-02  0.23318724071E-01  0.00000000000E+00 0. -1.
     999901    1    3    3    0    0 -0.98496121220E-01 -0.59321018567E-01  0.33069567230E-01  0.88809575239E+00  0.88000000000E+00 0.  1.
        -11    1    4    4    0    0  0.10012132506E+00  0.42280339431E-01 -0.30952214081E-01  0.11300534285E+00  0.51100000000E-03 0. -1.
         11    1    4    4    0    0  0.18333735182E-01  0.60326819438E-02  0.28048052260E-02  0.19510180689E-01  0.51100000000E-03 0.  1.
</event>
<event>
 8    1  0.1084146E+005  0.1043930E+01  0.7957747E-01            NaN
         13   -1    0    0    0    0  0.00000000000E+00  0.00000000000E+00  0.74505805969E-08  0.10566000000E+00  0.10566000000E+00 0. -1.
     999900   -1    0    0    0    0 -0.00000000000E+00 -0.00000000000E+00 -0.74505805969E-08  0.93827000000E+00  0.93827000000E+00 0. -1.
     999902    2    1    2    0    0  0.58793297019E-02 -0.11978795622E-01  0.19467868851E-01  0.10203279666E+01  0.10200549512E+01 0.  0.
     999903    2    3    3    0    0 -0.12461664687E+00 -0.49849294212E-02 -0.27919468156E-01  0.12941625731E+00  0.20369407346E-01 0.  0.
         14    1    1    2    0    0 -0.58793297019E-02  0.11978795622E-01 -0.19467868851E-01  0.23602033385E-01  0.00000000000E+00 0.  1.
     999901    1    3    3    0    0  0.13049597657E+00 -0.69938662011E-02  0.47387337008E-01  0.89091170930E+00  0.88000000000E+00 0.  1.
        -11    1    4    4    0    0 -0.60055985823E-01 -0.74212636453E-02 -0.22568787051E-01  0.64586437100E-01  0.51100000000E-03 0.  1.
         11    1    4    4    0    0 -0.64560661048E-01  0.24363342241E-02 -0.53506811057E-02  0.64829820211E-01  0.51100000000E-03 0. -1.
</event>
<event>
 8    1  0.1084146E+005  0.1043930E+01  0.7957747E-01            NaN
         13   -1    0    0    0    0  0.00000000000E+00  0.00000000000E+00  0.74505805969E-08  0.10566000000E+00  0.10566000000E+00 0.  1.
     999900   -1    0    0    0    0 -0.00000000000E+00 -0.00000000000E+00 -0.74505805969E-08  0.93827000000E+00  0.93827000000E+00 0. -1.
     999902    2    1    2    0    0 -0.23143833617E-02 -0.14026148587E-02  0.23419537427E-01  0.10203546223E+01  0.10200822305E+01 0.  0.
     999903    2    3    3    0    0 -0.36631421164E-01  0.87035270722E-01  0.91026113667E-01  0.13267812279E+00  0.20018279943E-01 0.  0.
         14    1    1    2    0    0  0.23143833617E-02  0.14026148587E-02 -0.23419537427E-01  0.23575377666E-01  0.00000000000E+00 0. -1.
     999901    1    3    3    0    0  0.34317037802E-01 -0.88437885581E-01 -0.67606576240E-01  0.88767649954E+00  0.88000000000E+00 0. -1.
        -11    1    4    4    0    0 -0.13836939676E-01  0.46231200214E-01  0.34469223380E-01  0.59305760717E-01  0.51100000000E-03 0. -1.
         11    1    4    4    0    0 -0.22794481488E-01  0.40804070508E-01  0.56556890288E-01  0.73372362074E-01  0.51100000000E-03 0.  1.
</event>
<event>
 8    1  0.1084146E+005  0.1043930E+01  0.7957747E-01            NaN
         13   -1    0    0    0    0  0.00000000000E+00  0.00000000000E+00  0.74505805969E-08  0.10566000000E+00  0.10566000000E+00 0. -1.
     999900   -1    0    0    0    0 -0.00000000000E+00 -0.00000000000E+00 -0.74505805969E-08  0.93827000000E+00  0.93827000000E+00 0. -1.
     999902    2    1    2    0    0 -0.20770145810E-01  0.97889027635E-02  0.51129116029E-02  0.10204063217E+01  0.10201351371E+01 0.  0.
     999903    2    3    3    0    0  0.10110085242E+00 -0.24451685647E-01  0.69210156664E-01  0.12904028304E+00  0.32281288260E-01 0.  0.
         14    1    1    2    0    0  0.20770145810E-01 -0.97889027635E-02 -0.51129116029E-02  0.23523678269E-01  0.00000000000E+00 0.  1.
     999901    1    3    3    0    0 -0.12187099823E+00  0.34240588410E-01 -0.64097245061E-01  0.89136603869E+00  0.88000000000E+00 0. -1.
        -11    1    4    4    0    0  0.58294788599E-01 -0.30247166998E-01  0.43309304852E-01  0.78671027049E-01  0.51100000000E-03 0.  1.
         11    1    4    4    0    0  0.42806063818E-01  0.57954813514E-02  0.25900851812E-01  0.50369255992E-01  0.51100000000E-03 0. -1.
</event>
<event>
 8    1  0.1084146E+005  0.1043930E+01  0.7957747E-01            NaN
         13   -1    0    0    0    0  0.00000000000E+00  0.00000000000E+00  0.74505805969E-08  0.10566000000E+00  0.10566000000E+00 0.  1.
     999900   -1    0    0    0    0 -0.00000000000E+00 -0.00000000000E+00 -0.74505805969E-08  0.93827000000E+00  0.93827000000E+00 0. -1.
     999902    2    1    2    0    0 -0.18982481038E-01 -0.85698527962E-02  0.78872598285E-02  0.10216592607E+01  0.10214164964E+01 0.  0.
     999903    2    3    3    0    0  0.83169409878E-01 -0.84714137290E-01 -0.50663235408E-01  0.13055818818E+00  0.19622468813E-01 0.  0.
         14    1    1    2    0    0  0.18982481038E-01  0.85698527962E-02 -0.78872598285E-02  0.22270739344E-01  0.00000000000E+00 0. -1.
     999901    1    3    3    0    0 -0.10215189092E+00  0.76144284494E-01  0.58550495236E-01  0.89110107248E+00  0.88000000000E+00 0.  1.
        -11    1    4    4    0    0  0.14930790250E-01 -0.24695031750E-01 -0.68266267527E-02  0.29658675703E-01  0.51100000000E-03 0.  1.
         11    1    4    4    0    0  0.68238619628E-01 -0.60019105540E-01 -0.43836608655E-01  0.10089951248E+00  0.51100000000E-03 0. -1.
</event>
<event>
 8    1  0.1084146E+005  0.1043930E+01  0.7957747E-01            NaN
         13   -1    0    0    0    0  0.00000000000E+00  0.00000000000E+00  0.74505805969E-08  0.10566000000E+00  0.10566000000E+00 0. -1.
     999900   -1    0    0    0    0 -0.00000000000E+00 -0.00000000000E+00 -0.74505805969E-08  0.93827000000E+00  0.93827000000E+00 0.  1.
     999902    2    1    2    0    0  0.13856647907E-01 -0.14853203196E-02  0.19912134439E-01  0.10196255567E+01  0.10193358474E+01 0.  0.
     999903    2    3    3    0    0  0.38520580080E-01 -0.12281422106E+00 -0.80465490087E-02  0.13051887033E+00  0.20081348999E-01 0.  0.
         14    1    1    2    0    0 -0.13856647907E-01  0.14853203196E-02 -0.19912134439E-01  0.24304443330E-01  0.00000000000E+00 0.  1.
     999901    1    3    3    0    0 -0.24663932172E-01  0.12132890074E+00  0.27958683448E-01  0.88910668634E+00  0.88000000000E+00 0.  1.
        -11    1    4    4    0    0  0.23215757289E-02 -0.34185844414E-01  0.15391934026E-02  0.34302943161E-01  0.51100000000E-03 0.  1.
         11    1    4    4    0    0  0.36199004351E-01 -0.88628376648E-01 -0.95857424113E-02  0.96215927173E-01  0.51100000000E-03 0. -1.
</event>
<event>
 8    1  0.1084146E+005  0.1043930E+01  0.7957747E-01            NaN
         13   -1    0    0    0    0  0.00000000000E+00  0.00000000000E+00  0.74505805969E-08  0.10566000000E+00  0.10566000000E+00 0.  1.
     999900   -1    0    0    0    0 -0.00000000000E+00 -0.00000000000E+00 -0.74505805969E-08  0.93827000000E+00  0.93827000000E+00 0. -1.
     999902    2    1    2    0    0  0.11902500271E-01  0.18309571808E-01 -0.36379977765E-02  0.10217907823E+01  0.10215509081E+01 0.  0.
     999903    2    3    3    0    0  0.10337320055E+00  0.83495793012E-01  0.30547849590E-02  0.13462623962E+00  0.21385196768E-01 0.  0.
         14    1    1    2    0    0 -0.11902500271E-01 -0.18309571808E-01  0.36379977765E-02  0.22139217698E-01  0.00000000000E+00 0. -1.
     999901    1    3    3    0    0 -0.91470700281E-01 -0.65186221205E-01 -0.66927827356E-02  0.88716454268E+00  0.88000000000E+00 0.  1.
        -11    1    4    4    0    0  0.63534861861E-01  0.59839173028E-01 -0.57223700084E-02  0.87466633295E-01  0.51100000000E-03 0.  1.
         11    1    4    4    0    0  0.39838338691E-01  0.23656619984E-01  0.87771549674E-02  0.47159606328E-01  0.51100000000E-03 0. -1.
</event>
<event>
 8    1  0.1084146E+005  0.1043930E+01  0.7957747E-01            NaN
         13   -1    0    0    0    0  0.00000000000E+00  0.00000000000E+00  0.74505805969E-08  0.10566000000E+00  0.10566000000E+00 0.  1.
     999900   -1    0    0    0    0 -0.00000000000E+00 -0.00000000000E+00 -0.74505805969E-08  0.93827000000E+00  0.93827000000E+00 0. -1.
     999902    2    1    2    0    0  0.83551875443E-02 -0.56703189226E-02  0.20753332845E-01  0.10208505178E+01  0.10205895929E+01 0.  0.
     999903    2    3    3    0    0  0.12452618946E+00 -0.39494821558E-01 -0.54367745630E-02  0.13218538377E+00  0.19411449566E-01 0.  0.
         14    1    1    2    0    0 -0.83551875443E-02  0.56703189226E-02 -0.20753332845E-01  0.23079482224E-01  0.00000000000E+00 0. -1.
     999901    1    3    3    0    0 -0.11617100192E+00  0.33824502636E-01  0.26190107408E-01  0.88866513400E+00  0.88000000000E+00 0. -1.
        -11    1    4    4    0    0  0.57089998022E-01 -0.12502827980E-01  0.55977932882E-02  0.58712732795E-01  0.51100000000E-03 0.  1.
         11    1    4    4    0    0  0.67436191439E-01 -0.26991993578E-01 -0.11034567851E-01  0.73472650978E-01  0.51100000000E-03 0. -1.
</event>
<event>
 8    1  0.1084146E+005  0.1043930E+01  0.7957747E-01            NaN
         13   -1    0    0    0    0  0.00000000000E+00  0.00000000000E+00  0.74505805969E-08  0.10566000000E+00  0.10566000000E+00 0.  1.
     999900   -1    0    0    0    0 -0.00000000000E+00 -0.00000000000E+00 -0.74505805969E-08  0.93827000000E+00  0.93827000000E+00 0.  1.
     999902    2    1    2    0    0 -0.18751328650E-01  0.56430303649E-02  0.13488104703E-01  0.10201521724E+01  0.10198750265E+01 0.  0.
     999903    2    3    3    0    0  0.69357036651E-01 -0.79743152593E-01 -0.69024145022E-01  0.12781694634E+00  0.20086569085E-01 0.  0.
         14    1    1    2    0    0  0.18751328650E-01 -0.56430303649E-02 -0.13488104703E-01  0.23777827619E-01  0.00000000000E+00 0. -1.
     999901    1    3    3    0    0 -0.88108365301E-01  0.85386182958E-01  0.82512249724E-01  0.89233522604E+00  0.88000000000E+00 0. -1.
        -11    1    4    4    0    0  0.38559664909E-02 -0.32853550361E-02 -0.97102137826E-02  0.10964096315E-01  0.51100000000E-03 0.  1.
         11    1    4    4    0    0  0.65501070160E-01 -0.76457797557E-01 -0.59313931239E-01  0.11685285003E+00  0.51100000000E-03 0. -1.
</event>
<event>
 8    1  0.1084146E+005  0.1043930E+01  0.7957747E-01            NaN
         13   -1    0    0    0    0  0.00000000000E+00  0.00000000000E+00  0.74505805969E-08  0.10566000000E+00  0.10566000000E+00 0. -1.
     999900   -1    0    0    0    0 -0.00000000000E+00 -0.00000000000E+00 -0.74505805969E-08  0.93827000000E+00  0.93827000000E+00 0.  1.
     999902    2    1    2    0    0 -0.35023014487E-02  0.34652861301E-02  0.19463681261E-01  0.10238524202E+01  0.10236555422E+01 0.  0.
     999903    2    3    3    0    0 -0.10532283506E+00  0.33662782765E-01 -0.71039055393E-01  0.13285856205E+00  0.19461952386E-01 0.  0.
         14    1    1    2    0    0  0.35023014487E-02 -0.34652861301E-02 -0.19463681261E-01  0.20077579825E-01  0.00000000000E+00 0.  1.
     999901    1    3    3    0    0  0.10182053361E+00 -0.30197496635E-01  0.90502736653E-01  0.89099385812E+00  0.88000000000E+00 0. -1.
        -11    1    4    4    0    0 -0.44617671580E-01  0.24148967948E-01 -0.34732380330E-01  0.61485840927E-01  0.51100000000E-03 0. -1.
         11    1    4    4    0    0 -0.60705163483E-01  0.95138148175E-02 -0.36306675063E-01  0.71372721126E-01  0.51100000000E-03 0.  1.
</event>
<event>
 8    1  0.1084146E+005  0.1043930E+01  0.7957747E-01            NaN
         13   -1    0    0    0    0  0.00000000000E+00  0.00000000000E+00  0.74505805969E-08  0.10566000000E+00  0.10566000000E+00 0.  1.
     999900   -1    0    0    0    0 -0.00000000000E+00 -0.00000000000E+00 -0.74505805969E-08  0.93827000000E+00  0.93827000000E+00 0.  1.
     999902    2    1    2    0    0 -0.19270765496E-01 -0.89843232172E-02 -0.11625563743E-01  0.10196970844E+01  0.10194090983E+01 0.  0.
     999903    2    3    3    0    0  0.10202633676E+00 -0.14302406955E-01  0.72018445023E-01  0.12743165907E+00  0.20934160418E-01 0.  0.
         14    1    1    2    0    0  0.19270765496E-01  0.89843232172E-02  0.11625563743E-01  0.24232915607E-01  0.00000000000E+00 0.  1.
     999901    1    3    3    0    0 -0.12129710225E+00  0.53180837382E-02 -0.83644008766E-01  0.89226542533E+00  0.88000000000E+00 0. -1.
        -11    1    4    4    0    0  0.55058131483E-01 -0.10909313873E-02  0.28299056588E-01  0.61916764277E-01  0.51100000000E-03 0. -1.
         11    1    4    4    0    0  0.46968205273E-01 -0.13211475568E-01  0.43719388435E-01  0.65514894791E-01  0.51100000000E-03 0.  1.
</event>
<event>
 8    1  0.1084146E+005  0.1043930E+01  0.7957747E-01            NaN
         13   -1    0    0    0    0  0.00000000000E+00  0.00000000000E+00  0.74505805969E-08  0.10566000000E+00  0.10566000000E+00 0. -1.
     999900   -1    0    0    0    0 -0.00000000000E+00 -0.00000000000E+00 -0.74505805969E-08  0.93827000000E+00  0.93827000000E+00 0. -1.
     999902    2    1    2    0    0 -0.49584535984E-02  0.22811871063E-01  0.42645566040E-02  0.10201991305E+01  0.10199230911E+01 0.  0.
     999903    2    3    3    0    0 -0.71965506939E-02 -0.35336075016E-01  0.12358603246E+00  0.13024193643E+00  0.19723743177E-01 0.  0.
         14    1    1    2    0    0  0.49584535984E-02 -0.22811871063E-01 -0.42645566040E-02  0.23730869485E-01  0.00000000000E+00 0.  1.
     999901    1    3    3    0    0  0.22380970956E-02  0.58147946079E-01 -0.11932147586E+00  0.88995719409E+00  0.88000000000E+00 0. -1.
        -11    1    4    4    0    0 -0.90898464092E-02 -0.15534118908E-01  0.34008182596E-01  0.38480537450E-01  0.51100000000E-03 0.  1.
         11    1    4    4    0    0  0.18932957152E-02 -0.19801956108E-01  0.89577849865E-01  0.91761398975E-01  0.51100000000E-03 0. -1.
</event>
<event>
 8    1  0.1084146E+005  0.1043930E+01  0.7957747E-01            NaN
         13   -1    0    0    0    0  0.00000000000E+00  0.00000000000E+00  0.74505805969E-08  0.10566000000E+00  0.10566000000E+00 0. -1.
     999900   -1    0    0    0    0 -0.00000000000E+00 -0.00000000000E+00 -0.74505805969E-08  0.93827000000E+00  0.93827000000E+00 0.  1.
     999902    2    1    2    0    0 -0.12672959792E-03 -0.14786009815E-01  0.19216741681E-01  0.10196828289E+01  0.10193944998E+01 0.  0.
     999903    2    3    3    0    0  0.11402271956E+00 -0.64900716513E-02 -0.56463758899E-01  0.12905021242E+00  0.20554796251E-01 0.  0.
         14    1    1    2    0    0  0.12672959792E-03  0.14786009815E-01 -0.19216741681E-01  0.24247171123E-01  0.00000000000E+00 0.  1.
     999901    1    3    3    0    0 -0.11414944916E+00 -0.82959381637E-02  0.75680500580E-01  0.89063261646E+00  0.88000000000E+00 0. -1.
        -11    1    4    4    0    0  0.50286422685E-01  0.66997111293E-02 -0.20803866691E-01  0.54833132557E-01  0.51100000000E-03 0.  1.
         11    1    4    4    0    0  0.63736296879E-01 -0.13189782781E-01 -0.35659892208E-01  0.74217079860E-01  0.51100000000E-03 0. -1.
</event>
<event>
 8    1  0.1084146E+005  0.1043930E+01  0.7957747E-01            NaN
         13   -1    0    0    0    0  0.00000000000E+00  0.00000000000E+00  0.74505805969E-08  0.10566000000E+00  0.10566000000E+00 0.  1.
     999900   -1    0    0    0    0 -0.00000000000E+00 -0.00000000000E+00 -0.74505805969E-08  0.93827000000E+00  0.93827000000E+00 0. -1.
     999902    2    1    2    0    0 -0.87924929858E-03 -0.23387926280E-01 -0.10074690577E-01  0.10184492707E+01  0.10181304678E+01 0.  0.
     999903    2    3    3    0    0 -0.40439028627E-01 -0.10930979529E+00  0.56381684741E-01  0.13088857220E+00  0.19208789007E-01 0.  0.
         14    1    1    2    0    0  0.87924929858E-03  0.23387926280E-01  0.10074690577E-01  0.25480729292E-01  0.00000000000E+00 0. -1.
     999901    1    3    3    0    0  0.39559779329E-01  0.85921869012E-01 -0.66456375319E-01  0.88756069851E+00  0.88000000000E+00 0. -1.
        -11    1    4    4    0    0 -0.15819377860E-01 -0.65668460407E-01  0.26604332994E-01  0.72599249743E-01  0.51100000000E-03 0.  1.
         11    1    4    4    0    0 -0.24619650768E-01 -0.43641334885E-01  0.29777351747E-01  0.58289322457E-01  0.51100000000E-03 0. -1.
</event>
<event>
 8    1  0.1084146E+005  0.1043930E+01  0.7957747E-01            NaN
         13   -1    0    0    0    0  0.00000000000E+00  0.00000000000E+00  0.74505805969E-08  0.10566000000E+00  0.10566000000E+00 0. -1.
     999900   -1    0    0    0    0 -0.00000000000E+00 -0.00000000000E+00 -0.74505805969E-08  0.93827000000E+00  0.93827000000E+00 0. -1.
     999902    2    1    2    0    0  0.17453806067E-01 -0.28213228395E-01  0.40170577583E-02  0.10105120654E+01  0.10099593437E+01 0.  0.
     999903    2    3    3    0    0  0.53200808727E-01 -0.79627288188E-01  0.78146909767E-01  0.12517795402E+00  0.19792665121E-01 0.  0.
         14    1    1    2    0    0 -0.17453806067E-01  0.28213228395E-01 -0.40170577583E-02  0.33417934642E-01  0.00000000000E+00 0.  1.
     999901    1    3    3    0    0 -0.35747002661E-01  0.51414059793E-01 -0.74129852009E-01  0.88533411134E+00  0.88000000000E+00 0. -1.
        -11    1    4    4    0    0  0.26044820896E-01 -0.53009304370E-01  0.40144375595E-01  0.71415341896E-01  0.51100000000E-03 0.  1.
         11    1    4    4    0    0  0.27155987831E-01 -0.26617983818E-01  0.38002534173E-01  0.53762612122E-01  0.51100000000E-03 0. -1.
</event>
<event>
 8    1  0.1084146E+005  0.1043930E+01  0.7957747E-01            NaN
         13   -1    0    0    0    0  0.00000000000E+00  0.00000000000E+00  0.74505805969E-08  0.10566000000E+00  0.10566000000E+00 0. -1.
     999900   -1    0    0    0    0 -0.00000000000E+00 -0.00000000000E+00 -0.74505805969E-08  0.93827000000E+00  0.93827000000E+00 0.  1.
     999902    2    1    2    0    0 -0.20768504709E-01  0.66770534460E-02  0.84092376711E-02  0.10205498993E+01  0.10202820531E+01 0.  0.
     999903    2    3    3    0    0  0.11252860349E+00 -0.51925258275E-02  0.59889199582E-01  0.12894505833E+00  0.18720654695E-01 0.  0.
         14    1    1    2    0    0  0.20768504709E-01 -0.66770534460E-02 -0.84092376711E-02  0.23380100701E-01  0.00000000000E+00 0.  1.
     999901    1    3    3    0    0 -0.13329710820E+00  0.11869579273E-01 -0.51479961911E-01  0.89160484097E+00  0.88000000000E+00 0.  1.
        -11    1    4    4    0    0  0.20842508382E-01 -0.60864275312E-02  0.17675649303E-01  0.28002579435E-01  0.51100000000E-03 0. -1.
         11    1    4    4    0    0  0.91686095110E-01  0.89390170370E-03  0.42213550280E-01  0.10094247889E+00  0.51100000000E-03 0.  1.
</event>
<event>
 8    1  0.1084146E+005  0.1043930E+01  0.7957747E-01            NaN
         13   -1    0    0    0    0  0.00000000000E+00  0.00000000000E+00  0.74505805969E-08  0.10566000000E+00  0.10566000000E+00 0.  1.
     999900   -1    0    0    0    0 -0.00000000000E+00 -0.00000000000E+00 -0.74505805969E-08  0.93827000000E+00  0.93827000000E+00 0. -1.
     999902    2    1    2    0    0 -0.63901786832E-02 -0.12319508046E-01  0.19042767822E-01  0.10203666456E+01  0.10200945348E+01 0.  0.
     999903    2    3    3    0    0 -0.10331221870E+00 -0.67544256181E-01  0.45244334026E-01  0.13293767569E+00  0.19741701544E-01 0.  0.
         14    1    1    2    0    0  0.63901786832E-02  0.12319508046E-01 -0.19042767822E-01  0.23563354354E-01  0.00000000000E+00 0. -1.
     999901    1    3    3    0    0  0.96922040018E-01  0.55224748135E-01 -0.26201566203E-01  0.88742896996E+00  0.88000000000E+00 0.  1.
        -11    1    4    4    0    0 -0.30228547822E-01 -0.17771234700E-01  0.22392019633E-01  0.41608238973E-01  0.51100000000E-03 0. -1.
         11    1    4    4    0    0 -0.73083670879E-01 -0.49773021482E-01  0.22852314392E-01  0.91329436715E-01  0.51100000000E-03 0.  1.
</event>
<event>
 8    1  0.1084146E+005  0.1043930E+01  0.7957747E-01            NaN
         13   -1    0    0    0    0  0.00000000000E+00  0.00000000000E+00  0.74505805969E-08  0.10566000000E+00  0.10566000000E+00 0.  1.
     999900   -1    0    0    0    0 -0.00000000000E+00 -0.00000000000E+00 -0.74505805969E-08  0.93827000000E+00  0.93827000000E+00 0. -1.
     999902    2    1    2    0    0  0.12976277614E-01 -0.18817754346E-01  0.56462039151E-02  0.10203849097E+01  0.10201132254E+01 0.  0.
     999903    2    3    3    0    0 -0.61700129802E-01 -0.69828136116E-04  0.11379663259E+00  0.13042728947E+00  0.15959115094E-01 0.  0.
         14    1    1    2    0    0 -0.12976277614E-01  0.18817754346E-01 -0.56462039151E-02  0.23545090317E-01  0.00000000000E+00 0. -1.
     999901    1    3    3    0    0  0.74676407417E-01 -0.18747926210E-01 -0.10815042868E+00  0.88995762022E+00  0.88000000000E+00 0. -1.
        -11    1    4    4    0    0 -0.23532691457E-01 -0.11323169631E-02  0.59948487423E-01  0.64413911341E-01  0.51100000000E-03 0. -1.
         11    1    4    4    0    0 -0.38167438345E-01  0.10624888270E-02  0.53848145168E-01  0.66013378125E-01  0.51100000000E-03 0.  1.
</event>
<event>
 8    1  0.1084146E+005  0.1043930E+01  0.7957747E-01            NaN
         13   -1    0    0    0    0  0.00000000000E+00  0.00000000000E+00  0.74505805969E-08  0.10566000000E+00  0.10566000000E+00 0. -1.
     999900   -1    0    0    0    0 -0.00000000000E+00 -0.00000000000E+00 -0.74505805969E-08  0.93827000000E+00  0.93827000000E+00 0.  1.
     999902    2    1    2    0    0  0.21558164601E-01 -0.32850241596E-03 -0.40914089465E-02  0.10219845676E+01  0.10217489195E+01 0.  0.
     999903    2    3    3    0    0  0.10948474924E+00  0.74615785825E-01 -0.11943655711E-01  0.13439829666E+00  0.19126563314E-01 0.  0.
         14    1    1    2    0    0 -0.21558164601E-01  0.32850241596E-03  0.40914089465E-02  0.21945432371E-01  0.00000000000E+00 0.  1.
     999901    1    3    3    0    0 -0.87926584639E-01 -0.74944288241E-01  0.78522467647E-02  0.88758627096E+00  0.88000000000E+00 0.  1.
        -11    1    4    4    0    0  0.21430940759E-01  0.23932500925E-01 -0.27689028634E-03  0.32130789153E-01  0.51100000000E-03 0. -1.
         11    1    4    4    0    0  0.88053808480E-01  0.50683284900E-01 -0.11666765425E-01  0.10226750751E+00  0.51100000000E-03 0.  1.
</event>
<event>
 8    1  0.1084146E+005  0.1043930E+01  0.7957747E-01            NaN
         13   -1    0    0    0    0  0.00000000000E+00  0.00000000000E+00  0.74505805969E-08  0.10566000000E+00  0.10566000000E+00 0. -1.
     999900   -1    0    0    0    0 -0.00000000000E+00 -0.00000000000E+00 -0.74505805969E-08  0.93827000000E+00  0.93827000000E+00 0. -1.
     999902    2    1    2    0    0 -0.24720524522E-01 -0.49514748583E-02  0.71921179595E-02  0.10177126775E+01  0.10173749289E+01 0.  0.
     999903    2    3    3    0    0  0.87528758081E-01  0.14069242935E-01  0.88138539521E-01  0.12669415231E+00  0.20585893051E-01 0.  0.
         14    1    1    2    0    0  0.24720524522E-01  0.49514748583E-02 -0.71921179595E-02  0.26217322454E-01  0.00000000000E+00 0.  1.
     999901    1    3    3    0    0 -0.11224928260E+00 -0.19020717793E-01 -0.80946421561E-01  0.89101852524E+00  0.88000000000E+00 0. -1.
        -11    1    4    4    0    0  0.30939797493E-01 -0.48366353983E-02  0.28921761756E-01  0.42630898829E-01  0.51100000000E-03 0. -1.
         11    1    4    4    0    0  0.56588960588E-01  0.18905878333E-01  0.59216777765E-01  0.84063253481E-01  0.51100000000E-03 0.  1.
</event>
<event>
 8    1  0.1084146E+005  0.1043930E+01  0.7957747E-01            NaN
         13   -1    0    0    0    0  0.00000000000E+00  0.00000000000E+00  0.74505805969E-08  0.10566000000E+00  0.10566000000E+00 0. -1.
     999900   -1    0    0    0    0 -0.00000000000E+00 -0.00000000000E+00 -0.74505805969E-08  0.93827000000E+00  0.93827000000E+00 0. -1.
     999902    2    1    2    0    0 -0.19570211090E-01 -0.10270829308E-01  0.10142954384E-01  0.10196120515E+01  0.10193220163E+01 0.  0.
     999903    2    3    3    0    0 -0.39542111402E-01  0.66372221694E-01  0.10382106970E+00  0.13110283748E+00  0.20983066862E-01 0.  0.
         14    1    1    2    0    0  0.19570211090E-01  0.10270829308E-01 -0.10142954384E-01  0.24317948524E-01  0.00000000000E+00 0. -1.
     999901    1    3    3    0    0  0.19971900313E-01 -0.76643051002E-01 -0.93678115315E-01  0.88850921400E+00  0.88000000000E+00 0. -1.
        -11    1    4    4    0    0 -0.22701391576E-01  0.52843984262E-01  0.66001938788E-01  0.87546312869E-01  0.51100000000E-03 0. -1.
         11    1    4    4    0    0 -0.16840719827E-01  0.13528237432E-01  0.37819130910E-01  0.43556524610E-01  0.51100000000E-03 0.  1.
</event>
<event>
 8    1  0.1084146E+005  0.1043930E+01  0.7957747E-01            NaN
         13   -1    0    0    0    0  0.00000000000E+00  0.00000000000E+00  0.74505805969E-08  0.10566000000E+00  0.10566000000E+00 0. -1.
     999900   -1    0    0    0    0 -0.00000000000E+00 -0.00000000000E+00 -0.74505805969E-08  0.93827000000E+00  0.93827000000E+00 0. -1.
     999902    2    1    2    0    0  0.11391166393E-01  0.19309795593E-01 -0.29273790451E-02  0.10213203466E+01  0.10210700534E+01 0.  0.
     999903    2    3    3    0    0  0.62674259704E-01  0.11356288932E+00  0.27956258693E-01  0.13426488026E+00  0.20516164616E-01 0.  0.
         14    1    1    2    0    0 -0.11391166393E-01 -0.19309795593E-01  0.29273790451E-02  0.22609653375E-01  0.00000000000E+00 0.  1.
     999901    1    3    3    0    0 -0.51283093310E-01 -0.94253093724E-01 -0.30883637738E-01  0.88705546637E+00  0.88000000000E+00 0. -1.
        -11    1    4    4    0    0  0.39716292823E-01  0.56152421607E-01  0.77568804541E-02  0.69216390279E-01  0.51100000000E-03 0. -1.
         11    1    4    4    0    0  0.22957966881E-01  0.57410467710E-01  0.20199378239E-01  0.65048489977E-01  0.51100000000E-03 0.  1.
</event>
<event>
 8    1  0.1084146E+005  0.1043930E+01  0.7957747E-01            NaN
         13   -1    0    0    0    0  0.00000000000E+00  0.00000000000E+00  0.74505805969E-08  0.10566000000E+00  0.10566000000E+00 0.  1.
     999900   -1    0    0    0    0 -0.00000000000E+00 -0.00000000000E+00 -0.74505805969E-08  0.93827000000E+00  0.93827000000E+00 0. -1.
     999902    2    1    2    0    0 -0.16790947014E-01  0.87195384888E-02 -0.69796152078E-02  0.10237636597E+01  0.10235650197E+01 0.  0.
     999903    2    3    3    0    0  0.60502574262E-02  0.86425085242E-01  0.99737362234E-01  0.13362412799E+00  0.20049069358E-01 0.  0.
         14    1    1    2    0    0  0.16790947014E-01 -0.87195384888E-02  0.69796152078E-02  0.20166340311E-01  0.00000000000E+00 0.  1.
     999901    1    3    3    0    0 -0.22841204440E-01 -0.77705546753E-01 -0.10671697744E+00  0.89013953170E+00  0.88000000000E+00 0. -1.
        -11    1    4    4    0    0  0.12714512580E-01  0.53924521338E-01  0.67935438916E-01  0.87664119304E-01  0.51100000000E-03 0. -1.
         11    1    4    4    0    0 -0.66642551534E-02  0.32500563904E-01  0.31801923318E-01  0.45960008687E-01  0.51100000000E-03 0.  1.
</event>
<event>
 8    1  0.1084146E+005  0.1043930E+01  0.7957747E-01            NaN
         13   -1    0    0    0    0  0.00000000000E+00  0.00000000000E+00  0.74505805969E-08  0.10566000000E+00  0.10566000000E+00 0. -1.
     999900   -1    0    0    0    0 -0.00000000000E+00 -0.00000000000E+00 -0.74505805969E-08  0.93827000000E+00  0.93827000000E+00 0. -1.
     999902    2    1    2    0    0 -0.19386443094E-01  0.10418768634E-01  0.22570704256E-04  0.10219212421E+01  0.10216842172E+01 0.  0.
     999903    2    3    3    0    0  0.18693169075E-01 -0.10569003001E+00  0.71809012493E-01  0.13058258410E+00  0.19376789757E-01 0.  0.
         14    1    1    2    0    0  0.19386443094E-01 -0.10418768634E-01 -0.22570704256E-04  0.22008757919E-01  0.00000000000E+00 0. -1.
     999901    1    3    3    0    0 -0.38079612169E-01  0.11610879865E+00 -0.71786441789E-01  0.89133865798E+00  0.88000000000E+00 0. -1.
        -11    1    4    4    0    0  0.10842554316E-01 -0.70766141727E-01  0.58267428601E-01  0.92307974498E-01  0.51100000000E-03 0.  1.
         11    1    4    4    0    0  0.78506147583E-02 -0.34923888284E-01  0.13541583893E-01  0.38274609603E-01  0.51100000000E-03 0. -1.
</event>
<event>
 8    1  0.1084146E+005  0.1043930E+01  0.7957747E-01            NaN
         13   -1    0    0    0    0  0.00000000000E+00  0.00000000000E+00  0.74505805969E-08  0.10566000000E+00  0.10566000000E+00 0.  1.
     999900   -1    0    0    0    0 -0.00000000000E+00 -0.00000000000E+00 -0.74505805969E-08  0.93827000000E+00  0.93827000000E+00 0.  1.
     999902    2    1    2    0    0 -0.12029690342E-02 -0.23213415064E-01 -0.24580886824E-02  0.10205558268E+01  0.10202881179E+01 0.  0.
     999903    2    3    3    0    0 -0.11059513662E+00  0.58994629707E-01 -0.26277279248E-01  0.12966180234E+00  0.20249370434E-01 0.  0.
         14    1    1    2    0    0  0.12029690342E-02  0.23213415064E-01  0.24580886824E-02  0.23374173213E-01  0.00000000000E+00 0. -1.
     999901    1    3    3    0    0  0.10939216759E+00 -0.82208044771E-01  0.23819190566E-01  0.89089402445E+00  0.88000000000E+00 0.  1.
        -11    1    4    4    0    0 -0.51475310033E-01  0.32508062099E-01 -0.22003326612E-01  0.64737077069E-01  0.51100000000E-03 0.  1.
         11    1    4    4    0    0 -0.59119826588E-01  0.26486567608E-01 -0.42739526365E-02  0.64924725272E-01  0.51100000000E-03 0. -1.
</event>
<event>
 8    1  0.1084146E+005  0.1043930E+01  0.7957747E-01            NaN
         13   -1    0    0    0    0  0.00000000000E+00  0.00000000000E+00  0.74505805969E-08  0.10566000000E+00  0.10566000000E+00 0.  1.
     999900   -1    0    0    0    0 -0.00000000000E+00 -0.00000000000E+00 -0.74505805969E-08  0.93827000000E+00  0.93827000000E+00 0.  1.
     999902    2    1    2    0    0 -0.14602762408E-02 -0.22946020228E-01  0.78339960603E-02  0.10196395956E+01  0.10193502250E+01 0.  0.
     999903    2    3    3    0    0  0.70676219557E-01 -0.16080735449E-01 -0.10522802638E+00  0.12945207207E+00  0.20764955168E-01 0.  0.
         14    1    1    2    0    0  0.14602762408E-02  0.22946020228E-01 -0.78339960603E-02  0.24290404387E-01  0.00000000000E+00 0.  1.
     999901    1    3    3    0    0 -0.72136495798E-01 -0.68652847789E-02  0.11306202244E+00  0.89018752355E+00  0.88000000000E+00 0. -1.
        -11    1    4    4    0    0  0.57023920253E-01 -0.41356839179E-02 -0.77354816594E-01  0.96191788286E-01  0.51100000000E-03 0. -1.
         11    1    4    4    0    0  0.13652299304E-01 -0.11945051531E-01 -0.27873209785E-01  0.33260283779E-01  0.51100000000E-03 0.  1.
</event>
<event>
 8    1  0.1084146E+005  0.1043930E+01  0.7957747E-01            NaN
         13   -1    0    0    0    0  0.00000000000E+00  0.00000000000E+00  0.74505805969E-08  0.10566000000E+00  0.10566000000E+00 0. -1.
     999900   -1    0    0    0    0 -0.00000000000E+00 -0.00000000000E+00 -0.74505805969E-08  0.93827000000E+00  0.93827000000E+00 0.  1.
     999902    2    1    2    0    0  0.41244529879E-02 -0.16669743997E-01 -0.12588648699E-01  0.10226376175E+01  0.10224159286E+01 0.  0.
     999903    2    3    3    0    0 -0.53753268019E-01  0.10189103372E+00  0.56673295191E-01  0.13011103218E+00  0.21114491031E-01 0.  0.
         14    1    1    2    0    0 -0.41244529879E-02  0.16669743997E-01  0.12588648699E-01  0.21292382521E-01  0.00000000000E+00 0.  1.
     999901    1    3    3    0    0  0.57877721006E-01 -0.11856077771E+00 -0.69261943889E-01  0.89252658530E+00  0.88000000000E+00 0. -1.
        -11    1    4    4    0    0 -0.29515158089E-01  0.64590779430E-01  0.45157829684E-01  0.84158208436E-01  0.51100000000E-03 0.  1.
         11    1    4    4    0    0 -0.24238109930E-01  0.37300254288E-01  0.11515465507E-01  0.45952823741E-01  0.51100000000E-03 0. -1.
</event>
<event>
 8    1  0.1084146E+005  0.1043930E+01  0.7957747E-01            NaN
         13   -1    0    0    0    0  0.00000000000E+00  0.00000000000E+00  0.74505805969E-08  0.10566000000E+00  0.10566000000E+00 0.  1.
     999900   -1    0    0    0    0 -0.00000000000E+00 -0.00000000000E+00 -0.74505805969E-08  0.93827000000E+00  0.93827000000E+00 0. -1.
     999902    2    1    2    0    0  0.12199214291E-01 -0.12673109973E-01 -0.15982477522E-01  0.10201630453E+01  0.10198861559E+01 0.  0.
     999903    2    3    3    0    0 -0.62835664339E-01 -0.11133949766E+00 -0.23604545379E-01  0.13144296288E+00  0.19371976501E-01 0.  0.
         14    1    1    2    0    0 -0.12199214291E-01  0.12673109973E-01  0.15982477522E-01  0.23766954652E-01  0.00000000000E+00 0.  1.
     999901    1    3    3    0    0  0.75034878631E-01  0.98666387692E-01  0.76220678569E-02  0.88872008247E+00  0.88000000000E+00 0. -1.
        -11    1    4    4    0    0 -0.45526850715E-01 -0.84962858581E-01 -0.25883798941E-01  0.99807883671E-01  0.51100000000E-03 0. -1.
         11    1    4    4    0    0 -0.17308813625E-01 -0.26376639084E-01  0.22792535615E-02  0.31635079204E-01  0.51100000000E-03 0.  1.
</event>
<event>
 8    1  0.1084146E+005  0.1043930E+01  0.7957747E-01            NaN
         13   -1    0    0    0    0  0.00000000000E+00  0.00000000000E+00  0.74505805969E-08  0.10566000000E+00  0.10566000000E+00 0. -1.
     999900   -1    0    0    0    0 -0.00000000000E+00 -0.00000000000E+00 -0.74505805969E-08  0.93827000000E+00  0.93827000000E+00 0. -1.
     999902    2    1    2    0    0  0.94188561086E-02  0.15704314870E-01  0.14891020897E-01  0.10203273972E+01  0.10200543685E+01 0.  0.
     999903    2    3    3    0    0  0.11885307025E+00 -0.17416192870E-01 -0.46752453540E-01  0.13079227523E+00  0.22168700157E-01 0.  0.
         14    1    1    2    0    0 -0.94188561086E-02 -0.15704314870E-01 -0.14891020897E-01  0.23602602807E-01  0.00000000000E+00 0.  1.
     999901    1    3    3    0    0 -0.10943421414E+00  0.33120507740E-01  0.61643474437E-01  0.88953512196E+00  0.88000000000E+00 0. -1.
        -11    1    4    4    0    0  0.57683309477E-01  0.43751589543E-03 -0.29404441521E-01  0.64749037943E-01  0.51100000000E-03 0.  1.
         11    1    4    4    0    0  0.61169760774E-01 -0.17853708766E-01 -0.17348012019E-01  0.66043237291E-01  0.51100000000E-03 0. -1.
</event>
<event>
 8    1  0.1084146E+005  0.1043930E+01  0.7957747E-01            NaN
         13   -1    0    0    0    0  0.00000000000E+00  0.00000000000E+00  0.74505805969E-08  0.10566000000E+00  0.10566000000E+00 0.  1.
     999900   -1    0    0    0    0 -0.00000000000E+00 -0.00000000000E+00 -0.74505805969E-08  0.93827000000E+00  0.93827000000E+00 0.  1.
     999902    2    1    2    0    0  0.21285214129E-01  0.10299994064E-01 -0.64944703282E-02  0.10194080025E+01  0.10191130198E+01 0.  0.
     999903    2    3    3    0    0 -0.38663089890E-01 -0.58579860863E-01 -0.10635832793E+00  0.12906479694E+00  0.20474209888E-01 0.  0.
         14    1    1    2    0    0 -0.21285214129E-01 -0.10299994064E-01  0.64944703282E-02  0.24521997534E-01  0.00000000000E+00 0.  1.
     999901    1    3    3    0    0  0.59948304019E-01  0.68879854926E-01  0.99863857603E-01  0.89034320553E+00  0.88000000000E+00 0.  1.
        -11    1    4    4    0    0 -0.20265822863E-01 -0.19269353134E-01 -0.55894816296E-01  0.62502025218E-01  0.51100000000E-03 0. -1.
         11    1    4    4    0    0 -0.18397267027E-01 -0.39310507729E-01 -0.50463511635E-01  0.66562771723E-01  0.51100000000E-03 0.  1.
</event>
<event>
 8    1  0.1084146E+005  0.1043930E+01  0.7957747E-01            NaN
         13   -1    0    0    0    0  0.00000000000E+00  0.00000000000E+00  0.74505805969E-08  0.10566000000E+00  0.10566000000E+00 0. -1.
     999900   -1    0    0    0    0 -0.00000000000E+00 -0.00000000000E+00 -0.74505805969E-08  0.93827000000E+00  0.93827000000E+00 0. -1.
     999902    2    1    2    0    0 -0.21660517804E-02 -0.15139321921E-01 -0.18715203219E-01  0.10197608113E+01  0.10194743561E+01 0.  0.
     999903    2    3    3    0    0 -0.11772929784E+00  0.35540466507E-01  0.34383360962E-01  0.12917518250E+00  0.19511533334E-01 0.  0.
         14    1    1    2    0    0  0.21660517804E-02  0.15139321921E-01  0.18715203219E-01  0.24169188651E-01  0.00000000000E+00 0. -1.
     999901    1    3    3    0    0  0.11556324606E+00 -0.50679788428E-01 -0.53098564181E-01  0.89058562885E+00  0.88000000000E+00 0. -1.
        -11    1    4    4    0    0 -0.30416554231E-01  0.12682720350E-01  0.10994080598E-02  0.32977082738E-01  0.51100000000E-03 0.  1.
         11    1    4    4    0    0 -0.87312743610E-01  0.22857746157E-01  0.33283952903E-01  0.96198099762E-01  0.51100000000E-03 0. -1.
</event>
<event>
 8    1  0.1084146E+005  0.1043930E+01  0.7957747E-01            NaN
         13   -1    0    0    0    0  0.00000000000E+00  0.00000000000E+00  0.74505805969E-08  0.10566000000E+00  0.10566000000E+00 0.  1.
     999900   -1    0    0    0    0 -0.00000000000E+00 -0.00000000000E+00 -0.74505805969E-08  0.93827000000E+00  0.93827000000E+00 0.  1.
     999902    2    1    2    0    0 -0.36290544057E-03  0.20909761405E-01 -0.11361783334E-01  0.10201300012E+01  0.10198523322E+01 0.  0.
     999903    2    3    3    0    0  0.55005764824E-01  0.67061149334E-01  0.95679469546E-01  0.13071813369E+00  0.20244447833E-01 0.  0.
         14    1    1    2    0    0  0.36290544057E-03 -0.20909761405E-01  0.11361783334E-01  0.23799998800E-01  0.00000000000E+00 0. -1.
     999901    1    3    3    0    0 -0.55368670265E-01 -0.46151387930E-01 -0.10704125288E+00  0.88941186751E+00  0.88000000000E+00 0.  1.
        -11    1    4    4    0    0  0.32343648753E-02  0.13044077428E-01  0.21480126566E-01  0.25342968066E-01  0.51100000000E-03 0. -1.
         11    1    4    4    0    0  0.51771399949E-01  0.54017071907E-01  0.74199342980E-01  0.10537516562E+00  0.51100000000E-03 0.  1.
</event>
<event>
 8    1  0.1084146E+005  0.1043930E+01  0.7957747E-01            NaN
         13   -1    0    0    0    0  0.00000000000E+00  0.00000000000E+00  0.74505805969E-08  0.10566000000E+00  0.10566000000E+00 0. -1.
     999900   -1    0    0    0    0 -0.00000000000E+00 -0.00000000000E+00 -0.74505805969E-08  0.93827000000E+00  0.93827000000E+00 0.  1.
     999902    2    1    2    0    0 -0.21967500587E-01 -0.66493281031E-02  0.53135686778E-02  0.10203711660E+01  0.10200991608E+01 0.  0.
     999903    2    3    3    0    0 -0.10333615670E+00 -0.73020079729E-01  0.37863874700E-01  0.13353101284E+00  0.19661257819E-01 0.  0.
         14    1    1    2    0    0  0.21967500587E-01  0.66493281031E-02 -0.53135686778E-02  0.23558833977E-01  0.00000000000E+00 0. -1.
     999901    1    3    3    0    0  0.81368656111E-01  0.66370751626E-01 -0.32550306022E-01  0.88684015318E+00  0.88000000000E+00 0. -1.
        -11    1    4    4    0    0 -0.51383332208E-02 -0.31540698607E-02  0.67449786563E-02  0.90612627733E-02  0.51100000000E-03 0. -1.
         11    1    4    4    0    0 -0.98197823477E-01 -0.69866009868E-01  0.31118896044E-01  0.12446975007E+00  0.51100000000E-03 0.  1.
</event>
<event>
 8    1  0.1084146E+005  0.1043930E+01  0.7957747E-01            NaN
         13   -1    0    0    0    0  0.00000000000E+00  0.00000000000E+00  0.74505805969E-08  0.10566000000E+00  0.10566000000E+00 0. -1.
     999900   -1    0    0    0    0 -0.00000000000E+00 -0.00000000000E+00 -0.74505805969E-08  0.93827000000E+00  0.93827000000E+00 0. -1.
     999902    2    1    2    0    0 -0.46637370889E-02 -0.33748471187E-03  0.22856346786E-01  0.10206002566E+01  0.10203335762E+01 0.  0.
     999903    2    3    3    0    0  0.12476585716E+00  0.29253480349E-01  0.14856686574E-01  0.13060495342E+00  0.20362895085E-01 0.  0.
         14    1    1    2    0    0  0.46637370889E-02  0.33748471187E-03 -0.22856346786E-01  0.23329743419E-01  0.00000000000E+00 0.  1.
     999901    1    3    3    0    0 -0.12942959425E+00 -0.29590965061E-01  0.79996602127E-02  0.88999530316E+00  0.88000000000E+00 0. -1.
        -11    1    4    4    0    0  0.47395026871E-01  0.39819554891E-02  0.12481992114E-01  0.49175255868E-01  0.51100000000E-03 0.  1.
         11    1    4    4    0    0  0.77370830293E-01  0.25271524860E-01  0.23746944592E-02  0.81429697554E-01  0.51100000000E-03 0. -1.
</event>
<event>
 8    1  0.1084146E+005  0.1043930E+01  0.7957747E-01            NaN
         13   -1    0    0    0    0  0.00000000000E+00  0.00000000000E+00  0.74505805969E-08  0.10566000000E+00  0.10566000000E+00 0. -1.
     999900   -1    0    0    0    0 -0.00000000000E+00 -0.00000000000E+00 -0.74505805969E-08  0.93827000000E+00  0.93827000000E+00 0. -1.
     999902    2    1    2    0    0 -0.17989200901E-02  0.16681815824E-01  0.17605382103E-01  0.10196098731E+01  0.10193197853E+01 0.  0.
     999903    2    3    3    0    0  0.88325122693E-01 -0.77885174697E-01  0.49709849101E-01  0.12938745395E+00  0.20065303530E-01 0.  0.
         14    1    1    2    0    0  0.17989200901E-02 -0.16681815824E-01 -0.17605382103E-01  0.24320126884E-01  0.00000000000E+00 0.  1.
     999901    1    3    3    0    0 -0.90124042783E-01  0.94566990520E-01 -0.32104466997E-01  0.89022241917E+00  0.88000000000E+00 0. -1.
        -11    1    4    4    0    0  0.70882842237E-01 -0.51316984784E-01  0.33466634367E-01  0.93691445649E-01  0.51100000000E-03 0.  1.
         11    1    4    4    0    0  0.17442280456E-01 -0.26568189913E-01  0.16243214734E-01  0.35696008302E-01  0.51100000000E-03 0. -1.
</event>
<event>
 8    1  0.1084146E+005  0.1043930E+01  0.7957747E-01            NaN
         13   -1    0    0    0    0  0.00000000000E+00  0.00000000000E+00  0.74505805969E-08  0.10566000000E+00  0.10566000000E+00 0.  1.
     999900   -1    0    0    0    0 -0.00000000000E+00 -0.00000000000E+00 -0.74505805969E-08  0.93827000000E+00  0.93827000000E+00 0. -1.
     999902    2    1    2    0    0 -0.13804728091E-01  0.18840183929E-01 -0.15903096829E-02  0.10205194867E+01  0.10202509351E+01 0.  0.
     999903    2    3    3    0    0 -0.11566392119E+00 -0.14821784663E-01  0.58307408006E-01  0.13198352236E+00  0.20544302869E-01 0.  0.
         14    1    1    2    0    0  0.13804728091E-01 -0.18840183929E-01  0.15903096829E-02  0.23410513301E-01  0.00000000000E+00 0.  1.
     999901    1    3    3    0    0  0.10185919309E+00  0.33661968591E-01 -0.59897717688E-01  0.88853596434E+00  0.88000000000E+00 0. -1.
        -11    1    4    4    0    0 -0.99335579417E-01 -0.54504979991E-02  0.50837956621E-01  0.11172297982E+00  0.51100000000E-03 0. -1.
         11    1    4    4    0    0 -0.16328341769E-01 -0.93712866637E-02  0.74694513845E-02  0.20260542531E-01  0.51100000000E-03 0.  1.
</event>
<event>
 8    1  0.1084146E+005  0.1043930E+01  0.7957747E-01            NaN
         13   -1    0    0    0    0  0.00000000000E+00  0.00000000000E+00  0.74505805969E-08  0.10566000000E+00  0.10566000000E+00 0.  1.
     999900   -1    0    0    0    0 -0.00000000000E+00 -0.00000000000E+00 -0.74505805969E-08  0.93827000000E+00  0.93827000000E+00 0. -1.
     999902    2    1    2    0    0  0.22504049638E-01  0.49352697149E-02  0.70697416611E-02  0.10198308219E+01  0.10195460436E+01 0.  0.
     999903    2    3    3    0    0  0.10044794318E+00 -0.68948346890E-01 -0.45924202057E-01  0.13171911868E+00  0.19930631316E-01 0.  0.
         14    1    1    2    0    0 -0.22504049638E-01 -0.49352697149E-02 -0.70697416611E-02  0.24099178086E-01  0.00000000000E+00 0. -1.
     999901    1    3    3    0    0 -0.77943893540E-01  0.73883616605E-01  0.52993943719E-01  0.88811170323E+00  0.88000000000E+00 0.  1.
        -11    1    4    4    0    0  0.67755529503E-01 -0.55553235139E-01 -0.27282053037E-01  0.91768977610E-01  0.51100000000E-03 0. -1.
         11    1    4    4    0    0  0.32692413675E-01 -0.13395111750E-01 -0.18642149020E-01  0.39950141074E-01  0.51100000000E-03 0.  1.
</event>
<event>
 8    1  0.1084146E+005  0.1043930E+01  0.7957747E-01            NaN
         13   -1    0    0    0    0  0.00000000000E+00  0.00000000000E+00  0.74505805969E-08  0.10566000000E+00  0.10566000000E+00 0. -1.
     999900   -1    0    0    0    0 -0.00000000000E+00 -0.00000000000E+00 -0.74505805969E-08  0.93827000000E+00  0.93827000000E+00 0. -1.
     999902    2    1    2    0    0  0.71895317520E-02 -0.11624483767E-01 -0.19657465588E-01  0.10199876955E+01  0.10197066564E+01 0.  0.
     999903    2    3    3    0    0 -0.91043593793E-01  0.59446758732E-01  0.63959961682E-01  0.12774740133E+00  0.20141220251E-01 0.  0.
         14    1    1    2    0    0 -0.71895317520E-02  0.11624483767E-01  0.19657465588E-01  0.23942304464E-01  0.00000000000E+00 0. -1.
     999901    1    3    3    0    0  0.98233125545E-01 -0.71071242500E-01 -0.83617427271E-01  0.89224029421E+00  0.88000000000E+00 0. -1.
        -11    1    4    4    0    0 -0.14821163174E-01  0.19562113284E-01  0.14760339590E-01  0.28643880669E-01  0.51100000000E-03 0. -1.
         11    1    4    4    0    0 -0.76222430620E-01  0.39884645448E-01  0.49199622093E-01  0.99103520660E-01  0.51100000000E-03 0.  1.
</event>
<event>
 8    1  0.1084146E+005  0.1043930E+01  0.7957747E-01            NaN
         13   -1    0    0    0    0  0.00000000000E+00  0.00000000000E+00  0.74505805969E-08  0.10566000000E+00  0.10566000000E+00 0. -1.
     999900   -1    0    0    0    0 -0.00000000000E+00 -0.00000000000E+00 -0.74505805969E-08  0.93827000000E+00  0.93827000000E+00 0.  1.
     999902    2    1    2    0    0  0.99612746988E-02 -0.22993501745E-02 -0.21277984770E-01  0.10203235043E+01  0.10200503844E+01 0.  0.
     999903    2    3    3    0    0 -0.74901818389E-01  0.18130060482E-01 -0.10525491582E+00  0.13202668995E+00  0.20333914112E-01 0.  0.
         14    1    1    2    0    0 -0.99612746988E-02  0.22993501745E-02  0.21277984770E-01  0.23606495731E-01  0.00000000000E+00 0. -1.
     999901    1    3    3    0    0  0.84863093087E-01 -0.20429410657E-01  0.83976931049E-01  0.88829681432E+00  0.88000000000E+00 0.  1.
        -11    1    4    4    0    0 -0.44548556945E-01  0.19348418990E-01 -0.55736473322E-01  0.73930716367E-01  0.51100000000E-03 0. -1.
         11    1    4    4    0    0 -0.30353261444E-01 -0.12183585072E-02 -0.49518442497E-01  0.58095973579E-01  0.51100000000E-03 0.  1.
</event>
<event>
 8    1  0.1084146E+005  0.1043930E+01  0.7957747E-01            NaN
         13   -1    0    0    0    0  0.00000000000E+00  0.00000000000E+00  0.74505805969E-08  0.10566000000E+00  0.10566000000E+00 0. -1.
     999900   -1    0    0    0    0 -0.00000000000E+00 -0.00000000000E+00 -0.74505805969E-08  0.93827000000E+00  0.93827000000E+00 0. -1.
     999902    2    1    2    0    0 -0.18929734634E-01 -0.13667710596E-01 -0.36273374306E-02  0.10203016538E+01  0.10200280222E+01 0.  0.
     999903    2    3    3    0    0 -0.45280883282E-01  0.61822384086E-01  0.10334097944E+00  0.13022561311E+00  0.20173911701E-01 0.  0.
         14    1    1    2    0    0  0.18929734634E-01  0.13667710596E-01  0.36273374306E-02  0.23628346178E-01  0.00000000000E+00 0.  1.
     999901    1    3    3    0    0  0.26351148648E-01 -0.75490094683E-01 -0.10696831687E+00  0.89007604071E+00  0.88000000000E+00 0. -1.
        -11    1    4    4    0    0 -0.60971520154E-02  0.97848057993E-02  0.29937997025E-01  0.32085237635E-01  0.51100000000E-03 0.  1.
         11    1    4    4    0    0 -0.39183731267E-01  0.52037578287E-01  0.73402982418E-01  0.98140375477E-01  0.51100000000E-03 0. -1.
</event>
<event>
 8    1  0.1621132E+005  0.1043930E+01  0.7957747E-01            NaN
         13   -1    0    0    0    0  0.00000000000E+00  0.00000000000E+00  0.74505805969E-08  0.10566000000E+00  0.10566000000E+00 0. -1.
     999900   -1    0    0    0    0 -0.00000000000E+00 -0.00000000000E+00 -0.74505805969E-08  0.93827000000E+00  0.93827000000E+00 0.  1.
     999902    2    1    2    0    0  0.18245260466E-01 -0.86516699149E-02  0.11494608446E-01  0.10206949630E+01  0.10204304682E+01 0.  0.
     999903    2    3    3    0    0  0.11696356103E+00 -0.47449466980E-01 -0.39384871297E-01  0.13286654860E+00  0.13054697440E-01 0.  0.
         14    1    1    2    0    0 -0.18245260466E-01  0.86516699149E-02 -0.11494608446E-01  0.23235037015E-01  0.00000000000E+00 0.  1.
     999901    1    3    3    0    0 -0.98718300564E-01  0.38797797065E-01  0.50879479742E-01  0.88782841438E+00  0.88000000000E+00 0. -1.
        -11    1    4    4    0    0  0.60392048476E-01 -0.21231431059E-01 -0.13919578328E-01  0.65513273203E-01  0.51100000000E-03 0.  1.
         11    1    4    4    0    0  0.56571512554E-01 -0.26218035921E-01 -0.25465292968E-01  0.67353275400E-01  0.51100000000E-03 0. -1.
</event>
<event>
 8    1  0.1084146E+005  0.1043930E+01  0.7957747E-01            NaN
         13   -1    0    0    0    0  0.00000000000E+00  0.00000000000E+00  0.74505805969E-08  0.10566000000E+00  0.10566000000E+00 0.  1.
     999900   -1    0    0    0    0 -0.00000000000E+00 -0.00000000000E+00 -0.74505805969E-08  0.93827000000E+00  0.93827000000E+00 0.  1.
     999902    2    1    2    0    0  0.85956715574E-02 -0.50658067097E-02  0.21403193701E-01  0.10203154988E+01  0.10200421915E+01 0.  0.
     999903    2    3    3    0    0  0.29511129042E-01 -0.12132315550E+00 -0.33292757756E-01  0.13073982768E+00  0.19856485754E-01 0.  0.
         14    1    1    2    0    0 -0.85956715574E-02  0.50658067097E-02 -0.21403193701E-01  0.23614501218E-01  0.00000000000E+00 0. -1.
     999901    1    3    3    0    0 -0.20915457484E-01  0.11625734879E+00  0.54695951458E-01  0.88957567110E+00  0.88000000000E+00 0.  1.
        -11    1    4    4    0    0  0.14305405789E-01 -0.32344052703E-01 -0.16032426349E-01  0.38834033986E-01  0.51100000000E-03 0.  1.
         11    1    4    4    0    0  0.15205723252E-01 -0.88979102793E-01 -0.17260331408E-01  0.91905793695E-01  0.51100000000E-03 0. -1.
</event>
<event>
 8    1  0.1084146E+005  0.1043930E+01  0.7957747E-01            NaN
         13   -1    0    0    0    0  0.00000000000E+00  0.00000000000E+00  0.74505805969E-08  0.10566000000E+00  0.10566000000E+00 0.  1.
     999900   -1    0    0    0    0 -0.00000000000E+00 -0.00000000000E+00 -0.74505805969E-08  0.93827000000E+00  0.93827000000E+00 0.  1.
     999902    2    1    2    0    0 -0.10943876423E-01 -0.15318543466E-01  0.16333838327E-01  0.10190057050E+01  0.10187008425E+01 0.  0.
     999903    2    3    3    0    0  0.95071238047E-01 -0.37478455167E-01  0.76203018587E-01  0.13034683633E+00  0.27207035738E-01 0.  0.
         14    1    1    2    0    0  0.10943876423E-01  0.15318543466E-01 -0.16333838327E-01  0.24924294967E-01  0.00000000000E+00 0.  1.
     999901    1    3    3    0    0 -0.10601511447E+00  0.22159911701E-01 -0.59869180260E-01  0.88865886870E+00  0.88000000000E+00 0.  1.
        -11    1    4    4    0    0  0.66726217090E-01 -0.33648673022E-01  0.66796117068E-01  0.10023274724E+00  0.51100000000E-03 0.  1.
         11    1    4    4    0    0  0.28345020957E-01 -0.38297821452E-02  0.94069015184E-02  0.30114089086E-01  0.51100000000E-03 0. -1.
</event>
<event>
 8    1  0.1084146E+005  0.1043930E+01  0.7957747E-01            NaN
         13   -1    0    0    0    0  0.00000000000E+00  0.00000000000E+00  0.74505805969E-08  0.10566000000E+00  0.10566000000E+00 0. -1.
     999900   -1    0    0    0    0 -0.00000000000E+00 -0.00000000000E+00 -0.74505805969E-08  0.93827000000E+00  0.93827000000E+00 0. -1.
     999902    2    1    2    0    0 -0.85744601025E-02 -0.61064889148E-02  0.21449107109E-01  0.10200370142E+01  0.10197571454E+01 0.  0.
     999903    2    3    3    0    0  0.20317992788E-01  0.79318932034E-01  0.10141674109E+00  0.13182133161E+00  0.19677252955E-01 0.  0.
         14    1    1    2    0    0  0.85744601025E-02  0.61064889148E-02 -0.21449107109E-01  0.23892985763E-01  0.00000000000E+00 0.  1.
     999901    1    3    3    0    0 -0.28892452891E-01 -0.85425420949E-01 -0.79967633983E-01  0.88821568263E+00  0.88000000000E+00 0. -1.
        -11    1    4    4    0    0 -0.30718466006E-02  0.22296958233E-01  0.24913133258E-01  0.33578503804E-01  0.51100000000E-03 0.  1.
         11    1    4    4    0    0  0.23389839389E-01  0.57021973801E-01  0.76503607834E-01  0.98242827807E-01  0.51100000000E-03 0. -1.
</event>
<event>
 8    1  0.1084146E+005  0.1043930E+01  0.7957747E-01            NaN
         13   -1    0    0    0    0  0.00000000000E+00  0.00000000000E+00  0.74505805969E-08  0.10566000000E+00  0.10566000000E+00 0.  1.
     999900   -1    0    0    0    0 -0.00000000000E+00 -0.00000000000E+00 -0.74505805969E-08  0.93827000000E+00  0.93827000000E+00 0.  1.
     999902    2    1    2    0    0  0.23316058478E-01  0.51228266991E-02  0.71789283522E-02  0.10190017239E+01  0.10186967627E+01 0.  0.
     999903    2    3    3    0    0 -0.83622819922E-01 -0.48719971701E-01  0.81129253604E-01  0.12782069783E+00  0.19742425090E-01 0.  0.
         14    1    1    2    0    0 -0.23316058478E-01 -0.51228266991E-02 -0.71789283522E-02  0.24928276086E-01  0.00000000000E+00 0. -1.
     999901    1    3    3    0    0  0.10693887840E+00  0.53842798401E-01 -0.73950325251E-01  0.89118102609E+00  0.88000000000E+00 0.  1.
        -11    1    4    4    0    0 -0.41845641021E-01 -0.32269861039E-01  0.52949191683E-01  0.74808285803E-01  0.51100000000E-03 0. -1.
         11    1    4    4    0    0 -0.41777178901E-01 -0.16450110663E-01  0.28180061920E-01  0.53012412024E-01  0.51100000000E-03 0.  1.
</event>
<event>
 8    1  0.1084146E+005  0.1043930E+01  0.7957747E-01            NaN
         13   -1    0    0    0    0  0.00000000000E+00  0.00000000000E+00  0.74505805969E-08  0.10566000000E+00  0.10566000000E+00 0.  1.
     999900   -1    0    0    0    0 -0.00000000000E+00 -0.00000000000E+00 -0.74505805969E-08  0.93827000000E+00  0.93827000000E+00 0.  1.
     999902    2    1    2    0    0 -0.10962960398E-01 -0.20727603234E-01  0.38843647075E-02  0.10201621998E+01  0.10198852904E+01 0.  0.
     999903    2    3    3    0    0 -0.67580115934E-01 -0.10032805085E+00 -0.51767393508E-01  0.13301009800E+00  0.19468777132E-01 0.  0.
         14    1    1    2    0    0  0.10962960398E-01  0.20727603234E-01 -0.38843647075E-02  0.23767800186E-01  0.00000000000E+00 0.  1.
     999901    1    3    3    0    0  0.56617155536E-01  0.79600447612E-01  0.55651758216E-01  0.88715210181E+00  0.88000000000E+00 0. -1.
        -11    1    4    4    0    0 -0.28283796345E-01 -0.42009239746E-01 -0.11363495935E-01  0.51905101104E-01  0.51100000000E-03 0. -1.
         11    1    4    4    0    0 -0.39296319590E-01 -0.58318811099E-01 -0.40403897574E-01  0.81104996896E-01  0.51100000000E-03 0.  1.
</event>
<event>
 8    1  0.1084146E+005  0.1043930E+01  0.7957747E-01            NaN
         13   -1    0    0    0    0  0.00000000000E+00  0.00000000000E+00  0.74505805969E-08  0.10566000000E+00  0.10566000000E+00 0.  1.
     999900   -1    0    0    0    0 -0.00000000000E+00 -0.00000000000E+00 -0.74505805969E-08  0.93827000000E+00  0.93827000000E+00 0. -1.
     999902    2    1    2    0    0  0.13733817310E-01  0.19195037065E-01 -0.25638253996E-02  0.10201888883E+01  0.10199126077E+01 0.  0.
     999903    2    3    3    0    0  0.63021102173E-01  0.80359620767E-01  0.82181173806E-01  0.13263491377E+00  0.20222439361E-01 0.  0.
         14    1    1    2    0    0 -0.13733817310E-01 -0.19195037065E-01  0.25638253996E-02  0.23741111737E-01  0.00000000000E+00 0.  1.
     999901    1    3    3    0    0 -0.49287284863E-01 -0.61164583702E-01 -0.84744999206E-01  0.88755397449E+00  0.88000000000E+00 0. -1.
        -11    1    4    4    0    0  0.41828649146E-01  0.47539159211E-01  0.62154093679E-01  0.88729927476E-01  0.51100000000E-03 0. -1.
         11    1    4    4    0    0  0.21192453027E-01  0.32820461556E-01  0.20027080128E-01  0.43904986294E-01  0.51100000000E-03 0.  1.
</event>
<event>
 8    1  0.1084146E+005  0.1043930E+01  0.7957747E-01            NaN
         13   -1    0    0    0    0  0.00000000000E+00  0.00000000000E+00  0.74505805969E-08  0.10566000000E+00  0.10566000000E+00 0. -1.
     999900   -1    0    0    0    0 -0.00000000000E+00 -0.00000000000E+00 -0.74505805969E-08  0.93827000000E+00  0.93827000000E+00 0.  1.
     999902    2    1    2    0    0  0.63283247446E-02 -0.13756211568E-01  0.18710020524E-01  0.10198603943E+01  0.10195763228E+01 0.  0.
     999903    2    3    3    0    0 -0.86670312552E-02 -0.12920052185E+00  0.15867952301E-01  0.13218909994E+00  0.21313703432E-01 0.  0.
         14    1    1    2    0    0 -0.63283247446E-02  0.13756211568E-01 -0.18710020524E-01  0.24069605705E-01  0.00000000000E+00 0.  1.
     999901    1    3    3    0    0  0.14995356000E-01  0.11544431028E+00  0.28420682231E-02  0.88767129436E+00  0.88000000000E+00 0.  1.
        -11    1    4    4    0    0 -0.13495783082E-01 -0.58140021404E-01  0.26501132922E-02  0.59746819759E-01  0.51100000000E-03 0. -1.
         11    1    4    4    0    0  0.48287518273E-02 -0.71060500448E-01  0.13217839008E-01  0.72442280176E-01  0.51100000000E-03 0.  1.
</event>
<event>
 8    1  0.1084146E+005  0.1043930E+01  0.7957747E-01            NaN
         13   -1    0    0    0    0  0.00000000000E+00  0.00000000000E+00  0.74505805969E-08  0.10566000000E+00  0.10566000000E+00 0.  1.
     999900   -1    0    0    0    0 -0.00000000000E+00 -0.00000000000E+00 -0.74505805969E-08  0.93827000000E+00  0.93827000000E+00 0.  1.
     999902    2    1    2    0    0  0.19589692539E-01 -0.16310609421E-02  0.16821340398E-01  0.10180577387E+01  0.10177289351E+01 0.  0.
     999903    2    3    3    0    0 -0.73038650630E-01 -0.82624064404E-01 -0.58056319001E-01  0.12634784165E+00  0.20781251377E-01 0.  0.
         14    1    1    2    0    0 -0.19589692539E-01  0.16310609421E-02 -0.16821340398E-01  0.25872261331E-01  0.00000000000E+00 0. -1.
     999901    1    3    3    0    0  0.92628343169E-01  0.80993003462E-01  0.74877659400E-01  0.89170989702E+00  0.88000000000E+00 0. -1.
        -11    1    4    4    0    0 -0.64529273655E-01 -0.78653243009E-01 -0.47719690211E-01  0.11237343881E+00  0.51100000000E-03 0.  1.
         11    1    4    4    0    0 -0.85093769749E-02 -0.39708213953E-02 -0.10336628791E-01  0.13974402843E-01  0.51100000000E-03 0. -1.
</event>
<event>
 8    1  0.1084146E+005  0.1043930E+01  0.7957747E-01            NaN
         13   -1    0    0    0    0  0.00000000000E+00  0.00000000000E+00  0.74505805969E-08  0.10566000000E+00  0.10566000000E+00 0. -1.
     999900   -1    0    0    0    0 -0.00000000000E+00 -0.00000000000E+00 -0.74505805969E-08  0.93827000000E+00  0.93827000000E+00 0.  1.
     999902    2    1    2    0    0 -0.10264328793E-01  0.19963147122E-01  0.11235197251E-01  0.10188279414E+01  0.10185186600E+01 0.  0.
     999903    2    3    3    0    0 -0.11764457863E+00 -0.37034940209E-01  0.34408633089E-01  0.13016810314E+00  0.23408275574E-01 0.  0.
         14    1    1    2    0    0  0.10264328793E-01 -0.19963147122E-01 -0.11235197251E-01  0.25102058598E-01  0.00000000000E+00 0.  1.
     999901    1    3    3    0    0  0.10738024984E+00  0.56998087331E-01 -0.23173435838E-01  0.88865983826E+00  0.88000000000E+00 0.  1.
        -11    1    4    4    0    0 -0.32306494724E-02 -0.49543416794E-02 -0.13275442564E-02  0.60832632889E-02  0.51100000000E-03 0.  1.
         11    1    4    4    0    0 -0.11441392916E+00 -0.32080598530E-01  0.35736177346E-01  0.12408483985E+00  0.51100000000E-03 0. -1.
</event>
<event>
 8    1  0.1084146E+005  0.1043930E+01  0.7957747E-01            NaN
         13   -1    0    0    0    0  0.00000000000E+00  0.00000000000E+00  0.74505805969E-08  0.10566000000E+00  0.10566000000E+00 0. -1.
     999900   -1    0    0    0    0 -0.00000000000E+00 -0.00000000000E+00 -0.74505805969E-08  0.93827000000E+00  0.93827000000E+00 0. -1.
     999902    2    1    2    0    0 -0.16057965633E-01  0.15242700761E-01  0.51785757461E-02  0.10211920178E+01  0.10209388431E+01 0.  0.
     999903    2    3    3    0    0 -0.25028132675E-01 -0.30809770664E-01  0.12410106236E+00  0.13195422519E+00  0.20861315239E-01 0.  0.
         14    1    1    2    0    0  0.16057965633E-01 -0.15242700761E-01 -0.51785757461E-02  0.22737982178E-01  0.00000000000E+00 0.  1.
     999901    1    3    3    0    0  0.89701670421E-02  0.46052471425E-01 -0.11892248661E+00  0.88923779263E+00  0.88000000000E+00 0. -1.
        -11    1    4    4    0    0 -0.12636873371E-01 -0.28994777783E-01  0.98402900164E-01  0.10336237028E+00  0.51100000000E-03 0.  1.
         11    1    4    4    0    0 -0.12391259304E-01 -0.18149928813E-02  0.25698162195E-01  0.28591854915E-01  0.51100000000E-03 0. -1.
</event>
<event>
 8    1  0.1084146E+005  0.1043930E+01  0.7957747E-01            NaN
         13   -1    0    0    0    0  0.00000000000E+00  0.00000000000E+00  0.74505805969E-08  0.10566000000E+00  0.10566000000E+00 0.  1.
     999900   -1    0    0    0    0 -0.00000000000E+00 -0.00000000000E+00 -0.74505805969E-08  0.93827000000E+00  0.93827000000E+00 0.  1.
     999902    2    1    2    0    0  0.12925982813E-01  0.12728204490E-02 -0.18929028533E-01  0.10209733185E+01  0.10207151943E+01 0.  0.
     999903    2    3    3    0    0 -0.84370066299E-02 -0.10474561631E-01 -0.13127855800E+00  0.13349554692E+00  0.20151966014E-01 0.  0.
         14    1    1    2    0    0 -0.12925982813E-01 -0.12728204490E-02  0.18929028533E-01  0.22956681485E-01  0.00000000000E+00 0. -1.
     999901    1    3    3    0    0  0.21362989443E-01  0.11747382080E-01  0.11234952947E+00  0.88747777160E+00  0.88000000000E+00 0. -1.
        -11    1    4    4    0    0 -0.13852839891E-01 -0.12183110550E-01 -0.95743568310E-01  0.97506006735E-01  0.51100000000E-03 0. -1.
         11    1    4    4    0    0  0.54158332610E-02  0.17085489191E-02 -0.35534989692E-01  0.35989540185E-01  0.51100000000E-03 0.  1.
</event>
<event>
 8    1  0.1084146E+005  0.1043930E+01  0.7957747E-01            NaN
         13   -1    0    0    0    0  0.00000000000E+00  0.00000000000E+00  0.74505805969E-08  0.10566000000E+00  0.10566000000E+00 0. -1.
     999900   -1    0    0    0    0 -0.00000000000E+00 -0.00000000000E+00 -0.74505805969E-08  0.93827000000E+00  0.93827000000E+00 0.  1.
     999902    2    1    2    0    0  0.28884565179E-02 -0.13468490073E-01  0.19049149054E-01  0.10204222675E+01  0.10201514547E+01 0.  0.
     999903    2    3    3    0    0  0.51831574515E-01  0.10828597668E+00  0.45710511973E-01  0.13029283467E+00  0.21780886129E-01 0.  0.
         14    1    1    2    0    0 -0.28884565179E-02  0.13468490073E-01 -0.19049149054E-01  0.23507732464E-01  0.00000000000E+00 0.  1.
     999901    1    3    3    0    0 -0.48943117998E-01 -0.12175446675E+00 -0.26661362919E-01  0.89012943286E+00  0.88000000000E+00 0.  1.
        -11    1    4    4    0    0  0.38161630444E-01  0.72564066400E-01  0.20603898027E-01  0.84537775613E-01  0.51100000000E-03 0.  1.
         11    1    4    4    0    0  0.13669944072E-01  0.35721910279E-01  0.25106613946E-01  0.45755059062E-01  0.51100000000E-03 0. -1.
</event>
<event>
 8    1  0.1084146E+005  0.1043930E+01  0.7957747E-01            NaN
         13   -1    0    0    0    0  0.00000000000E+00  0.00000000000E+00  0.74505805969E-08  0.10566000000E+00  0.10566000000E+00 0.  1.
     999900   -1    0    0    0    0 -0.00000000000E+00 -0.00000000000E+00 -0.74505805969E-08  0.93827000000E+00  0.93827000000E+00 0.  1.
     999902    2    1    2    0    0 -0.19516506358E-01 -0.65373361611E-02 -0.11698164880E-01  0.10202555867E+01  0.10199808745E+01 0.  0.
     999903    2    3    3    0    0  0.26264633029E-02 -0.10072801167E+00  0.80143044611E-01  0.13020109272E+00  0.19400677876E-01 0.  0.
         14    1    1    2    0    0  0.19516506358E-01  0.65373361611E-02  0.11698164880E-01  0.23674413320E-01  0.00000000000E+00 0.  1.
     999901    1    3    3    0    0 -0.22142969661E-01  0.94190675506E-01 -0.91841209491E-01  0.89005449396E+00  0.88000000000E+00 0.  1.
        -11    1    4    4    0    0  0.84950077076E-02 -0.72128432501E-01  0.49623044734E-01  0.87962398902E-01  0.51100000000E-03 0.  1.
         11    1    4    4    0    0 -0.58685444047E-02 -0.28599579166E-01  0.30519999877E-01  0.42238693818E-01  0.51100000000E-03 0. -1.
</event>
<event>
 8    1  0.1084146E+005  0.1043930E+01  0.7957747E-01            NaN
         13   -1    0    0    0    0  0.00000000000E+00  0.00000000000E+00  0.74505805969E-08  0.10566000000E+00  0.10566000000E+00 0.  1.
     999900   -1    0    0    0    0 -0.00000000000E+00 -0.00000000000E+00 -0.74505805969E-08  0.93827000000E+00  0.93827000000E+00 0. -1.
     999902    2    1    2    0    0  0.30907244814E-02 -0.22077049294E-01  0.80536150243E-02  0.10202274812E+01  0.10199521087E+01 0.  0.
     999903    2    3    3    0    0 -0.11182602742E+00  0.44936223251E-01  0.43367504462E-01  0.12952904212E+00  0.19305640126E-01 0.  0.
         14    1    1    2    0    0 -0.30907244814E-02  0.22077049294E-01 -0.80536150243E-02  0.23702518818E-01  0.00000000000E+00 0. -1.
     999901    1    3    3    0    0  0.11491675190E+00 -0.67013272545E-01 -0.35313889438E-01  0.89069843906E+00  0.88000000000E+00 0.  1.
        -11    1    4    4    0    0 -0.55972415323E-01  0.28420014205E-01  0.14089742712E-01  0.64338094899E-01  0.51100000000E-03 0.  1.
         11    1    4    4    0    0 -0.55853612095E-01  0.16516209046E-01  0.29277761749E-01  0.65190947219E-01  0.51100000000E-03 0. -1.
</event>
<event>
 8    1  0.1084146E+005  0.1043930E+01  0.7957747E-01            NaN
         13   -1    0    0    0    0  0.00000000000E+00  0.00000000000E+00  0.74505805969E-08  0.10566000000E+00  0.10566000000E+00 0.  1.
     999900   -1    0    0    0    0 -0.00000000000E+00 -0.00000000000E+00 -0.74505805969E-08  0.93827000000E+00  0.93827000000E+00 0. -1.
     999902    2    1    2    0    0 -0.81729614325E-02 -0.40434686979E-02  0.19137623895E-01  0.10227310475E+01  0.10225113202E+01 0.  0.
     999903    2    3    3    0    0  0.85874953521E-02  0.67864714572E-01 -0.10912595403E+00  0.13037279819E+00  0.20229387173E-01 0.  0.
         14    1    1    2    0    0  0.81729614325E-02  0.40434686979E-02 -0.19137623895E-01  0.21198952475E-01  0.00000000000E+00 0. -1.
     999901    1    3    3    0    0 -0.16760456785E-01 -0.71908183270E-01  0.12826357792E+00  0.89235824933E+00  0.88000000000E+00 0.  1.
        -11    1    4    4    0    0 -0.12844671007E-03  0.27240472773E-01 -0.27129613518E-01  0.38449147014E-01  0.51100000000E-03 0. -1.
         11    1    4    4    0    0  0.87159420622E-02  0.40624241798E-01 -0.81996340510E-01  0.91923651177E-01  0.51100000000E-03 0.  1.
</event>
<event>
 8    1  0.1084146E+005  0.1043930E+01  0.7957747E-01            NaN
         13   -1    0    0    0    0  0.00000000000E+00  0.00000000000E+00  0.74505805969E-08  0.10566000000E+00  0.10566000000E+00 0. -1.
     999900   -1    0    0    0    0 -0.00000000000E+00 -0.00000000000E+00 -0.74505805969E-08  0.93827000000E+00  0.93827000000E+00 0. -1.
     999902    2    1    2    0    0 -0.10255648540E-01  0.61746967181E-02  0.20264599897E-01  0.10203936618E+01  0.10201221818E+01 0.  0.
     999903    2    3    3    0    0  0.10782019482E+00 -0.61748006088E-01 -0.26788689670E-01  0.12867094123E+00  0.20014158837E-01 0.  0.
         14    1    1    2    0    0  0.10255648540E-01 -0.61746967181E-02 -0.20264599897E-01  0.23536338192E-01  0.00000000000E+00 0.  1.
     999901    1    3    3    0    0 -0.11807584336E+00  0.67922702806E-01  0.47053289566E-01  0.89172272058E+00  0.88000000000E+00 0.  1.
        -11    1    4    4    0    0  0.66873600444E-01 -0.42473817057E-01 -0.26081849182E-01  0.83406399931E-01  0.51100000000E-03 0. -1.
         11    1    4    4    0    0  0.40946594380E-01 -0.19274189032E-01 -0.70684048765E-03  0.45264541295E-01  0.51100000000E-03 0.  1.
</event>
<event>
 7    1  0.1084146E+005  0.1043930E+01  0.7957747E-01            NaN
         13   -1    0    0    0    0  0.00000000000E+00  0.00000000000E+00  0.74505805969E-08  0.10566000000E+00  0.10566000000E+00 0.  1.
     999900   -1    0    0    0    0 -0.00000000000E+00 -0.00000000000E+00 -0.74505805969E-08  0.93827000000E+00  0.93827000000E+00 0.  1.
     999903    2    1    2    0    0 -0.11254353087E+00 -0.16515987126E-02  0.40875942520E-02  0.11441064825E+00  0.20107557966E-01 0.  0.
         14    1    1    2    0    0 -0.65273809614E-02  0.17841534913E-01  0.35723359088E-01  0.40460912679E-01  0.00000000000E+00 0.  1.
     999901    1    1    2    0    0  0.11907091183E+00 -0.16189936200E-01 -0.39810953340E-01  0.88905843907E+00  0.88000000000E+00 0.  1.
        -11    1    3    3    0    0 -0.46948707836E-01  0.65189890386E-02 -0.50838416060E-02  0.47673734404E-01  0.51100000000E-03 0.  1.
         11    1    3    3    0    0 -0.65594823034E-01 -0.81705877512E-02  0.91714358581E-02  0.66736913846E-01  0.51100000000E-03 0. -1.
</event>
<event>
 8    1  0.1277647E+005  0.1043930E+01  0.7957747E-01            NaN
         13   -1    0    0    0    0  0.00000000000E+00  0.00000000000E+00  0.74505805969E-08  0.10566000000E+00  0.10566000000E+00 0. -1.
     999900   -1    0    0    0    0 -0.00000000000E+00 -0.00000000000E+00 -0.74505805969E-08  0.93827000000E+00  0.93827000000E+00 0.  1.
     999902    2    1    2    0    0  0.10058960477E-01  0.32738645176E-01  0.61357460727E-02  0.10091356189E+01  0.10085355960E+01 0.  0.
     999903    2    3    3    0    0 -0.34237272040E-01 -0.99831100576E-01  0.46195670287E-01  0.11720418030E+00  0.21548561126E-01 0.  0.
         14    1    1    2    0    0 -0.10058960477E-01 -0.32738645176E-01 -0.61357460727E-02  0.34794381065E-01  0.00000000000E+00 0.  1.
     999901    1    3    3    0    0  0.44296232517E-01  0.13256974575E+00 -0.40059924214E-01  0.89193143864E+00  0.88000000000E+00 0.  1.
        -11    1    4    4    0    0 -0.50631847449E-02 -0.36610059746E-01  0.24213800699E-01  0.44187120065E-01  0.51100000000E-03 0. -1.
         11    1    4    4    0    0 -0.29174087295E-01 -0.63221040830E-01  0.21981869588E-01  0.73017060231E-01  0.51100000000E-03 0.  1.
</event>
<event>
 8    1  0.1084146E+005  0.1043930E+01  0.7957747E-01            NaN
         13   -1    0    0    0    0  0.00000000000E+00  0.00000000000E+00  0.74505805969E-08  0.10566000000E+00  0.10566000000E+00 0. -1.
     999900   -1    0    0    0    0 -0.00000000000E+00 -0.00000000000E+00 -0.74505805969E-08  0.93827000000E+00  0.93827000000E+00 0.  1.
     999902    2    1    2    0    0  0.18225773970E-01 -0.26909931310E-02  0.14780188867E-01  0.10203106379E+01  0.10200372168E+01 0.  0.
     999903    2    3    3    0    0 -0.76449313292E-01 -0.21312889318E-01  0.10160160115E+00  0.13078935951E+00  0.22005327755E-01 0.  0.
         14    1    1    2    0    0 -0.18225773970E-01  0.26909931310E-02 -0.14780188867E-01  0.23619362053E-01  0.00000000000E+00 0.  1.
     999901    1    3    3    0    0  0.94675087263E-01  0.18621896187E-01 -0.86821412285E-01  0.88952127844E+00  0.88000000000E+00 0.  1.
        -11    1    4    4    0    0 -0.35401796618E-01  0.15182091176E-03  0.36121026569E-01  0.50579639527E-01  0.51100000000E-03 0.  1.
         11    1    4    4    0    0 -0.41047516675E-01 -0.21464710230E-01  0.65480574584E-01  0.80209719980E-01  0.51100000000E-03 0. -1.
</event>
<event>
 8    1  0.1084146E+005  0.1043930E+01  0.7957747E-01            NaN
         13   -1    0    0    0    0  0.00000000000E+00  0.00000000000E+00  0.74505805969E-08  0.10566000000E+00  0.10566000000E+00 0.  1.
     999900   -1    0    0    0    0 -0.00000000000E+00 -0.00000000000E+00 -0.74505805969E-08  0.93827000000E+00  0.93827000000E+00 0.  1.
     999902    2    1    2    0    0  0.80030535464E-02  0.20517616101E-01  0.25634157060E-02  0.10217581138E+01  0.10215175234E+01 0.  0.
     999903    2    3    3    0    0 -0.24305558679E-01 -0.77470353414E-01  0.10095609351E+00  0.13028371282E+00  0.13758530771E-01 0.  0.
         14    1    1    2    0    0 -0.80030535464E-02 -0.20517616101E-01 -0.25634157060E-02  0.22171886176E-01  0.00000000000E+00 0.  1.
     999901    1    3    3    0    0  0.32308612225E-01  0.97987969515E-01 -0.98392677806E-01  0.89147440100E+00  0.88000000000E+00 0.  1.
        -11    1    4    4    0    0  0.14789904952E-02 -0.70394712302E-02  0.11115065601E-01  0.13249429135E-01  0.51100000000E-03 0. -1.
         11    1    4    4    0    0 -0.25784549174E-01 -0.70430882184E-01  0.89841027911E-01  0.11703428369E+00  0.51100000000E-03 0.  1.
</event>
<event>
 8    1  0.1084146E+005  0.1043930E+01  0.7957747E-01            NaN
         13   -1    0    0    0    0  0.00000000000E+00  0.00000000000E+00  0.74505805969E-08  0.10566000000E+00  0.10566000000E+00 0. -1.
     999900   -1    0    0    0    0 -0.00000000000E+00 -0.00000000000E+00 -0.74505805969E-08  0.93827000000E+00  0.93827000000E+00 0. -1.
     999902    2    1    2    0    0  0.11777909480E-01 -0.44757575798E-02 -0.20395251350E-01  0.10199567266E+01  0.10196749513E+01 0.  0.
     999903    2    3    3    0    0 -0.75002393048E-01 -0.74895614973E-01  0.69542373377E-01  0.12834102829E+00  0.20014138539E-01 0.  0.
         14    1    1    2    0    0 -0.11777909480E-01  0.44757575798E-02  0.20395251350E-01  0.23973273353E-01  0.00000000000E+00 0. -1.
     999901    1    3    3    0    0  0.86780302528E-01  0.70419857394E-01 -0.89937624727E-01  0.89161569836E+00  0.88000000000E+00 0. -1.
        -11    1    4    4    0    0 -0.26711845634E-01 -0.18070052395E-01  0.29430769297E-01  0.43663265947E-01  0.51100000000E-03 0. -1.
         11    1    4    4    0    0 -0.48290547414E-01 -0.56825562579E-01  0.40111604080E-01  0.84677762339E-01  0.51100000000E-03 0.  1.
</event>
<event>
 8    1  0.1084146E+005  0.1043930E+01  0.7957747E-01            NaN
         13   -1    0    0    0    0  0.00000000000E+00  0.00000000000E+00  0.74505805969E-08  0.10566000000E+00  0.10566000000E+00 0. -1.
     999900   -1    0    0    0    0 -0.00000000000E+00 -0.00000000000E+00 -0.74505805969E-08  0.93827000000E+00  0.93827000000E+00 0.  1.
     999902    2    1    2    0    0  0.52296480172E-03  0.38375361646E-02  0.25756384000E-01  0.10178840504E+01  0.10175507597E+01 0.  0.
     999903    2    3    3    0    0 -0.11947649054E+00 -0.34493053243E-01 -0.20617542665E-01  0.12770449294E+00  0.20468315459E-01 0.  0.
         14    1    1    2    0    0 -0.52296480172E-03 -0.38375361646E-02 -0.25756384000E-01  0.26045949642E-01  0.00000000000E+00 0.  1.
     999901    1    3    3    0    0  0.11999945534E+00  0.38330589408E-01  0.46373926665E-01  0.89017955742E+00  0.88000000000E+00 0.  1.
        -11    1    4    4    0    0 -0.45253823552E-01 -0.20750926621E-01 -0.13822774066E-02  0.49806438474E-01  0.51100000000E-03 0. -1.
         11    1    4    4    0    0 -0.74222666991E-01 -0.13742126622E-01 -0.19235265259E-01  0.77898054468E-01  0.51100000000E-03 0.  1.
</event>
<event>
 8    1  0.1084146E+005  0.1043930E+01  0.7957747E-01            NaN
         13   -1    0    0    0    0  0.00000000000E+00  0.00000000000E+00  0.74505805969E-08  0.10566000000E+00  0.10566000000E+00 0. -1.
     999900   -1    0    0    0    0 -0.00000000000E+00 -0.00000000000E+00 -0.74505805969E-08  0.93827000000E+00  0.93827000000E+00 0. -1.
     999902    2    1    2    0    0  0.11305703271E-02 -0.16719012938E-01 -0.88807973109E-02  0.10249649758E+01  0.10247895049E+01 0.  0.
     999903    2    3    3    0    0  0.80878253307E-02 -0.11232658106E+00  0.73435424033E-01  0.13594013317E+00  0.20106828986E-01 0.  0.
         14    1    1    2    0    0 -0.11305703271E-02  0.16719012938E-01  0.88807973109E-02  0.18965024223E-01  0.00000000000E+00 0. -1.
     999901    1    3    3    0    0 -0.69572550035E-02  0.95607568122E-01 -0.82316221343E-01  0.88902484261E+00  0.88000000000E+00 0. -1.
        -11    1    4    4    0    0 -0.16772556326E-02 -0.88537968051E-01  0.54231143182E-01  0.10384152823E+00  0.51100000000E-03 0. -1.
         11    1    4    4    0    0  0.97650809632E-02 -0.23788613009E-01  0.19204280850E-01  0.32098604940E-01  0.51100000000E-03 0.  1.
</event>
<event>
 8    1  0.1084146E+005  0.1043930E+01  0.7957747E-01            NaN
         13   -1    0    0    0    0  0.00000000000E+00  0.00000000000E+00  0.74505805969E-08  0.10566000000E+00  0.10566000000E+00 0. -1.
     999900   -1    0    0    0    0 -0.00000000000E+00 -0.00000000000E+00 -0.74505805969E-08  0.93827000000E+00  0.93827000000E+00 0.  1.
     999902    2    1    2    0    0  0.22937623830E-01 -0.67137306142E-03  0.31493542888E-02  0.10207674492E+01  0.10205046210E+01 0.  0.
     999903    2    3    3    0    0 -0.51438841433E-01 -0.96307450532E-01  0.67681625891E-01  0.13012580856E+00  0.20756785271E-01 0.  0.
         14    1    1    2    0    0 -0.22937623830E-01  0.67137306142E-03 -0.31493542888E-02  0.23162550835E-01  0.00000000000E+00 0. -1.
     999901    1    3    3    0    0  0.74376465262E-01  0.95636077470E-01 -0.64532271602E-01  0.89064164060E+00  0.88000000000E+00 0.  1.
        -11    1    4    4    0    0 -0.19819999710E-01 -0.24138443767E-01  0.11218887464E-01  0.33190682622E-01  0.51100000000E-03 0.  1.
         11    1    4    4    0    0 -0.31618841723E-01 -0.72169006765E-01  0.56462738427E-01  0.96935125940E-01  0.51100000000E-03 0. -1.
</event>
<event>
 8    1  0.1084146E+005  0.1043930E+01  0.7957747E-01            NaN
         13   -1    0    0    0    0  0.00000000000E+00  0.00000000000E+00  0.74505805969E-08  0.10566000000E+00  0.10566000000E+00 0.  1.
     999900   -1    0    0    0    0 -0.00000000000E+00 -0.00000000000E+00 -0.74505805969E-08  0.93827000000E+00  0.93827000000E+00 0. -1.
     999902    2    1    2    0    0 -0.60615045963E-02  0.17324562715E-01 -0.16736490460E-01  0.10190906678E+01  0.10187879057E+01 0.  0.
     999903    2    3    3    0    0  0.17548556072E-01 -0.78413200765E-01 -0.10049256201E+00  0.12963114998E+00  0.15776506301E-01 0.  0.
         14    1    1    2    0    0  0.60615045963E-02 -0.17324562715E-01  0.16736490460E-01  0.24839332200E-01  0.00000000000E+00 0.  1.
     999901    1    3    3    0    0 -0.23610060669E-01  0.95737763480E-01  0.83756071550E-01  0.88945951782E+00  0.88000000000E+00 0. -1.
        -11    1    4    4    0    0  0.42088463953E-02 -0.30288255266E-02 -0.82473646744E-02  0.97554250098E-02  0.51100000000E-03 0. -1.
         11    1    4    4    0    0  0.13339709677E-01 -0.75384375239E-01 -0.92245197336E-01  0.11987572497E+00  0.51100000000E-03 0.  1.
</event>
<event>
 8    1  0.1084146E+005  0.1043930E+01  0.7957747E-01            NaN
         13   -1    0    0    0    0  0.00000000000E+00  0.00000000000E+00  0.74505805969E-08  0.10566000000E+00  0.10566000000E+00 0. -1.
     999900   -1    0    0    0    0 -0.00000000000E+00 -0.00000000000E+00 -0.74505805969E-08  0.93827000000E+00  0.93827000000E+00 0. -1.
     999902    2    1    2    0    0  0.99836793577E-02  0.16144786281E-01 -0.13462842275E-01  0.10206582124E+01  0.10203928706E+01 0.  0.
     999903    2    3    3    0    0 -0.10842379008E+00 -0.33729053747E-01 -0.60169970257E-01  0.13010260796E+00  0.20319841417E-01 0.  0.
         14    1    1    2    0    0 -0.99836793577E-02 -0.16144786281E-01  0.13462842275E-01  0.23271787634E-01  0.00000000000E+00 0. -1.
     999901    1    3    3    0    0  0.11840746944E+00  0.49873840028E-01  0.46707127983E-01  0.89055560441E+00  0.88000000000E+00 0. -1.
        -11    1    4    4    0    0 -0.29977095523E-01 -0.57180308112E-02 -0.25897888813E-01  0.40028538548E-01  0.51100000000E-03 0. -1.
         11    1    4    4    0    0 -0.78446694556E-01 -0.28011022936E-01 -0.34272081444E-01  0.90074069410E-01  0.51100000000E-03 0.  1.
</event>
<event>
 8    1  0.1084146E+005  0.1043930E+01  0.7957747E-01            NaN
         13   -1    0    0    0    0  0.00000000000E+00  0.00000000000E+00  0.74505805969E-08  0.10566000000E+00  0.10566000000E+00 0.  1.
     999900   -1    0    0    0    0 -0.00000000000E+00 -0.00000000000E+00 -0.74505805969E-08  0.93827000000E+00  0.93827000000E+00 0.  1.
     999902    2    1    2    0    0 -0.50056370896E-02  0.33815435878E-03  0.22455509235E-01  0.10209208573E+01  0.10206615386E+01 0.  0.
     999903    2    3    3    0    0  0.99056496892E-01 -0.43369953638E-02  0.85667863505E-01  0.13252534492E+00  0.19823851867E-01 0.  0.
         14    1    1    2    0    0  0.50056370896E-02 -0.33815435878E-03 -0.22455509235E-01  0.23009142663E-01  0.00000000000E+00 0. -1.
     999901    1    3    3    0    0 -0.10406213398E+00  0.46751497226E-02 -0.63212354270E-01  0.88839551242E+00  0.88000000000E+00 0.  1.
        -11    1    4    4    0    0  0.57867470361E-01 -0.37012348979E-03  0.62172113055E-01  0.84937705880E-01  0.51100000000E-03 0. -1.
         11    1    4    4    0    0  0.41189026531E-01 -0.39668718740E-02  0.23495750450E-01  0.47587639039E-01  0.51100000000E-03 0.  1.
</event>
<event>
 8    1  0.1084146E+005  0.1043930E+01  0.7957747E-01            NaN
         13   -1    0    0    0    0  0.00000000000E+00  0.00000000000E+00  0.74505805969E-08  0.10566000000E+00  0.10566000000E+00 0.  1.
     999900   -1    0    0    0    0 -0.00000000000E+00 -0.00000000000E+00 -0.74505805969E-08  0.93827000000E+00  0.93827000000E+00 0. -1.
     999902    2    1    2    0    0 -0.39458437157E-02 -0.58835491525E-02 -0.21519552119E-01  0.10212743836E+01  0.10210230602E+01 0.  0.
     999903    2    3    3    0    0  0.44591097847E-01  0.53939890540E-01  0.10566486854E+00  0.12879998308E+00  0.22945443986E-01 0.  0.
         14    1    1    2    0    0  0.39458437157E-02  0.58835491525E-02  0.21519552119E-01  0.22655616448E-01  0.00000000000E+00 0.  1.
     999901    1    3    3    0    0 -0.48536941563E-01 -0.59823439692E-01 -0.12718442066E+00  0.89247440047E+00  0.88000000000E+00 0. -1.
        -11    1    4    4    0    0  0.25286079188E-01  0.37078301045E-01  0.48119968142E-01  0.65802573385E-01  0.51100000000E-03 0. -1.
         11    1    4    4    0    0  0.19305018659E-01  0.16861589495E-01  0.57544900399E-01  0.62997409698E-01  0.51100000000E-03 0.  1.
</event>
<event>
 8    1  0.1084146E+005  0.1043930E+01  0.7957747E-01            NaN
         13   -1    0    0    0    0  0.00000000000E+00  0.00000000000E+00  0.74505805969E-08  0.10566000000E+00  0.10566000000E+00 0.  1.
     999900   -1    0    0    0    0 -0.00000000000E+00 -0.00000000000E+00 -0.74505805969E-08  0.93827000000E+00  0.93827000000E+00 0. -1.
     999902    2    1    2    0    0 -0.33148024115E-02  0.25486958573E-01  0.39832234477E-02  0.10179215583E+01  0.10175892392E+01 0.  0.
     999903    2    3    3    0    0  0.88423285844E-01  0.42743064614E-01  0.82809735839E-01  0.12948063784E+00  0.16190619934E-01 0.  0.
         14    1    1    2    0    0  0.33148024115E-02 -0.25486958573E-01 -0.39832234477E-02  0.26008441733E-01  0.00000000000E+00 0. -1.
     999901    1    3    3    0    0 -0.91738088256E-01 -0.17256106041E-01 -0.78826512391E-01  0.88844092043E+00  0.88000000000E+00 0.  1.
        -11    1    4    4    0    0  0.60326578832E-01  0.33696963489E-01  0.65752247016E-01  0.95385536486E-01  0.51100000000E-03 0. -1.
         11    1    4    4    0    0  0.28096707012E-01  0.90461011245E-02  0.17057488823E-01  0.34095101355E-01  0.51100000000E-03 0.  1.
</event>
<event>
 8    1  0.1084146E+005  0.1043930E+01  0.7957747E-01            NaN
         13   -1    0    0    0    0  0.00000000000E+00  0.00000000000E+00  0.74505805969E-08  0.10566000000E+00  0.10566000000E+00 0. -1.
     999900   -1    0    0    0    0 -0.00000000000E+00 -0.00000000000E+00 -0.74505805969E-08  0.93827000000E+00  0.93827000000E+00 0.  1.
     999902    2    1    2    0    0 -0.30473967716E-02  0.52006700662E-03 -0.30163113155E-01  0.10136088771E+01  0.10131552622E+01 0.  0.
     999903    2    3    3    0    0 -0.25360895004E-02 -0.65459031741E-01 -0.10853613109E+00  0.12766540667E+00  0.15068102799E-01 0.  0.
         14    1    1    2    0    0  0.30473967716E-02 -0.52006700662E-03  0.30163113155E-01  0.30321122868E-01  0.00000000000E+00 0. -1.
     999901    1    3    3    0    0 -0.51130727122E-03  0.65979098748E-01  0.78373017938E-01  0.88594347046E+00  0.88000000000E+00 0. -1.
        -11    1    4    4    0    0  0.56983560594E-02 -0.37601275292E-01 -0.57557030402E-01  0.68988405077E-01  0.51100000000E-03 0. -1.
         11    1    4    4    0    0 -0.82344455597E-02 -0.27857756449E-01 -0.50979100691E-01  0.58677001596E-01  0.51100000000E-03 0.  1.
</event>
<event>
 8    1  0.1084146E+005  0.1043930E+01  0.7957747E-01            NaN
         13   -1    0    0    0    0  0.00000000000E+00  0.00000000000E+00  0.74505805969E-08  0.10566000000E+00  0.10566000000E+00 0.  1.
     999900   -1    0    0    0    0 -0.00000000000E+00 -0.00000000000E+00 -0.74505805969E-08  0.93827000000E+00  0.93827000000E+00 0.  1.
     999902    2    1    2    0    0 -0.20634041117E-01 -0.11988304163E-01  0.68622050743E-02  0.10190991130E+01  0.10187965593E+01 0.  0.
     999903    2    3    3    0    0 -0.23957593658E-01 -0.32931438952E-02 -0.12506897075E+00  0.12921570102E+00  0.21671152580E-01 0.  0.
         14    1    1    2    0    0  0.20634041117E-01  0.11988304163E-01 -0.68622050743E-02  0.24830886976E-01  0.00000000000E+00 0. -1.
     999901    1    3    3    0    0  0.33235525411E-02 -0.86951602682E-02  0.13193117582E+00  0.88988341201E+00  0.88000000000E+00 0. -1.
        -11    1    4    4    0    0 -0.21513107933E-01  0.60592115827E-02 -0.96335371487E-01  0.98895362775E-01  0.51100000000E-03 0.  1.
         11    1    4    4    0    0 -0.24444857247E-02 -0.93523554779E-02 -0.28733599262E-01  0.30320338240E-01  0.51100000000E-03 0. -1.
</event>
<event>
 8    1  0.1084146E+005  0.1043930E+01  0.7957747E-01            NaN
         13   -1    0    0    0    0  0.00000000000E+00  0.00000000000E+00  0.74505805969E-08  0.10566000000E+00  0.10566000000E+00 0. -1.
     999900   -1    0    0    0    0 -0.00000000000E+00 -0.00000000000E+00 -0.74505805969E-08  0.93827000000E+00  0.93827000000E+00 0.  1.
     999902    2    1    2    0    0 -0.14200701850E-02 -0.16867552394E-01  0.16972893644E-01  0.10199589750E+01  0.10196772531E+01 0.  0.
     999903    2    3    3    0    0  0.52702136282E-01 -0.49681364748E-01  0.10966338666E+00  0.13283018667E+00  0.19288518447E-01 0.  0.
         14    1    1    2    0    0  0.14200701850E-02  0.16867552394E-01 -0.16972893644E-01  0.23971025046E-01  0.00000000000E+00 0.  1.
     999901    1    3    3    0    0 -0.54122206467E-01  0.32813812354E-01 -0.92690493016E-01  0.88712878829E+00  0.88000000000E+00 0.  1.
        -11    1    4    4    0    0  0.42566090329E-01 -0.38474896070E-01  0.70817957298E-01  0.91146222469E-01  0.51100000000E-03 0.  1.
         11    1    4    4    0    0  0.10136045953E-01 -0.11206468678E-01  0.38845429362E-01  0.41683964197E-01  0.51100000000E-03 0. -1.
</event>
<event>
 8    1  0.1084146E+005  0.1043930E+01  0.7957747E-01            NaN
         13   -1    0    0    0    0  0.00000000000E+00  0.00000000000E+00  0.74505805969E-08  0.10566000000E+00  0.10566000000E+00 0. -1.
     999900   -1    0    0    0    0 -0.00000000000E+00 -0.00000000000E+00 -0.74505805969E-08  0.93827000000E+00  0.93827000000E+00 0.  1.
     999902    2    1    2    0    0  0.19426563721E-01 -0.10780994869E-01 -0.18195069043E-02  0.10216380321E+01  0.10213947997E+01 0.  0.
     999903    2    3    3    0    0 -0.12056165795E+00 -0.23563325977E-01  0.36546064716E-01  0.12965596540E+00  0.19614046460E-01 0.  0.
         14    1    1    2    0    0 -0.19426563721E-01  0.10780994869E-01  0.18195069043E-02  0.22291967920E-01  0.00000000000E+00 0.  1.
     999901    1    3    3    0    0  0.13998822167E+00  0.12782331108E-01 -0.38365571620E-01  0.89198206668E+00  0.88000000000E+00 0.  1.
        -11    1    4    4    0    0 -0.42804312270E-02 -0.19382418011E-02  0.57367270198E-02  0.74330364367E-02  0.51100000000E-03 0.  1.
         11    1    4    4    0    0 -0.11628122672E+00 -0.21625084176E-01  0.30809337696E-01  0.12222292896E+00  0.51100000000E-03 0. -1.
</event>
<event>
 8    1  0.1084146E+005  0.1043930E+01  0.7957747E-01            NaN
         13   -1    0    0    0    0  0.00000000000E+00  0.00000000000E+00  0.74505805969E-08  0.10566000000E+00  0.10566000000E+00 0. -1.
     999900   -1    0    0    0    0 -0.00000000000E+00 -0.00000000000E+00 -0.74505805969E-08  0.93827000000E+00  0.93827000000E+00 0.  1.
     999902    2    1    2    0    0  0.16821173549E-01  0.16816654956E-01  0.31376109101E-02  0.10199384105E+01  0.10196561994E+01 0.  0.
     999903    2    3    3    0    0 -0.11330085290E+00 -0.52032086774E-01 -0.18025826518E-01  0.12745884096E+00  0.19401144145E-01 0.  0.
         14    1    1    2    0    0 -0.16821173549E-01 -0.16816654956E-01 -0.31376109101E-02  0.23991589479E-01  0.00000000000E+00 0. -1.
     999901    1    3    3    0    0  0.13012202645E+00  0.68848741730E-01  0.21163437428E-01  0.89247956956E+00  0.88000000000E+00 0.  1.
        -11    1    4    4    0    0 -0.10591661565E+00 -0.52861670813E-01 -0.19185271468E-01  0.11992089673E+00  0.51100000000E-03 0. -1.
         11    1    4    4    0    0 -0.73842372564E-02  0.82958403858E-03  0.11594449502E-02  0.75379442243E-02  0.51100000000E-03 0.  1.
</event>
<event>
 8    1  0.1084146E+005  0.1043930E+01  0.7957747E-01            NaN
         13   -1    0    0    0    0  0.00000000000E+00  0.00000000000E+00  0.74505805969E-08  0.10566000000E+00  0.10566000000E+00 0.  1.
     999900   -1    0    0    0    0 -0.00000000000E+00 -0.00000000000E+00 -0.74505805969E-08  0.93827000000E+00  0.93827000000E+00 0. -1.
     999902    2    1    2    0    0  0.90210322554E-03 -0.98817794625E-02 -0.21563158397E-01  0.10201932531E+01  0.10199170753E+01 0.  0.
     999903    2    3    3    0    0  0.72305740302E-01  0.78039818274E-01  0.68546883906E-01  0.12837011674E+00  0.21491353195E-01 0.  0.
         14    1    1    2    0    0 -0.90210322554E-03  0.98817794625E-02  0.21563158397E-01  0.23736746947E-01  0.00000000000E+00 0.  1.
     999901    1    3    3    0    0 -0.71403637076E-01 -0.87921597736E-01 -0.90110042303E-01  0.89182313631E+00  0.88000000000E+00 0. -1.
        -11    1    4    4    0    0  0.64249225188E-01  0.59821238715E-01  0.61691009263E-01  0.10729671609E+00  0.51100000000E-03 0.  1.
         11    1    4    4    0    0  0.80565151136E-02  0.18218579559E-01  0.68558746434E-02  0.21073400652E-01  0.51100000000E-03 0. -1.
</event>
<event>
 8    1  0.1084146E+005  0.1043930E+01  0.7957747E-01            NaN
         13   -1    0    0    0    0  0.00000000000E+00  0.00000000000E+00  0.74505805969E-08  0.10566000000E+00  0.10566000000E+00 0. -1.
     999900   -1    0    0    0    0 -0.00000000000E+00 -0.00000000000E+00 -0.74505805969E-08  0.93827000000E+00  0.93827000000E+00 0. -1.
     999902    2    1    2    0    0 -0.35119323031E-02  0.13831399421E-01 -0.19307675315E-01  0.10199210932E+01  0.10196384697E+01 0.  0.
     999903    2    3    3    0    0 -0.11558258570E+00 -0.54616725911E-01  0.12570017924E-01  0.12960588806E+00  0.17244129521E-01 0.  0.
         14    1    1    2    0    0  0.35119323031E-02 -0.13831399421E-01  0.19307675315E-01  0.24008906774E-01  0.00000000000E+00 0. -1.
     999901    1    3    3    0    0  0.11207065340E+00  0.68448125331E-01 -0.31877693239E-01  0.89031520516E+00  0.88000000000E+00 0. -1.
        -11    1    4    4    0    0 -0.90904676026E-01 -0.35408673249E-01  0.67435391326E-02  0.97791465403E-01  0.51100000000E-03 0. -1.
         11    1    4    4    0    0 -0.24677909679E-01 -0.19208052662E-01  0.58264787917E-02  0.31814422662E-01  0.51100000000E-03 0.  1.
</event>
<event>
 8    1  0.1084146E+005  0.1043930E+01  0.7957747E-01            NaN
         13   -1    0    0    0    0  0.00000000000E+00  0.00000000000E+00  0.74505805969E-08  0.10566000000E+00  0.10566000000E+00 0. -1.
     999900   -1    0    0    0    0 -0.00000000000E+00 -0.00000000000E+00 -0.74505805969E-08  0.93827000000E+00  0.93827000000E+00 0. -1.
     999902    2    1    2    0    0  0.15816829938E-01 -0.11679134327E-01 -0.13512843640E-01  0.10200726902E+01  0.10197936664E+01 0.  0.
     999903    2    3    3    0    0  0.10686331193E+00 -0.32868210597E-01 -0.69747304313E-01  0.13333667908E+00  0.20344454391E-01 0.  0.
         14    1    1    2    0    0 -0.15816829938E-01  0.11679134327E-01  0.13512843640E-01  0.23857309806E-01  0.00000000000E+00 0. -1.
     999901    1    3    3    0    0 -0.91046481994E-01  0.21189076270E-01  0.56234460672E-01  0.88673601111E+00  0.88000000000E+00 0. -1.
        -11    1    4    4    0    0  0.51654058771E-01 -0.25189813211E-01 -0.41165871568E-01  0.70693412565E-01  0.51100000000E-03 0. -1.
         11    1    4    4    0    0  0.55209253162E-01 -0.76783973861E-02 -0.28581432745E-01  0.62643266517E-01  0.51100000000E-03 0.  1.
</event>
<event>
 8    1  0.1084146E+005  0.1043930E+01  0.7957747E-01            NaN
         13   -1    0    0    0    0  0.00000000000E+00  0.00000000000E+00  0.74505805969E-08  0.10566000000E+00  0.10566000000E+00 0.  1.
     999900   -1    0    0    0    0 -0.00000000000E+00 -0.00000000000E+00 -0.74505805969E-08  0.93827000000E+00  0.93827000000E+00 0. -1.
     999902    2    1    2    0    0  0.13095538690E-01 -0.19368961385E-01  0.46924070992E-02  0.10200832291E+01  0.10198044547E+01 0.  0.
     999903    2    3    3    0    0  0.75750648549E-01 -0.61096176444E-01  0.88288261318E-01  0.13292197536E+00  0.20063173113E-01 0.  0.
         14    1    1    2    0    0 -0.13095538690E-01  0.19368961385E-01 -0.46924070992E-02  0.23846770916E-01  0.00000000000E+00 0.  1.
     999901    1    3    3    0    0 -0.62655109859E-01  0.41727215059E-01 -0.83595854218E-01  0.88716125372E+00  0.88000000000E+00 0. -1.
        -11    1    4    4    0    0  0.47255663968E-01 -0.26235999275E-01  0.53153589927E-01  0.75808908963E-01  0.51100000000E-03 0. -1.
         11    1    4    4    0    0  0.28494984581E-01 -0.34860177169E-01  0.35134671391E-01  0.57113066397E-01  0.51100000000E-03 0.  1.
</event>
<event>
 8    1  0.1084146E+005  0.1043930E+01  0.7957747E-01            NaN
         13   -1    0    0    0    0  0.00000000000E+00  0.00000000000E+00  0.74505805969E-08  0.10566000000E+00  0.10566000000E+00 0.  1.
     999900   -1    0    0    0    0 -0.00000000000E+00 -0.00000000000E+00 -0.74505805969E-08  0.93827000000E+00  0.93827000000E+00 0.  1.
     999902    2    1    2    0    0  0.14739316062E-01  0.49150322787E-02  0.14736316892E-01  0.10225158921E+01  0.10222916343E+01 0.  0.
     999903    2    3    3    0    0  0.99050062545E-02 -0.41584808768E-01  0.12580386532E+00  0.13430330154E+00  0.19579550695E-01 0.  0.
         14    1    1    2    0    0 -0.14739316062E-01 -0.49150322787E-02 -0.14736316892E-01  0.21414107869E-01  0.00000000000E+00 0. -1.
     999901    1    3    3    0    0  0.48343098079E-02  0.46499841047E-01 -0.11106754843E+00  0.88821259059E+00  0.88000000000E+00 0.  1.
        -11    1    4    4    0    0  0.75862959351E-02 -0.37644091856E-02  0.32703886670E-01  0.33786505988E-01  0.51100000000E-03 0.  1.
         11    1    4    4    0    0  0.23187103195E-02 -0.37820399582E-01  0.93099978652E-01  0.10051679555E+00  0.51100000000E-03 0. -1.
</event>
<event>
 8    1  0.1084146E+005  0.1043930E+01  0.7957747E-01            NaN
         13   -1    0    0    0    0  0.00000000000E+00  0.00000000000E+00  0.74505805969E-08  0.10566000000E+00  0.10566000000E+00 0.  1.
     999900   -1    0    0    0    0 -0.00000000000E+00 -0.00000000000E+00 -0.74505805969E-08  0.93827000000E+00  0.93827000000E+00 0. -1.
     999902    2    1    2    0    0 -0.62368021484E-02 -0.55427781177E-02 -0.98455971264E-02  0.10310243472E+01  0.10309435720E+01 0.  0.
     999903    2    3    3    0    0  0.31028598138E-01 -0.67658916937E-01 -0.11845161899E+00  0.14139386623E+00  0.20516735163E-01 0.  0.
         14    1    1    2    0    0  0.62368021484E-02  0.55427781177E-02  0.98455971264E-02  0.12905652757E-01  0.00000000000E+00 0.  1.
     999901    1    3    3    0    0 -0.37265400286E-01  0.62116138820E-01  0.10860602187E+00  0.88963048101E+00  0.88000000000E+00 0.  1.
        -11    1    4    4    0    0  0.36089741000E-02  0.47459109823E-03 -0.43161977714E-02  0.56692693504E-02  0.51100000000E-03 0. -1.
         11    1    4    4    0    0  0.27419624038E-01 -0.68133508036E-01 -0.11413542122E+00  0.13572459688E+00  0.51100000000E-03 0.  1.
</event>
<event>
 8    1  0.1084146E+005  0.1043930E+01  0.7957747E-01            NaN
         13   -1    0    0    0    0  0.00000000000E+00  0.00000000000E+00  0.74505805969E-08  0.10566000000E+00  0.10566000000E+00 0.  1.
     999900   -1    0    0    0    0 -0.00000000000E+00 -0.00000000000E+00 -0.74505805969E-08  0.93827000000E+00  0.93827000000E+00 0.  1.
     999902    2    1    2    0    0  0.42295772715E-02 -0.11737984737E-01  0.20022525702E-01  0.10203382399E+01  0.10200654649E+01 0.  0.
     999903    2    3    3    0    0  0.11565897049E+00  0.45640374468E-02  0.61875171935E-01  0.13217501751E+00  0.15616352257E-01 0.  0.
         14    1    1    2    0    0 -0.42295772715E-02  0.11737984737E-01 -0.20022525702E-01  0.23591760110E-01  0.00000000000E+00 0. -1.
     999901    1    3    3    0    0 -0.11142939322E+00 -0.16302022184E-01 -0.41852646232E-01  0.88816322238E+00  0.88000000000E+00 0.  1.
        -11    1    4    4    0    0  0.38106755789E-01  0.85668084354E-02  0.23020289890E-01  0.45339937264E-01  0.51100000000E-03 0.  1.
         11    1    4    4    0    0  0.77552214702E-01 -0.40027709886E-02  0.38854882045E-01  0.86835080241E-01  0.51100000000E-03 0. -1.
</event>
<event>
 8    1  0.1084146E+005  0.1043930E+01  0.7957747E-01            NaN
         13   -1    0    0    0    0  0.00000000000E+00  0.00000000000E+00  0.74505805969E-08  0.10566000000E+00  0.10566000000E+00 0. -1.
     999900   -1    0    0    0    0 -0.00000000000E+00 -0.00000000000E+00 -0.74505805969E-08  0.93827000000E+00  0.93827000000E+00 0. -1.
     999902    2    1    2    0    0 -0.11509591887E-01 -0.46622890367E-02 -0.24600510981E-01  0.10163729177E+01  0.10159992692E+01 0.  0.
     999903    2    3    3    0    0 -0.48612629593E-01 -0.11054280562E+00 -0.40138757569E-01  0.12911379190E+00  0.21825484421E-01 0.  0.
         14    1    1    2    0    0  0.11509591887E-01  0.46622890367E-02  0.24600510981E-01  0.27557082302E-01  0.00000000000E+00 0. -1.
     999901    1    3    3    0    0  0.37103037706E-01  0.10588051658E+00  0.15538246588E-01  0.88725912579E+00  0.88000000000E+00 0. -1.
        -11    1    4    4    0    0 -0.38972069114E-01 -0.90980296219E-01 -0.41344773617E-01  0.10726550190E+00  0.51100000000E-03 0. -1.
         11    1    4    4    0    0 -0.96405604797E-02 -0.19562509401E-01  0.12060160487E-02  0.21848290005E-01  0.51100000000E-03 0.  1.
</event>
<event>
 8    1  0.1084146E+005  0.1043930E+01  0.7957747E-01            NaN
         13   -1    0    0    0    0  0.00000000000E+00  0.00000000000E+00  0.74505805969E-08  0.10566000000E+00  0.10566000000E+00 0. -1.
     999900   -1    0    0    0    0 -0.00000000000E+00 -0.00000000000E+00 -0.74505805969E-08  0.93827000000E+00  0.93827000000E+00 0. -1.
     999902    2    1    2    0    0 -0.18446395805E-02  0.13279854036E-01 -0.19271852356E-01  0.10204531707E+01  0.10201830778E+01 0.  0.
     999903    2    3    3    0    0  0.49521870914E-01 -0.19918297066E-01  0.11475134845E+00  0.12820721027E+00  0.20495427213E-01 0.  0.
         14    1    1    2    0    0  0.18446395805E-02 -0.13279854036E-01  0.19271852356E-01  0.23476829250E-01  0.00000000000E+00 0. -1.
     999901    1    3    3    0    0 -0.51366510494E-01  0.33198151102E-01 -0.13402320081E+00  0.89224596048E+00  0.88000000000E+00 0.  1.
        -11    1    4    4    0    0  0.42995973355E-01 -0.83834379851E-02  0.84678432650E-01  0.95339571187E-01  0.51100000000E-03 0.  1.
         11    1    4    4    0    0  0.65258975591E-02 -0.11534859081E-01  0.30072915804E-01  0.32867639083E-01  0.51100000000E-03 0. -1.
</event>
<event>
 8    1  0.1084146E+005  0.1043930E+01  0.7957747E-01            NaN
         13   -1    0    0    0    0  0.00000000000E+00  0.00000000000E+00  0.74505805969E-08  0.10566000000E+00  0.10566000000E+00 0.  1.
     999900   -1    0    0    0    0 -0.00000000000E+00 -0.00000000000E+00 -0.74505805969E-08  0.93827000000E+00  0.93827000000E+00 0. -1.
     999902    2    1    2    0    0  0.88665598392E-02 -0.91388189377E-02 -0.19826850020E-01  0.10203665139E+01  0.10200944000E+01 0.  0.
     999903    2    3    3    0    0 -0.66871916267E-01 -0.96735801133E-01 -0.56588663361E-01  0.13201918377E+00  0.19927861290E-01 0.  0.
         14    1    1    2    0    0 -0.88665598392E-02  0.91388189377E-02  0.19826850020E-01  0.23563486089E-01  0.00000000000E+00 0.  1.
     999901    1    3    3    0    0  0.75738476106E-01  0.87596982196E-01  0.36761813341E-01  0.88834733014E+00  0.88000000000E+00 0. -1.
        -11    1    4    4    0    0 -0.23179687896E-01 -0.26771983150E-01 -0.80823742829E-02  0.36326614318E-01  0.51100000000E-03 0.  1.
         11    1    4    4    0    0 -0.43692228371E-01 -0.69963817984E-01 -0.48506289078E-01  0.95692569450E-01  0.51100000000E-03 0. -1.
</event>
<event>
 8    1  0.1084146E+005  0.1043930E+01  0.7957747E-01            NaN
         13   -1    0    0    0    0  0.00000000000E+00  0.00000000000E+00  0.74505805969E-08  0.10566000000E+00  0.10566000000E+00 0. -1.
     999900   -1    0    0    0    0 -0.00000000000E+00 -0.00000000000E+00 -0.74505805969E-08  0.93827000000E+00  0.93827000000E+00 0. -1.
     999902    2    1    2    0    0 -0.17587278322E-01  0.11971364938E-01  0.98142381156E-02  0.10205004203E+01  0.10202314260E+01 0.  0.
     999903    2    3    3    0    0  0.92663820249E-01  0.66399927460E-01 -0.58334157347E-01  0.12934275914E+00  0.18197293192E-01 0.  0.
         14    1    1    2    0    0  0.17587278322E-01 -0.11971364938E-01 -0.98142381156E-02  0.23429579746E-01  0.00000000000E+00 0.  1.
     999901    1    3    3    0    0 -0.11025109857E+00 -0.54428562522E-01  0.68148395463E-01  0.89115766111E+00  0.88000000000E+00 0.  1.
        -11    1    4    4    0    0  0.21540892932E-01  0.25534338394E-01 -0.17203108093E-01  0.37579523076E-01  0.51100000000E-03 0.  1.
         11    1    4    4    0    0  0.71122927316E-01  0.40865589066E-01 -0.41131049254E-01  0.91763236067E-01  0.51100000000E-03 0. -1.
</event>
<event>
 8    1  0.1084146E+005  0.1043930E+01  0.7957747E-01            NaN
         13   -1    0    0    0    0  0.00000000000E+00  0.00000000000E+00  0.74505805969E-08  0.10566000000E+00  0.10566000000E+00 0.  1.
     999900   -1    0    0    0    0 -0.00000000000E+00 -0.00000000000E+00 -0.74505805969E-08  0.93827000000E+00  0.93827000000E+00 0.  1.
     999902    2    1    2    0    0 -0.17484110909E-01 -0.15534617230E-01  0.62108686838E-02  0.10197309637E+01  0.10194437920E+01 0.  0.
     999903    2    3    3    0    0  0.81166327275E-01  0.54965734302E-01 -0.78864765462E-01  0.12735208004E+00  0.19740730205E-01 0.  0.
         14    1    1    2    0    0  0.17484110909E-01  0.15534617230E-01 -0.62108686838E-02  0.24199036274E-01  0.00000000000E+00 0. -1.
     999901    1    3    3    0    0 -0.98650438183E-01 -0.70500351533E-01  0.85075634146E-01  0.89237888368E+00  0.88000000000E+00 0. -1.
        -11    1    4    4    0    0  0.46354578665E-01  0.33537575917E-01 -0.33576075494E-01  0.66341012415E-01  0.51100000000E-03 0.  1.
         11    1    4    4    0    0  0.34811748610E-01  0.21428158385E-01 -0.45288689968E-01  0.61011067627E-01  0.51100000000E-03 0. -1.
</event>
<event>
 8    1  0.1084146E+005  0.1043930E+01  0.7957747E-01            NaN
         13   -1    0    0    0    0  0.00000000000E+00  0.00000000000E+00  0.74505805969E-08  0.10566000000E+00  0.10566000000E+00 0. -1.
     999900   -1    0    0    0    0 -0.00000000000E+00 -0.00000000000E+00 -0.74505805969E-08  0.93827000000E+00  0.93827000000E+00 0.  1.
     999902    2    1    2    0    0  0.11481468899E-01 -0.19334033608E-02 -0.29852391330E-01  0.10118874120E+01  0.10113799519E+01 0.  0.
     999903    2    3    3    0    0 -0.40180234454E-01  0.10181346990E+00  0.47137935874E-01  0.12095539677E+00  0.20683063481E-01 0.  0.
         14    1    1    2    0    0 -0.11481468899E-01  0.19334033608E-02  0.29852391330E-01  0.32042587985E-01  0.00000000000E+00 0. -1.
     999901    1    3    3    0    0  0.51661703353E-01 -0.10374687326E+00 -0.76990327205E-01  0.89093201524E+00  0.88000000000E+00 0.  1.
        -11    1    4    4    0    0 -0.35244247259E-01  0.98692574461E-01  0.41184360192E-01  0.11260015037E+00  0.51100000000E-03 0.  1.
         11    1    4    4    0    0 -0.49359871952E-02  0.31208954412E-02  0.59535756828E-02  0.83552463971E-02  0.51100000000E-03 0. -1.
</event>
<event>
 8    1  0.1084146E+005  0.1043930E+01  0.7957747E-01            NaN
         13   -1    0    0    0    0  0.00000000000E+00  0.00000000000E+00  0.74505805969E-08  0.10566000000E+00  0.10566000000E+00 0.  1.
     999900   -1    0    0    0    0 -0.00000000000E+00 -0.00000000000E+00 -0.74505805969E-08  0.93827000000E+00  0.93827000000E+00 0. -1.
     999902    2    1    2    0    0  0.88737926323E-02 -0.22725267896E-01  0.15973949337E-02  0.10194814077E+01  0.10191882098E+01 0.  0.
     999903    2    3    3    0    0 -0.58798406614E-02 -0.12695041973E+00 -0.32083320945E-01  0.13256825375E+00  0.19849957740E-01 0.  0.
         14    1    1    2    0    0 -0.88737926323E-02  0.22725267896E-01 -0.15973949337E-02  0.24448592336E-01  0.00000000000E+00 0. -1.
     999901    1    3    3    0    0  0.14753633294E-01  0.10422515184E+00  0.33680715879E-01  0.88691315392E+00  0.88000000000E+00 0. -1.
        -11    1    4    4    0    0  0.71242192569E-02 -0.58457999803E-01 -0.13624229420E-01  0.60448101619E-01  0.51100000000E-03 0.  1.
         11    1    4    4    0    0 -0.13004059918E-01 -0.68492419928E-01 -0.18459091525E-01  0.72120152128E-01  0.51100000000E-03 0. -1.
</event>
<event>
 8    1  0.1084146E+005  0.1043930E+01  0.7957747E-01            NaN
         13   -1    0    0    0    0  0.00000000000E+00  0.00000000000E+00  0.74505805969E-08  0.10566000000E+00  0.10566000000E+00 0.  1.
     999900   -1    0    0    0    0 -0.00000000000E+00 -0.00000000000E+00 -0.74505805969E-08  0.93827000000E+00  0.93827000000E+00 0. -1.
     999902    2    1    2    0    0 -0.23975968020E-01  0.28671560724E-02 -0.31681163505E-02  0.10195762613E+01  0.10192853614E+01 0.  0.
     999903    2    3    3    0    0  0.49884046728E-01  0.75857175134E-01 -0.89870265423E-01  0.12923918621E+00  0.19579926152E-01 0.  0.
         14    1    1    2    0    0  0.23975968020E-01 -0.28671560724E-02  0.31681163505E-02  0.24353738679E-01  0.00000000000E+00 0.  1.
     999901    1    3    3    0    0 -0.73860014748E-01 -0.72990019061E-01  0.86702149072E-01  0.89033707511E+00  0.88000000000E+00 0. -1.
        -11    1    4    4    0    0  0.14006569094E-01  0.28745102877E-01 -0.43679961224E-01  0.54135617210E-01  0.51100000000E-03 0. -1.
         11    1    4    4    0    0  0.35877477634E-01  0.47112072257E-01 -0.46190304199E-01  0.75103569001E-01  0.51100000000E-03 0.  1.
</event>
<event>
 8    1  0.1084146E+005  0.1043930E+01  0.7957747E-01            NaN
         13   -1    0    0    0    0  0.00000000000E+00  0.00000000000E+00  0.74505805969E-08  0.10566000000E+00  0.10566000000E+00 0. -1.
     999900   -1    0    0    0    0 -0.00000000000E+00 -0.00000000000E+00 -0.74505805969E-08  0.93827000000E+00  0.93827000000E+00 0.  1.
     999902    2    1    2    0    0 -0.15984376180E-01 -0.10661400697E-01 -0.16844832886E-01  0.10183778153E+01  0.10180571991E+01 0.  0.
     999903    2    3    3    0    0  0.90703346433E-01 -0.87869388403E-01  0.95215551621E-02  0.12818765028E+00  0.19831469935E-01 0.  0.
         14    1    1    2    0    0  0.15984376180E-01  0.10661400697E-01  0.16844832886E-01  0.25552184674E-01  0.00000000000E+00 0. -1.
     999901    1    3    3    0    0 -0.10668772261E+00  0.77207987706E-01 -0.26366388048E-01  0.89019016504E+00  0.88000000000E+00 0.  1.
        -11    1    4    4    0    0  0.51962444530E-01 -0.54213821793E-01  0.14984629808E-01  0.76576983268E-01  0.51100000000E-03 0.  1.
         11    1    4    4    0    0  0.38740901902E-01 -0.33655566610E-01 -0.54630746461E-02  0.51610667014E-01  0.51100000000E-03 0. -1.
</event>
<event>
 8    1  0.1084146E+005  0.1043930E+01  0.7957747E-01            NaN
         13   -1    0    0    0    0  0.00000000000E+00  0.00000000000E+00  0.74505805969E-08  0.10566000000E+00  0.10566000000E+00 0.  1.
     999900   -1    0    0    0    0 -0.00000000000E+00 -0.00000000000E+00 -0.74505805969E-08  0.93827000000E+00  0.93827000000E+00 0.  1.
     999902    2    1    2    0    0  0.82817334544E-02  0.52740804484E-02  0.21421547587E-01  0.10203654984E+01  0.10200933607E+01 0.  0.
     999903    2    3    3    0    0  0.78684830329E-02 -0.23847104212E-02 -0.12620939720E+00  0.12803499703E+00  0.19913529420E-01 0.  0.
         14    1    1    2    0    0 -0.82817334544E-02 -0.52740804484E-02 -0.21421547587E-01  0.23564501578E-01  0.00000000000E+00 0. -1.
     999901    1    3    3    0    0  0.41325042151E-03  0.76587908696E-02  0.14763094479E+00  0.89233050139E+00  0.88000000000E+00 0. -1.
        -11    1    4    4    0    0  0.13669731034E-01 -0.15554027403E-02 -0.59742615360E-01  0.61308417328E-01  0.51100000000E-03 0. -1.
         11    1    4    4    0    0 -0.58012480008E-02 -0.82930768088E-03 -0.66466781842E-01  0.66726579704E-01  0.51100000000E-03 0.  1.
</event>
<event>
 8    1  0.1084146E+005  0.1043930E+01  0.7957747E-01            NaN
         13   -1    0    0    0    0  0.00000000000E+00  0.00000000000E+00  0.74505805969E-08  0.10566000000E+00  0.10566000000E+00 0.  1.
     999900   -1    0    0    0    0 -0.00000000000E+00 -0.00000000000E+00 -0.74505805969E-08  0.93827000000E+00  0.93827000000E+00 0.  1.
     999902    2    1    2    0    0  0.17265818962E-01  0.78479141761E-02  0.14220698965E-01  0.10202250102E+01  0.10199495796E+01 0.  0.
     999903    2    3    3    0    0  0.24488423939E-01 -0.11492853474E+00  0.53765044823E-01  0.13079261947E+00  0.20193520222E-01 0.  0.
         14    1    1    2    0    0 -0.17265818962E-01 -0.78479141761E-02 -0.14220698965E-01  0.23704989778E-01  0.00000000000E+00 0. -1.
     999901    1    3    3    0    0 -0.72226049776E-02  0.12277644891E+00 -0.39544345859E-01  0.88943239075E+00  0.88000000000E+00 0.  1.
        -11    1    4    4    0    0  0.12090056264E-01 -0.93057659794E-01  0.38921678685E-01  0.10159259668E+00  0.51100000000E-03 0.  1.
         11    1    4    4    0    0  0.12398367676E-01 -0.21870874943E-01  0.14843366138E-01  0.29200022793E-01  0.51100000000E-03 0. -1.
</event>
<event>
 8    1  0.1084146E+005  0.1043930E+01  0.7957747E-01            NaN
         13   -1    0    0    0    0  0.00000000000E+00  0.00000000000E+00  0.74505805969E-08  0.10566000000E+00  0.10566000000E+00 0. -1.
     999900   -1    0    0    0    0 -0.00000000000E+00 -0.00000000000E+00 -0.74505805969E-08  0.93827000000E+00  0.93827000000E+00 0. -1.
     999902    2    1    2    0    0  0.29905649704E-03 -0.10458184014E-02  0.23431866374E-01  0.10204729002E+01  0.10202032662E+01 0.  0.
     999903    2    3    3    0    0  0.80340183091E-01  0.46305959042E-01 -0.86840472962E-01  0.12872811515E+00  0.20757481173E-01 0.  0.
         14    1    1    2    0    0 -0.29905649704E-03  0.10458184014E-02 -0.23431866374E-01  0.23457099835E-01  0.00000000000E+00 0.  1.
     999901    1    3    3    0    0 -0.80041126594E-01 -0.47351777444E-01  0.11027233934E+00  0.89174478501E+00  0.88000000000E+00 0.  1.
        -11    1    4    4    0    0  0.62306422790E-01  0.29399218790E-01 -0.53546665893E-01  0.87257727083E-01  0.51100000000E-03 0. -1.
         11    1    4    4    0    0  0.18033760301E-01  0.16906740252E-01 -0.33293807069E-01  0.41470388070E-01  0.51100000000E-03 0.  1.
</event>
<event>
 8    1  0.1084146E+005  0.1043930E+01  0.7957747E-01            NaN
         13   -1    0    0    0    0  0.00000000000E+00  0.00000000000E+00  0.74505805969E-08  0.10566000000E+00  0.10566000000E+00 0.  1.
     999900   -1    0    0    0    0 -0.00000000000E+00 -0.00000000000E+00 -0.74505805969E-08  0.93827000000E+00  0.93827000000E+00 0. -1.
     999902    2    1    2    0    0  0.19298115466E-01  0.15851775050E-01 -0.10652922287E-02  0.10189333826E+01  0.10186267262E+01 0.  0.
     999903    2    3    3    0    0 -0.81377271452E-01 -0.69473369417E-01  0.64580905725E-01  0.12667482306E+00  0.20664172993E-01 0.  0.
         14    1    1    2    0    0 -0.19298115466E-01 -0.15851775050E-01  0.10652922287E-02  0.24996617377E-01  0.00000000000E+00 0.  1.
     999901    1    3    3    0    0  0.10067538692E+00  0.85325144467E-01 -0.65646197954E-01  0.89225855956E+00  0.88000000000E+00 0. -1.
        -11    1    4    4    0    0 -0.17859485475E-01 -0.25489311395E-01  0.24641734414E-01  0.39700660105E-01  0.51100000000E-03 0. -1.
         11    1    4    4    0    0 -0.63517785977E-01 -0.43984058022E-01  0.39939171311E-01  0.86974162954E-01  0.51100000000E-03 0.  1.
</event>
<event>
 8    1  0.1084146E+005  0.1043930E+01  0.7957747E-01            NaN
         13   -1    0    0    0    0  0.00000000000E+00  0.00000000000E+00  0.74505805969E-08  0.10566000000E+00  0.10566000000E+00 0. -1.
     999900   -1    0    0    0    0 -0.00000000000E+00 -0.00000000000E+00 -0.74505805969E-08  0.93827000000E+00  0.93827000000E+00 0.  1.
     999902    2    1    2    0    0  0.18704855557E-01  0.43951545051E-03 -0.14465953659E-01  0.10202798708E+01  0.10200057285E+01 0.  0.
     999903    2    3    3    0    0 -0.11221773901E+00 -0.43674966821E-01  0.38569132758E-01  0.12792370106E+00  0.19405453247E-01 0.  0.
         14    1    1    2    0    0 -0.18704855557E-01 -0.43951545051E-03  0.14465953659E-01  0.23650129186E-01  0.00000000000E+00 0. -1.
     999901    1    3    3    0    0  0.13092259456E+00  0.44114482272E-01 -0.53035086417E-01  0.89235616976E+00  0.88000000000E+00 0.  1.
        -11    1    4    4    0    0 -0.68394304195E-01 -0.35280439469E-01  0.19463386841E-01  0.79382459043E-01  0.51100000000E-03 0.  1.
         11    1    4    4    0    0 -0.43823434812E-01 -0.83945273527E-02  0.19105745917E-01  0.48541242014E-01  0.51100000000E-03 0. -1.
</event>
<event>
 8    1  0.1084146E+005  0.1043930E+01  0.7957747E-01            NaN
         13   -1    0    0    0    0  0.00000000000E+00  0.00000000000E+00  0.74505805969E-08  0.10566000000E+00  0.10566000000E+00 0. -1.
     999900   -1    0    0    0    0 -0.00000000000E+00 -0.00000000000E+00 -0.74505805969E-08  0.93827000000E+00  0.93827000000E+00 0.  1.
     999902    2    1    2    0    0  0.26078104899E-01  0.10850112082E-02 -0.67536008566E-02  0.10169697343E+01  0.10166123078E+01 0.  0.
     999903    2    3    3    0    0 -0.72020217566E-01  0.95276386819E-01 -0.34729139110E-01  0.12608369954E+00  0.20651502683E-01 0.  0.
         14    1    1    2    0    0 -0.26078104899E-01 -0.10850112082E-02  0.67536008566E-02  0.26960265743E-01  0.00000000000E+00 0.  1.
     999901    1    3    3    0    0  0.98098322465E-01 -0.94191375611E-01  0.27975538254E-01  0.89088603472E+00  0.88000000000E+00 0.  1.
        -11    1    4    4    0    0 -0.45005520529E-01  0.42439562117E-01 -0.17696189789E-01  0.64343061512E-01  0.51100000000E-03 0.  1.
         11    1    4    4    0    0 -0.27014697038E-01  0.52836824702E-01 -0.17032949322E-01  0.61740638029E-01  0.51100000000E-03 0. -1.
</event>
<event>
 8    1  0.1084146E+005  0.1043930E+01  0.7957747E-01            NaN
         13   -1    0    0    0    0  0.00000000000E+00  0.00000000000E+00  0.74505805969E-08  0.10566000000E+00  0.10566000000E+00 0. -1.
     999900   -1    0    0    0    0 -0.00000000000E+00 -0.00000000000E+00 -0.74505805969E-08  0.93827000000E+00  0.93827000000E+00 0. -1.
     999902    2    1    2    0    0  0.18387938078E-01 -0.57468072070E-02 -0.13249435758E-01  0.10205486055E+01  0.10202807293E+01 0.  0.
     999903    2    3    3    0    0  0.11432120551E+00  0.64689848158E-01 -0.46394528480E-02  0.13249531544E+00  0.16714353311E-01 0.  0.
         14    1    1    2    0    0 -0.18387938078E-01  0.57468072070E-02  0.13249435758E-01  0.23381394478E-01  0.00000000000E+00 0. -1.
     999901    1    3    3    0    0 -0.95933267434E-01 -0.70436655365E-01 -0.86099829101E-02  0.88805329008E+00  0.88000000000E+00 0. -1.
        -11    1    4    4    0    0  0.70888627562E-01  0.46602117306E-01 -0.86352019141E-02  0.85274748245E-01  0.51100000000E-03 0.  1.
         11    1    4    4    0    0  0.43432577949E-01  0.18087730851E-01  0.39957490661E-02  0.47220567195E-01  0.51100000000E-03 0. -1.
</event>
<event>
 8    1  0.1084146E+005  0.1043930E+01  0.7957747E-01            NaN
         13   -1    0    0    0    0  0.00000000000E+00  0.00000000000E+00  0.74505805969E-08  0.10566000000E+00  0.10566000000E+00 0.  1.
     999900   -1    0    0    0    0 -0.00000000000E+00 -0.00000000000E+00 -0.74505805969E-08  0.93827000000E+00  0.93827000000E+00 0. -1.
     999902    2    1    2    0    0  0.10457269253E-01 -0.87263012776E-02 -0.18887725400E-01  0.10206437597E+01  0.10203780845E+01 0.  0.
     999903    2    3    3    0    0 -0.48554846753E-01  0.84129494687E-01  0.81144658499E-01  0.12816905058E+00  0.20186750704E-01 0.  0.
         14    1    1    2    0    0 -0.10457269253E-01  0.87263012776E-02  0.18887725400E-01  0.23286240251E-01  0.00000000000E+00 0.  1.
     999901    1    3    3    0    0  0.59012116005E-01 -0.92855795964E-01 -0.10003238390E+00  0.89247470917E+00  0.88000000000E+00 0. -1.
        -11    1    4    4    0    0 -0.22598855264E-01  0.33037099204E-01  0.21440932865E-01  0.45410713562E-01  0.51100000000E-03 0.  1.
         11    1    4    4    0    0 -0.25955991489E-01  0.51092395483E-01  0.59703725634E-01  0.82758337018E-01  0.51100000000E-03 0. -1.
</event>
<event>
 8    1  0.1084146E+005  0.1043930E+01  0.7957747E-01            NaN
         13   -1    0    0    0    0  0.00000000000E+00  0.00000000000E+00  0.74505805969E-08  0.10566000000E+00  0.10566000000E+00 0. -1.
     999900   -1    0    0    0    0 -0.00000000000E+00 -0.00000000000E+00 -0.74505805969E-08  0.93827000000E+00  0.93827000000E+00 0. -1.
     999902    2    1    2    0    0  0.87434803351E-02  0.54675397306E-02 -0.21278910060E-01  0.10202839760E+01  0.10200099299E+01 0.  0.
     999903    2    3    3    0    0  0.92524660236E-01  0.91871140942E-01 -0.26727443707E-02  0.13189720333E+00  0.19713178158E-01 0.  0.
         14    1    1    2    0    0 -0.87434803351E-02 -0.54675397306E-02  0.21278910060E-01  0.23646024029E-01  0.00000000000E+00 0. -1.
     999901    1    3    3    0    0 -0.83781179901E-01 -0.86403601211E-01 -0.18606165689E-01  0.88838677264E+00  0.88000000000E+00 0. -1.
        -11    1    4    4    0    0  0.37084197437E-01  0.29865345511E-01 -0.90683225331E-02  0.48473417010E-01  0.51100000000E-03 0. -1.
         11    1    4    4    0    0  0.55440462799E-01  0.62005795430E-01  0.63955781623E-02  0.83423786317E-01  0.51100000000E-03 0.  1.
</event>
<event>
 8    1  0.1084146E+005  0.1043930E+01  0.7957747E-01            NaN
         13   -1    0    0    0    0  0.00000000000E+00  0.00000000000E+00  0.74505805969E-08  0.10566000000E+00  0.10566000000E+00 0.  1.
     999900   -1    0    0    0    0 -0.00000000000E+00 -0.00000000000E+00 -0.74505805969E-08  0.93827000000E+00  0.93827000000E+00 0. -1.
     999902    2    1    2    0    0  0.35242949566E-02 -0.22042681085E-01 -0.91990104267E-02  0.10197862174E+01  0.10195003713E+01 0.  0.
     999903    2    3    3    0    0  0.52510599639E-01  0.11460374028E+00  0.52289320932E-02  0.12777721072E+00  0.20206273476E-01 0.  0.
         14    1    1    2    0    0 -0.35242949566E-02  0.22042681085E-01  0.91990104267E-02  0.24143782578E-01  0.00000000000E+00 0. -1.
     999901    1    3    3    0    0 -0.48986304683E-01 -0.13664642136E+00 -0.14427942520E-01  0.89200900670E+00  0.88000000000E+00 0. -1.
        -11    1    4    4    0    0  0.28400460440E-01  0.39403083792E-01  0.47182424565E-02  0.48802787814E-01  0.51100000000E-03 0. -1.
         11    1    4    4    0    0  0.24110139200E-01  0.75200656485E-01  0.51068963673E-03  0.78974422903E-01  0.51100000000E-03 0.  1.
</event>
<event>
 8    1  0.1084146E+005  0.1043930E+01  0.7957747E-01            NaN
         13   -1    0    0    0    0  0.00000000000E+00  0.00000000000E+00  0.74505805969E-08  0.10566000000E+00  0.10566000000E+00 0. -1.
     999900   -1    0    0    0    0 -0.00000000000E+00 -0.00000000000E+00 -0.74505805969E-08  0.93827000000E+00  0.93827000000E+00 0. -1.
     999902    2    1    2    0    0  0.37263540316E-02 -0.23655133919E-01  0.12834033069E-02  0.10199487949E+01  0.10196668309E+01 0.  0.
     999903    2    3    3    0    0 -0.11079979195E+00  0.61478075589E-01  0.69197790445E-02  0.12843565969E+00  0.19791100633E-01 0.  0.
         14    1    1    2    0    0 -0.37263540316E-02  0.23655133919E-01 -0.12834033069E-02  0.23981205123E-01  0.00000000000E+00 0.  1.
     999901    1    3    3    0    0  0.11452614598E+00 -0.85133209508E-01 -0.56363757375E-02  0.89151313518E+00  0.88000000000E+00 0.  1.
        -11    1    4    4    0    0 -0.59520151263E-01  0.44150643430E-01  0.32312760843E-02  0.74179714126E-01  0.51100000000E-03 0.  1.
         11    1    4    4    0    0 -0.51279640688E-01  0.17327432159E-01  0.36885029602E-02  0.54255945567E-01  0.51100000000E-03 0. -1.
</event>
<event>
 8    1  0.1084146E+005  0.1043930E+01  0.7957747E-01            NaN
         13   -1    0    0    0    0  0.00000000000E+00  0.00000000000E+00  0.74505805969E-08  0.10566000000E+00  0.10566000000E+00 0.  1.
     999900   -1    0    0    0    0 -0.00000000000E+00 -0.00000000000E+00 -0.74505805969E-08  0.93827000000E+00  0.93827000000E+00 0.  1.
     999902    2    1    2    0    0  0.69293916080E-02  0.15095200372E-01  0.16631559216E-01  0.10204248877E+01  0.10201541360E+01 0.  0.
     999903    2    3    3    0    0 -0.26226676650E-03  0.11931800241E+00  0.56099873989E-01  0.13336690747E+00  0.20066929609E-01 0.  0.
         14    1    1    2    0    0 -0.69293916080E-02 -0.15095200372E-01 -0.16631559216E-01  0.23505112301E-01  0.00000000000E+00 0. -1.
     999901    1    3    3    0    0  0.71916583745E-02 -0.10422280204E+00 -0.39468314774E-01  0.88705798023E+00  0.88000000000E+00 0.  1.
        -11    1    4    4    0    0  0.50731584556E-02  0.37207443374E-01  0.26314037234E-01  0.45856520319E-01  0.51100000000E-03 0.  1.
         11    1    4    4    0    0 -0.53354252221E-02  0.82110559035E-01  0.29785836755E-01  0.87510387153E-01  0.51100000000E-03 0. -1.
</event>
<event>
 8    1  0.1084146E+005  0.1043930E+01  0.7957747E-01            NaN
         13   -1    0    0    0    0  0.00000000000E+00  0.00000000000E+00  0.74505805969E-08  0.10566000000E+00  0.10566000000E+00 0.  1.
     999900   -1    0    0    0    0 -0.00000000000E+00 -0.00000000000E+00 -0.74505805969E-08  0.93827000000E+00  0.93827000000E+00 0. -1.
     999902    2    1    2    0    0  0.23437742142E-01 -0.14124600004E-01  0.18169635470E-02  0.10165049487E+01  0.10161349208E+01 0.  0.
     999903    2    3    3    0    0  0.19141679659E-01  0.90387404536E-01  0.83861779784E-01  0.12652036057E+00  0.20936015177E-01 0.  0.
         14    1    1    2    0    0 -0.23437742142E-01  0.14124600004E-01 -0.18169635470E-02  0.27425051295E-01  0.00000000000E+00 0. -1.
     999901    1    3    3    0    0  0.42960624833E-02 -0.10451200454E+00 -0.82044816237E-01  0.88998458813E+00  0.88000000000E+00 0. -1.
        -11    1    4    4    0    0  0.15752646954E-02  0.16159333966E-01  0.26487098373E-01  0.31071418286E-01  0.51100000000E-03 0.  1.
         11    1    4    4    0    0  0.17566414964E-01  0.74228070570E-01  0.57374681410E-01  0.95448942284E-01  0.51100000000E-03 0. -1.
</event>
<event>
 8    1  0.1084146E+005  0.1043930E+01  0.7957747E-01            NaN
         13   -1    0    0    0    0  0.00000000000E+00  0.00000000000E+00  0.74505805969E-08  0.10566000000E+00  0.10566000000E+00 0. -1.
     999900   -1    0    0    0    0 -0.00000000000E+00 -0.00000000000E+00 -0.74505805969E-08  0.93827000000E+00  0.93827000000E+00 0. -1.
     999902    2    1    2    0    0  0.24819400580E-01  0.36011001106E-02  0.41878880473E-02  0.10185034593E+01  0.10181860280E+01 0.  0.
     999903    2    3    3    0    0 -0.11528421347E+00 -0.38852877844E-01  0.26033388832E-01  0.12614221582E+00  0.20835673404E-01 0.  0.
         14    1    1    2    0    0 -0.24819400580E-01 -0.36011001106E-02 -0.41878880473E-02  0.25426540729E-01  0.00000000000E+00 0. -1.
     999901    1    3    3    0    0  0.14010361405E+00  0.42453977955E-01 -0.21845500784E-01  0.89236124345E+00  0.88000000000E+00 0.  1.
        -11    1    4    4    0    0 -0.72114289013E-01 -0.13559630172E-01  0.16277416617E-01  0.75163486235E-01  0.51100000000E-03 0.  1.
         11    1    4    4    0    0 -0.43169924452E-01 -0.25293247672E-01  0.97559722145E-02  0.50978729583E-01  0.51100000000E-03 0. -1.
</event>
<event>
 8    1  0.1084146E+005  0.1043930E+01  0.7957747E-01            NaN
         13   -1    0    0    0    0  0.00000000000E+00  0.00000000000E+00  0.74505805969E-08  0.10566000000E+00  0.10566000000E+00 0. -1.
     999900   -1    0    0    0    0 -0.00000000000E+00 -0.00000000000E+00 -0.74505805969E-08  0.93827000000E+00  0.93827000000E+00 0. -1.
     999902    2    1    2    0    0  0.16932576168E-01 -0.36301225580E-03  0.14816512916E-01  0.10214272675E+01  0.10211793623E+01 0.  0.
     999903    2    3    3    0    0 -0.38333167370E-01  0.90639829374E-02 -0.12140097825E+00  0.12918381670E+00  0.19966809197E-01 0.  0.
         14    1    1    2    0    0 -0.16932576168E-01  0.36301225580E-03 -0.14816512916E-01  0.22502732469E-01  0.00000000000E+00 0.  1.
     999901    1    3    3    0    0  0.55265743538E-01 -0.94269951932E-02  0.13621749117E+00  0.89224345083E+00  0.88000000000E+00 0.  1.
        -11    1    4    4    0    0 -0.15343448930E-01  0.62350569070E-02 -0.80398509132E-01  0.82088237594E-01  0.51100000000E-03 0.  1.
         11    1    4    4    0    0 -0.22989718440E-01  0.28289260304E-02 -0.41002469121E-01  0.47095579107E-01  0.51100000000E-03 0. -1.
</event>
<event>
 8    1  0.1084146E+005  0.1043930E+01  0.7957747E-01            NaN
         13   -1    0    0    0    0  0.00000000000E+00  0.00000000000E+00  0.74505805969E-08  0.10566000000E+00  0.10566000000E+00 0. -1.
     999900   -1    0    0    0    0 -0.00000000000E+00 -0.00000000000E+00 -0.74505805969E-08  0.93827000000E+00  0.93827000000E+00 0.  1.
     999902    2    1    2    0    0  0.77696866639E-02  0.13709180115E-02  0.21538828429E-01  0.10209916353E+01  0.10207339275E+01 0.  0.
     999903    2    3    3    0    0 -0.54300730539E-01  0.11343597347E+00 -0.28795701549E-01  0.13029254002E+00  0.18184172896E-01 0.  0.
         14    1    1    2    0    0 -0.77696866639E-02 -0.13709180115E-02 -0.21538828429E-01  0.22938364744E-01  0.00000000000E+00 0.  1.
     999901    1    3    3    0    0  0.62070417203E-01 -0.11206505545E+00  0.50334529978E-01  0.89069909524E+00  0.88000000000E+00 0. -1.
        -11    1    4    4    0    0 -0.22291250659E-01  0.27749887768E-01 -0.83522346729E-02  0.36564697074E-01  0.51100000000E-03 0.  1.
         11    1    4    4    0    0 -0.32009479881E-01  0.85686085698E-01 -0.20443466876E-01  0.93727842946E-01  0.51100000000E-03 0. -1.
</event>
<event>
 8    1  0.1084146E+005  0.1043930E+01  0.7957747E-01            NaN
         13   -1    0    0    0    0  0.00000000000E+00  0.00000000000E+00  0.74505805969E-08  0.10566000000E+00  0.10566000000E+00 0.  1.
     999900   -1    0    0    0    0 -0.00000000000E+00 -0.00000000000E+00 -0.74505805969E-08  0.93827000000E+00  0.93827000000E+00 0.  1.
     999902    2    1    2    0    0 -0.10137727784E-01  0.25618199864E-02 -0.21199221075E-01  0.10202922459E+01  0.10200183937E+01 0.  0.
     999903    2    3    3    0    0  0.11105806922E+00 -0.24745012971E-01  0.54952103741E-01  0.12830956184E+00  0.22302456086E-01 0.  0.
         14    1    1    2    0    0  0.10137727784E-01 -0.25618199864E-02  0.21199221075E-01  0.23637754133E-01  0.00000000000E+00 0.  1.
     999901    1    3    3    0    0 -0.12119579700E+00  0.27306832957E-01 -0.76151324816E-01  0.89198268403E+00  0.88000000000E+00 0.  1.
        -11    1    4    4    0    0  0.38909243088E-01 -0.53246532443E-02  0.30382056922E-01  0.49654925573E-01  0.51100000000E-03 0. -1.
         11    1    4    4    0    0  0.72148826132E-01 -0.19420359727E-01  0.24570046819E-01  0.78654636264E-01  0.51100000000E-03 0.  1.
</event>
<event>
 8    1  0.1084146E+005  0.1043930E+01  0.7957747E-01            NaN
         13   -1    0    0    0    0  0.00000000000E+00  0.00000000000E+00  0.74505805969E-08  0.10566000000E+00  0.10566000000E+00 0.  1.
     999900   -1    0    0    0    0 -0.00000000000E+00 -0.00000000000E+00 -0.74505805969E-08  0.93827000000E+00  0.93827000000E+00 0. -1.
     999902    2    1    2    0    0  0.16226670920E-01 -0.17104265380E-01 -0.11125797742E-02  0.10203270642E+01  0.10200540277E+01 0.  0.
     999903    2    3    3    0    0  0.80580640863E-01  0.26227805961E-02 -0.10243707177E+00  0.13195932367E+00  0.20488796229E-01 0.  0.
         14    1    1    2    0    0 -0.16226670920E-01  0.17104265380E-01  0.11125797742E-02  0.23602935773E-01  0.00000000000E+00 0.  1.
     999901    1    3    3    0    0 -0.64353969943E-01 -0.19727045976E-01  0.10132449199E+00  0.88836774056E+00  0.88000000000E+00 0.  1.
        -11    1    4    4    0    0  0.48420286911E-01  0.10689188815E-01 -0.67899941396E-01  0.84079998244E-01  0.51100000000E-03 0. -1.
         11    1    4    4    0    0  0.32160353952E-01 -0.80664082192E-02 -0.34537130369E-01  0.47879325423E-01  0.51100000000E-03 0.  1.
</event>
<event>
 8    1  0.1084146E+005  0.1043930E+01  0.7957747E-01            NaN
         13   -1    0    0    0    0  0.00000000000E+00  0.00000000000E+00  0.74505805969E-08  0.10566000000E+00  0.10566000000E+00 0.  1.
     999900   -1    0    0    0    0 -0.00000000000E+00 -0.00000000000E+00 -0.74505805969E-08  0.93827000000E+00  0.93827000000E+00 0. -1.
     999902    2    1    2    0    0  0.19557794825E-01 -0.82664566365E-02 -0.91771055304E-02  0.10207986163E+01  0.10205365031E+01 0.  0.
     999903    2    3    3    0    0  0.27423169651E-01  0.11961353840E+00 -0.41200978060E-01  0.13094431048E+00  0.19734818285E-01 0.  0.
         14    1    1    2    0    0 -0.19557794825E-01  0.82664566365E-02  0.91771055304E-02  0.23131383652E-01  0.00000000000E+00 0.  1.
     999901    1    3    3    0    0 -0.78653748263E-02 -0.12787999504E+00  0.32023872530E-01  0.88985430586E+00  0.88000000000E+00 0.  1.
        -11    1    4    4    0    0  0.22487520696E-01  0.61867017976E-01 -0.16014871594E-01  0.67749197290E-01  0.51100000000E-03 0.  1.
         11    1    4    4    0    0  0.49356489557E-02  0.57746520424E-01 -0.25186106466E-01  0.63195113194E-01  0.51100000000E-03 0. -1.
</event>
<event>
 8    1  0.1084146E+005  0.1043930E+01  0.7957747E-01            NaN
         13   -1    0    0    0    0  0.00000000000E+00  0.00000000000E+00  0.74505805969E-08  0.10566000000E+00  0.10566000000E+00 0. -1.
     999900   -1    0    0    0    0 -0.00000000000E+00 -0.00000000000E+00 -0.74505805969E-08  0.93827000000E+00  0.93827000000E+00 0.  1.
     999902    2    1    2    0    0  0.51678871692E-02 -0.75723273804E-02  0.21855712788E-01  0.10202293802E+01  0.10199540523E+01 0.  0.
     999903    2    3    3    0    0  0.70258509322E-01 -0.10987384969E+00  0.62510979117E-03  0.13166135852E+00  0.18049974734E-01 0.  0.
         14    1    1    2    0    0 -0.51678871692E-02  0.75723273804E-02 -0.21855712788E-01  0.23700619849E-01  0.00000000000E+00 0.  1.
     999901    1    3    3    0    0 -0.65090622153E-01  0.10230152231E+00  0.21230602997E-01  0.88856802163E+00  0.88000000000E+00 0. -1.
        -11    1    4    4    0    0  0.14223437312E-01 -0.12037673700E-01  0.30434530580E-02  0.18887442510E-01  0.51100000000E-03 0.  1.
         11    1    4    4    0    0  0.56035072010E-01 -0.97836175990E-01 -0.24183432668E-02  0.11277391601E+00  0.51100000000E-03 0. -1.
</event>
<event>
 8    1  0.1084146E+005  0.1043930E+01  0.7957747E-01            NaN
         13   -1    0    0    0    0  0.00000000000E+00  0.00000000000E+00  0.74505805969E-08  0.10566000000E+00  0.10566000000E+00 0.  1.
     999900   -1    0    0    0    0 -0.00000000000E+00 -0.00000000000E+00 -0.74505805969E-08  0.93827000000E+00  0.93827000000E+00 0. -1.
     999902    2    1    2    0    0  0.16099085073E-01 -0.18168526741E-02 -0.16162798259E-01  0.10210451242E+01  0.10207886305E+01 0.  0.
     999903    2    3    3    0    0 -0.62368243083E-01  0.30559094145E-01  0.10630575988E+00  0.12851844600E+00  0.19809603686E-01 0.  0.
         14    1    1    2    0    0 -0.16099085073E-01  0.18168526741E-02  0.16162798259E-01  0.22884875822E-01  0.00000000000E+00 0.  1.
     999901    1    3    3    0    0  0.78467328156E-01 -0.32375946819E-01 -0.12246855814E+00  0.89252667817E+00  0.88000000000E+00 0. -1.
        -11    1    4    4    0    0 -0.54044768274E-01  0.24672041337E-01  0.10057396547E+00  0.11681151592E+00  0.51100000000E-03 0. -1.
         11    1    4    4    0    0 -0.83234748089E-02  0.58870528083E-02  0.57317944189E-02  0.11706930081E-01  0.51100000000E-03 0.  1.
</event>
<event>
 8    1  0.1084146E+005  0.1043930E+01  0.7957747E-01            NaN
         13   -1    0    0    0    0  0.00000000000E+00  0.00000000000E+00  0.74505805969E-08  0.10566000000E+00  0.10566000000E+00 0. -1.
     999900   -1    0    0    0    0 -0.00000000000E+00 -0.00000000000E+00 -0.74505805969E-08  0.93827000000E+00  0.93827000000E+00 0.  1.
     999902    2    1    2    0    0 -0.87699045140E-02 -0.16757069053E-01 -0.13997485323E-01  0.10204004402E+01  0.10201291184E+01 0.  0.
     999903    2    3    3    0    0 -0.28614760435E-01  0.16794018244E-01 -0.12553830014E+00  0.13250357282E+00  0.26391067506E-01 0.  0.
         14    1    1    2    0    0  0.87699045140E-02  0.16757069053E-01  0.13997485323E-01  0.23529559787E-01  0.00000000000E+00 0.  1.
     999901    1    3    3    0    0  0.19844855921E-01 -0.33551087296E-01  0.11154081481E+00  0.88789686740E+00  0.88000000000E+00 0. -1.
        -11    1    4    4    0    0  0.37477664929E-02  0.44456977040E-02 -0.36496006333E-01  0.36959837405E-01  0.51100000000E-03 0. -1.
         11    1    4    4    0    0 -0.32362526928E-01  0.12348320540E-01 -0.89042293803E-01  0.95543735410E-01  0.51100000000E-03 0.  1.
</event>
<event>
 8    1  0.1084146E+005  0.1043930E+01  0.7957747E-01            NaN
         13   -1    0    0    0    0  0.00000000000E+00  0.00000000000E+00  0.74505805969E-08  0.10566000000E+00  0.10566000000E+00 0.  1.
     999900   -1    0    0    0    0 -0.00000000000E+00 -0.00000000000E+00 -0.74505805969E-08  0.93827000000E+00  0.93827000000E+00 0. -1.
     999902    2    1    2    0    0  0.48617743893E-03 -0.17230911686E-01 -0.16149993503E-01  0.10203087601E+01  0.10200352949E+01 0.  0.
     999903    2    3    3    0    0 -0.11314589558E+00 -0.24435911533E-01  0.56198579237E-01  0.13002876140E+00  0.18710719490E-01 0.  0.
         14    1    1    2    0    0 -0.48617743893E-03  0.17230911686E-01  0.16149993503E-01  0.23621239938E-01  0.00000000000E+00 0.  1.
     999901    1    3    3    0    0  0.11363207302E+00  0.72049998470E-02 -0.72348572740E-01  0.89027999866E+00  0.88000000000E+00 0. -1.
        -11    1    4    4    0    0 -0.75007606120E-01 -0.10969810375E-01  0.44581281418E-01  0.87944468214E-01  0.51100000000E-03 0.  1.
         11    1    4    4    0    0 -0.38138289460E-01 -0.13466101158E-01  0.11617297818E-01  0.42084293186E-01  0.51100000000E-03 0. -1.
</event>
<event>
 8    1  0.1084146E+005  0.1043930E+01  0.7957747E-01            NaN
         13   -1    0    0    0    0  0.00000000000E+00  0.00000000000E+00  0.74505805969E-08  0.10566000000E+00  0.10566000000E+00 0. -1.
     999900   -1    0    0    0    0 -0.00000000000E+00 -0.00000000000E+00 -0.74505805969E-08  0.93827000000E+00  0.93827000000E+00 0. -1.
     999902    2    1    2    0    0 -0.51297213178E-02 -0.21645571177E-01 -0.70765137069E-02  0.10205864390E+01  0.10203194390E+01 0.  0.
     999903    2    3    3    0    0 -0.29875374409E-01 -0.12580797499E+00  0.26299103559E-01  0.13346971304E+00  0.20058336988E-01 0.  0.
         14    1    1    2    0    0  0.51297213178E-02  0.21645571177E-01  0.70765137069E-02  0.23343560967E-01  0.00000000000E+00 0. -1.
     999901    1    3    3    0    0  0.24745653092E-01  0.10416240381E+00 -0.33375617266E-01  0.88711672600E+00  0.88000000000E+00 0. -1.
        -11    1    4    4    0    0 -0.90003902457E-02 -0.65739002501E-01  0.55960533772E-02  0.66589792077E-01  0.51100000000E-03 0. -1.
         11    1    4    4    0    0 -0.20874984164E-01 -0.60068972490E-01  0.20703050182E-01  0.66879920960E-01  0.51100000000E-03 0.  1.
</event>
<event>
 8    1  0.1084146E+005  0.1043930E+01  0.7957747E-01            NaN
         13   -1    0    0    0    0  0.00000000000E+00  0.00000000000E+00  0.74505805969E-08  0.10566000000E+00  0.10566000000E+00 0.  1.
     999900   -1    0    0    0    0 -0.00000000000E+00 -0.00000000000E+00 -0.74505805969E-08  0.93827000000E+00  0.93827000000E+00 0. -1.
     999902    2    1    2    0    0 -0.12858860142E-02  0.23944927634E-01  0.16339988116E-02  0.10198949628E+01  0.10196117163E+01 0.  0.
     999903    2    3    3    0    0 -0.80787274148E-01 -0.82404706370E-01 -0.52493921564E-01  0.12828936211E+00  0.19632354273E-01 0.  0.
         14    1    1    2    0    0  0.12858860142E-02 -0.23944927634E-01 -0.16339988116E-02  0.24035037224E-01  0.00000000000E+00 0. -1.
     999901    1    3    3    0    0  0.79501388134E-01  0.10634963400E+00  0.54127920376E-01  0.89160560066E+00  0.88000000000E+00 0. -1.
        -11    1    4    4    0    0 -0.57423399811E-01 -0.67104438324E-01 -0.33266714494E-01  0.94378959005E-01  0.51100000000E-03 0.  1.
         11    1    4    4    0    0 -0.23363874337E-01 -0.15300268046E-01 -0.19227207071E-01  0.33910403109E-01  0.51100000000E-03 0. -1.
</event>
<event>
 8    1  0.1084146E+005  0.1043930E+01  0.7957747E-01            NaN
         13   -1    0    0    0    0  0.00000000000E+00  0.00000000000E+00  0.74505805969E-08  0.10566000000E+00  0.10566000000E+00 0.  1.
     999900   -1    0    0    0    0 -0.00000000000E+00 -0.00000000000E+00 -0.74505805969E-08  0.93827000000E+00  0.93827000000E+00 0. -1.
     999902    2    1    2    0    0 -0.13389926228E-01 -0.45104410583E-02  0.18860511037E-01  0.10203640695E+01  0.10200918984E+01 0.  0.
     999903    2    3    3    0    0 -0.39360031925E-01 -0.10753398312E+00 -0.60031124410E-01  0.13046958883E+00  0.17487368948E-01 0.  0.
         14    1    1    2    0    0  0.13389926228E-01  0.45104410583E-02 -0.18860511037E-01  0.23565930483E-01  0.00000000000E+00 0. -1.
     999901    1    3    3    0    0  0.25970105697E-01  0.10302354206E+00  0.78891635447E-01  0.88989448068E+00  0.88000000000E+00 0.  1.
        -11    1    4    4    0    0 -0.96832552570E-02 -0.42705221372E-01 -0.30113661480E-01  0.53146919888E-01  0.51100000000E-03 0. -1.
         11    1    4    4    0    0 -0.29676776668E-01 -0.64828761751E-01 -0.29917462930E-01  0.77322668945E-01  0.51100000000E-03 0.  1.
</event>
<event>
 8    1  0.1084146E+005  0.1043930E+01  0.7957747E-01            NaN
         13   -1    0    0    0    0  0.00000000000E+00  0.00000000000E+00  0.74505805969E-08  0.10566000000E+00  0.10566000000E+00 0.  1.
     999900   -1    0    0    0    0 -0.00000000000E+00 -0.00000000000E+00 -0.74505805969E-08  0.93827000000E+00  0.93827000000E+00 0.  1.
     999902    2    1    2    0    0 -0.17761564281E-01 -0.11831137662E-01  0.98810851648E-02  0.10204122444E+01  0.10201411979E+01 0.  0.
     999903    2    3    3    0    0  0.24394384795E-02  0.47564425269E-02 -0.12765588622E+00  0.12934566618E+00  0.20142032346E-01 0.  0.
         14    1    1    2    0    0  0.17761564281E-01  0.11831137662E-01 -0.98810851648E-02  0.23517755593E-01  0.00000000000E+00 0. -1.
     999901    1    3    3    0    0 -0.20201002761E-01 -0.16587580189E-01  0.13753697139E+00  0.89106657822E+00  0.88000000000E+00 0. -1.
        -11    1    4    4    0    0  0.91693866257E-02  0.89652843116E-02 -0.74339722777E-01  0.75439442451E-01  0.51100000000E-03 0.  1.
         11    1    4    4    0    0 -0.67299481462E-02 -0.42088417847E-02 -0.53316163447E-01  0.53906223731E-01  0.51100000000E-03 0. -1.
</event>
<event>
 8    1  0.1084146E+005  0.1043930E+01  0.7957747E-01            NaN
         13   -1    0    0    0    0  0.00000000000E+00  0.00000000000E+00  0.74505805969E-08  0.10566000000E+00  0.10566000000E+00 0.  1.
     999900   -1    0    0    0    0 -0.00000000000E+00 -0.00000000000E+00 -0.74505805969E-08  0.93827000000E+00  0.93827000000E+00 0. -1.
     999902    2    1    2    0    0 -0.88073429793E-02 -0.10346633236E-01  0.18957215205E-01  0.10206062328E+01  0.10203396906E+01 0.  0.
     999903    2    3    3    0    0 -0.10644517553E+00  0.58790364409E-01  0.47821423801E-01  0.13204210265E+00  0.19009101977E-01 0.  0.
         14    1    1    2    0    0  0.88073429793E-02  0.10346633236E-01 -0.18957215205E-01  0.23323767234E-01  0.00000000000E+00 0. -1.
     999901    1    3    3    0    0  0.97637832548E-01 -0.69136997645E-01 -0.28864208596E-01  0.88856413011E+00  0.88000000000E+00 0. -1.
        -11    1    4    4    0    0 -0.53478426923E-01  0.19837898867E-01  0.26715744872E-01  0.62987907750E-01  0.51100000000E-03 0. -1.
         11    1    4    4    0    0 -0.52966748604E-01  0.38952465542E-01  0.21105678929E-01  0.69054194902E-01  0.51100000000E-03 0.  1.
</event>
<event>
 8    1  0.1084146E+005  0.1043930E+01  0.7957747E-01            NaN
         13   -1    0    0    0    0  0.00000000000E+00  0.00000000000E+00  0.74505805969E-08  0.10566000000E+00  0.10566000000E+00 0. -1.
     999900   -1    0    0    0    0 -0.00000000000E+00 -0.00000000000E+00 -0.74505805969E-08  0.93827000000E+00  0.93827000000E+00 0.  1.
     999902    2    1    2    0    0 -0.14134497759E-01  0.75749640405E-02 -0.19490425840E-01  0.10186903327E+01  0.10183776083E+01 0.  0.
     999903    2    3    3    0    0 -0.10662769478E+00 -0.18117924741E-01 -0.73129692691E-01  0.13184632893E+00  0.18378737960E-01 0.  0.
         14    1    1    2    0    0  0.14134497759E-01 -0.75749640405E-02  0.19490425840E-01  0.25239667322E-01  0.00000000000E+00 0. -1.
     999901    1    3    3    0    0  0.92493197021E-01  0.25692888782E-01  0.53639266851E-01  0.88684400374E+00  0.88000000000E+00 0. -1.
        -11    1    4    4    0    0 -0.48298838936E-01 -0.14231407847E-01 -0.42249537702E-01  0.65731235869E-01  0.51100000000E-03 0.  1.
         11    1    4    4    0    0 -0.58328855845E-01 -0.38865168938E-02 -0.30880154988E-01  0.66115093064E-01  0.51100000000E-03 0. -1.
</event>
<event>
 8    1  0.1084146E+005  0.1043930E+01  0.7957747E-01            NaN
         13   -1    0    0    0    0  0.00000000000E+00  0.00000000000E+00  0.74505805969E-08  0.10566000000E+00  0.10566000000E+00 0. -1.
     999900   -1    0    0    0    0 -0.00000000000E+00 -0.00000000000E+00 -0.74505805969E-08  0.93827000000E+00  0.93827000000E+00 0.  1.
     999902    2    1    2    0    0 -0.20482890255E-01 -0.10763373725E-01  0.24175995302E-02  0.10206653531E+01  0.10204001760E+01 0.  0.
     999903    2    3    3    0    0  0.91137373215E-02 -0.11517504593E+00  0.60713880940E-01  0.13208434157E+00  0.20291538550E-01 0.  0.
         14    1    1    2    0    0  0.20482890255E-01  0.10763373725E-01 -0.24175995302E-02  0.23264646884E-01  0.00000000000E+00 0. -1.
     999901    1    3    3    0    0 -0.29596627577E-01  0.10441167220E+00 -0.58296281410E-01  0.88858101155E+00  0.88000000000E+00 0.  1.
        -11    1    4    4    0    0  0.13241698994E-01 -0.88956903451E-01  0.40093240688E-01  0.98470311941E-01  0.51100000000E-03 0.  1.
         11    1    4    4    0    0 -0.41279616723E-02 -0.26218142475E-01  0.20620640252E-01  0.33614029628E-01  0.51100000000E-03 0. -1.
</event>
<event>
 8    1  0.1084146E+005  0.1043930E+01  0.7957747E-01            NaN
         13   -1    0    0    0    0  0.00000000000E+00  0.00000000000E+00  0.74505805969E-08  0.10566000000E+00  0.10566000000E+00 0.  1.
     999900   -1    0    0    0    0 -0.00000000000E+00 -0.00000000000E+00 -0.74505805969E-08  0.93827000000E+00  0.93827000000E+00 0. -1.
     999902    2    1    2    0    0  0.21643697398E-01 -0.38766505831E-02  0.93821858108E-02  0.10200238613E+01  0.10197436806E+01 0.  0.
     999903    2    3    3    0    0 -0.96111650995E-01  0.61747458977E-01 -0.53104278645E-01  0.12756803379E+00  0.20083343509E-01 0.  0.
         14    1    1    2    0    0 -0.21643697398E-01  0.38766505831E-02 -0.93821858108E-02  0.23906138696E-01  0.00000000000E+00 0. -1.
     999901    1    3    3    0    0  0.11775534839E+00 -0.65624109561E-01  0.62486464455E-01  0.89245582752E+00  0.88000000000E+00 0.  1.
        -11    1    4    4    0    0 -0.75392766977E-01  0.39557283761E-01 -0.33907296608E-01  0.91645042939E-01  0.51100000000E-03 0. -1.
         11    1    4    4    0    0 -0.20718884018E-01  0.22190175217E-01 -0.19196982036E-01  0.35922990847E-01  0.51100000000E-03 0.  1.
</event>
<event>
 8    1  0.1084146E+005  0.1043930E+01  0.7957747E-01            NaN
         13   -1    0    0    0    0  0.00000000000E+00  0.00000000000E+00  0.74505805969E-08  0.10566000000E+00  0.10566000000E+00 0. -1.
     999900   -1    0    0    0    0 -0.00000000000E+00 -0.00000000000E+00 -0.74505805969E-08  0.93827000000E+00  0.93827000000E+00 0.  1.
     999902    2    1    2    0    0 -0.20099166621E-01 -0.17843681869E-01  0.57896109701E-02  0.10164364903E+01  0.10160645874E+01 0.  0.
     999903    2    3    3    0    0 -0.15310175443E-01 -0.88458131377E-01 -0.89559557806E-01  0.12846081556E+00  0.20543229061E-01 0.  0.
         14    1    1    2    0    0  0.20099166621E-01  0.17843681869E-01 -0.57896109701E-02  0.27493509719E-01  0.00000000000E+00 0. -1.
     999901    1    3    3    0    0 -0.47889911779E-02  0.70614449508E-01  0.95349168776E-01  0.88797567472E+00  0.88000000000E+00 0. -1.
        -11    1    4    4    0    0 -0.12396659514E-03 -0.94552773342E-02 -0.19918049911E-01  0.22054647366E-01  0.51100000000E-03 0.  1.
         11    1    4    4    0    0 -0.15186208848E-01 -0.79002854043E-01 -0.69641507894E-01  0.10640616819E+00  0.51100000000E-03 0. -1.
</event>
<event>
 8    1  0.1084146E+005  0.1043930E+01  0.7957747E-01            NaN
         13   -1    0    0    0    0  0.00000000000E+00  0.00000000000E+00  0.74505805969E-08  0.10566000000E+00  0.10566000000E+00 0.  1.
     999900   -1    0    0    0    0 -0.00000000000E+00 -0.00000000000E+00 -0.74505805969E-08  0.93827000000E+00  0.93827000000E+00 0.  1.
     999902    2    1    2    0    0 -0.10837187466E-01  0.87670258195E-02  0.20494272530E-01  0.10191445087E+01  0.10188430738E+01 0.  0.
     999903    2    3    3    0    0 -0.14384624236E-01 -0.64689979699E-01  0.11194776837E+00  0.13135384761E+00  0.18160934774E-01 0.  0.
         14    1    1    2    0    0  0.10837187466E-01 -0.87670258195E-02 -0.20494272530E-01  0.24785491329E-01  0.00000000000E+00 0. -1.
     999901    1    3    3    0    0  0.35474367704E-02  0.73457005518E-01 -0.91453495836E-01  0.88779066106E+00  0.88000000000E+00 0.  1.
        -11    1    4    4    0    0 -0.57794174655E-02 -0.41582070492E-01  0.54195682309E-01  0.68555841141E-01  0.51100000000E-03 0. -1.
         11    1    4    4    0    0 -0.86052067704E-02 -0.23107909207E-01  0.57752086057E-01  0.62798006468E-01  0.51100000000E-03 0.  1.
</event>
<event>
 8    1  0.1084146E+005  0.1043930E+01  0.7957747E-01            NaN
         13   -1    0    0    0    0  0.00000000000E+00  0.00000000000E+00  0.74505805969E-08  0.10566000000E+00  0.10566000000E+00 0.  1.
     999900   -1    0    0    0    0 -0.00000000000E+00 -0.00000000000E+00 -0.74505805969E-08  0.93827000000E+00  0.93827000000E+00 0. -1.
     999902    2    1    2    0    0 -0.20987418788E-01  0.12826795408E-02  0.48377757859E-02  0.10223540623E+01  0.10221263657E+01 0.  0.
     999903    2    3    3    0    0 -0.40234160378E-01 -0.12041368703E+00  0.34619048447E-01  0.13327174499E+00  0.21086389259E-01 0.  0.
         14    1    1    2    0    0  0.20987418788E-01 -0.12826795408E-02 -0.48377757859E-02  0.21575937726E-01  0.00000000000E+00 0.  1.
     999901    1    3    3    0    0  0.19246741590E-01  0.12169636657E+00 -0.29781272661E-01  0.88908231728E+00  0.88000000000E+00 0.  1.
        -11    1    4    4    0    0 -0.36256621835E-01 -0.10360250520E+00  0.36983840286E-01  0.11582783462E+00  0.51100000000E-03 0.  1.
         11    1    4    4    0    0 -0.39775385428E-02 -0.16811181838E-01 -0.23647918390E-02  0.17443910372E-01  0.51100000000E-03 0. -1.
</event>
<event>
 8    1  0.1084146E+005  0.1043930E+01  0.7957747E-01            NaN
         13   -1    0    0    0    0  0.00000000000E+00  0.00000000000E+00  0.74505805969E-08  0.10566000000E+00  0.10566000000E+00 0. -1.
     999900   -1    0    0    0    0 -0.00000000000E+00 -0.00000000000E+00 -0.74505805969E-08  0.93827000000E+00  0.93827000000E+00 0.  1.
     999902    2    1    2    0    0 -0.17388979457E-01  0.52100609862E-02  0.13017805447E-01  0.10215920368E+01  0.10213477885E+01 0.  0.
     999903    2    3    3    0    0  0.22255758262E-01 -0.14787535754E-01 -0.12532875874E+00  0.12967758969E+00  0.19874343039E-01 0.  0.
         14    1    1    2    0    0  0.17388979457E-01 -0.52100609862E-02 -0.13017805447E-01  0.22337963217E-01  0.00000000000E+00 0.  1.
     999901    1    3    3    0    0 -0.39644737719E-01  0.19997596740E-01  0.13834656419E+00  0.89191444709E+00  0.88000000000E+00 0. -1.
        -11    1    4    4    0    0  0.95935354486E-02 -0.18414842938E-02 -0.15247362418E-01  0.18115467660E-01  0.51100000000E-03 0. -1.
         11    1    4    4    0    0  0.12662222813E-01 -0.12946051460E-01 -0.11008139632E+00  0.11156212203E+00  0.51100000000E-03 0.  1.
</event>
<event>
 8    1  0.1084146E+005  0.1043930E+01  0.7957747E-01            NaN
         13   -1    0    0    0    0  0.00000000000E+00  0.00000000000E+00  0.74505805969E-08  0.10566000000E+00  0.10566000000E+00 0. -1.
     999900   -1    0    0    0    0 -0.00000000000E+00 -0.00000000000E+00 -0.74505805969E-08  0.93827000000E+00  0.93827000000E+00 0.  1.
     999902    2    1    2    0    0  0.19051289400E-01  0.12557667874E-01  0.46651253758E-02  0.10206403017E+01  0.10203745467E+01 0.  0.
     999903    2    3    3    0    0 -0.92203144975E-01 -0.33464394193E-01 -0.80386740751E-01  0.12837946583E+00  0.19949274094E-01 0.  0.
         14    1    1    2    0    0 -0.19051289400E-01 -0.12557667874E-01 -0.46651253758E-02  0.23289698259E-01  0.00000000000E+00 0.  1.
     999901    1    3    3    0    0  0.11125443437E+00  0.46022062067E-01  0.85051866127E-01  0.89226083591E+00  0.88000000000E+00 0. -1.
        -11    1    4    4    0    0 -0.65182054600E-01 -0.14195858942E-01 -0.49875422389E-01  0.83294907002E-01  0.51100000000E-03 0. -1.
         11    1    4    4    0    0 -0.27021090375E-01 -0.19268535250E-01 -0.30511318362E-01  0.45084558830E-01  0.51100000000E-03 0.  1.
</event>
<event>
 8    1  0.1084146E+005  0.1043930E+01  0.7957747E-01            NaN
         13   -1    0    0    0    0  0.00000000000E+00  0.00000000000E+00  0.74505805969E-08  0.10566000000E+00  0.10566000000E+00 0.  1.
     999900   -1    0    0    0    0 -0.00000000000E+00 -0.00000000000E+00 -0.74505805969E-08  0.93827000000E+00  0.93827000000E+00 0.  1.
     999902    2    1    2    0    0 -0.22328709247E-01 -0.76539071837E-02  0.10124029741E-02  0.10203041982E+01  0.10200306262E+01 0.  0.
     999903    2    3    3    0    0 -0.32132643384E-01 -0.12594086686E+00  0.13207090673E-01  0.13225204185E+00  0.20556425134E-01 0.  0.
         14    1    1    2    0    0  0.22328709247E-01  0.76539071837E-02 -0.10124029741E-02  0.23625801819E-01  0.00000000000E+00 0.  1.
     999901    1    3    3    0    0  0.98039341375E-02  0.11828695967E+00 -0.12194687699E-01  0.88805215633E+00  0.88000000000E+00 0.  1.
        -11    1    4    4    0    0  0.24607880173E-02 -0.72800181797E-02 -0.12693490831E-02  0.78055435722E-02  0.51100000000E-03 0.  1.
         11    1    4    4    0    0 -0.34593431402E-01 -0.11866084868E+00  0.14476439756E-01  0.12444649828E+00  0.51100000000E-03 0. -1.
</event>
<event>
 8    1  0.1084146E+005  0.1043930E+01  0.7957747E-01            NaN
         13   -1    0    0    0    0  0.00000000000E+00  0.00000000000E+00  0.74505805969E-08  0.10566000000E+00  0.10566000000E+00 0. -1.
     999900   -1    0    0    0    0 -0.00000000000E+00 -0.00000000000E+00 -0.74505805969E-08  0.93827000000E+00  0.93827000000E+00 0.  1.
     999902    2    1    2    0    0 -0.14002361525E-01  0.58970778753E-03  0.18592493077E-01  0.10206470732E+01  0.10203814744E+01 0.  0.
     999903    2    3    3    0    0 -0.11669780020E+00 -0.48391359965E-01  0.37067524674E-01  0.13312984802E+00  0.19734608106E-01 0.  0.
         14    1    1    2    0    0  0.14002361525E-01 -0.58970778753E-03 -0.18592493077E-01  0.23282926843E-01  0.00000000000E+00 0. -1.
     999901    1    3    3    0    0  0.10269543868E+00  0.48981067753E-01 -0.18475031597E-01  0.88751722514E+00  0.88000000000E+00 0.  1.
        -11    1    4    4    0    0 -0.64655147450E-01 -0.17033435444E-01  0.23490000984E-01  0.70869367727E-01  0.51100000000E-03 0.  1.
         11    1    4    4    0    0 -0.52042652752E-01 -0.31357924521E-01  0.13577523690E-01  0.62260480293E-01  0.51100000000E-03 0. -1.
</event>
<event>
 8    1  0.1084146E+005  0.1043930E+01  0.7957747E-01            NaN
         13   -1    0    0    0    0  0.00000000000E+00  0.00000000000E+00  0.74505805969E-08  0.10566000000E+00  0.10566000000E+00 0. -1.
     999900   -1    0    0    0    0 -0.00000000000E+00 -0.00000000000E+00 -0.74505805969E-08  0.93827000000E+00  0.93827000000E+00 0. -1.
     999902    2    1    2    0    0 -0.90994014098E-02 -0.34838361236E-02  0.23284330630E-01  0.10186892339E+01  0.10183764820E+01 0.  0.
     999903    2    3    3    0    0  0.68531044474E-01  0.96324352845E-01 -0.42374033575E-01  0.12723021550E+00  0.20422634650E-01 0.  0.
         14    1    1    2    0    0  0.90994014098E-02  0.34838361236E-02 -0.23284330630E-01  0.25240766095E-01  0.00000000000E+00 0.  1.
     999901    1    3    3    0    0 -0.77630445883E-01 -0.99808188968E-01  0.65658364206E-01  0.89145901841E+00  0.88000000000E+00 0. -1.
        -11    1    4    4    0    0  0.39651166248E-01  0.71827958898E-01 -0.27344742659E-01  0.86483910275E-01  0.51100000000E-03 0.  1.
         11    1    4    4    0    0  0.28879878226E-01  0.24496393947E-01 -0.15029290916E-01  0.40746305221E-01  0.51100000000E-03 0. -1.
</event>
<event>
 8    1  0.1084146E+005  0.1043930E+01  0.7957747E-01            NaN
         13   -1    0    0    0    0  0.00000000000E+00  0.00000000000E+00  0.74505805969E-08  0.10566000000E+00  0.10566000000E+00 0. -1.
     999900   -1    0    0    0    0 -0.00000000000E+00 -0.00000000000E+00 -0.74505805969E-08  0.93827000000E+00  0.93827000000E+00 0.  1.
     999902    2    1    2    0    0  0.77561898959E-02  0.17566183075E-01 -0.13568698066E-01  0.10204174749E+01  0.10201465504E+01 0.  0.
     999903    2    3    3    0    0  0.91796285148E-02  0.97183906402E-01 -0.88831607120E-01  0.13362239512E+00  0.20854563281E-01 0.  0.
         14    1    1    2    0    0 -0.77561898959E-02 -0.17566183075E-01  0.13568698066E-01  0.23512525103E-01  0.00000000000E+00 0.  1.
     999901    1    3    3    0    0 -0.14234386189E-02 -0.79617723326E-01  0.75262909054E-01  0.88679507978E+00  0.88000000000E+00 0. -1.
        -11    1    4    4    0    0 -0.49220265184E-03  0.79492529577E-01 -0.73761824567E-01  0.10844525073E+00  0.51100000000E-03 0. -1.
         11    1    4    4    0    0  0.96718311666E-02  0.17691376825E-01 -0.15069782553E-01  0.25177144383E-01  0.51100000000E-03 0.  1.
</event>
<event>
 8    1  0.1084146E+005  0.1043930E+01  0.7957747E-01            NaN
         13   -1    0    0    0    0  0.00000000000E+00  0.00000000000E+00  0.74505805969E-08  0.10566000000E+00  0.10566000000E+00 0. -1.
     999900   -1    0    0    0    0 -0.00000000000E+00 -0.00000000000E+00 -0.74505805969E-08  0.93827000000E+00  0.93827000000E+00 0. -1.
     999902    2    1    2    0    0  0.12237233642E-01  0.19768485057E-01  0.48094987165E-02  0.10201881768E+01  0.10199118795E+01 0.  0.
     999903    2    3    3    0    0  0.10989623277E+00  0.35722823525E-01  0.62323374464E-01  0.13277639705E+00  0.19800669470E-01 0.  0.
         14    1    1    2    0    0 -0.12237233642E-01 -0.19768485057E-01 -0.48094987165E-02  0.23741823151E-01  0.00000000000E+00 0.  1.
     999901    1    3    3    0    0 -0.97658999125E-01 -0.15954338468E-01 -0.57513875748E-01  0.88741177980E+00  0.88000000000E+00 0.  1.
        -11    1    4    4    0    0  0.28581944045E-01  0.17207065766E-01  0.12503873894E-01  0.35631708085E-01  0.51100000000E-03 0.  1.
         11    1    4    4    0    0  0.81314288721E-01  0.18515757759E-01  0.49819500570E-01  0.97144688963E-01  0.51100000000E-03 0. -1.
</event>
<event>
 8    1  0.1084146E+005  0.1043930E+01  0.7957747E-01            NaN
         13   -1    0    0    0    0  0.00000000000E+00  0.00000000000E+00  0.74505805969E-08  0.10566000000E+00  0.10566000000E+00 0.  1.
     999900   -1    0    0    0    0 -0.00000000000E+00 -0.00000000000E+00 -0.74505805969E-08  0.93827000000E+00  0.93827000000E+00 0.  1.
     999902    2    1    2    0    0  0.12885855618E-01  0.19676957288E-01  0.51673635656E-02  0.10198482731E+01  0.10195639120E+01 0.  0.
     999903    2    3    3    0    0  0.11963160538E+00  0.28269758181E-02  0.51734248052E-01  0.13201548949E+00  0.20783268403E-01 0.  0.
         14    1    1    2    0    0 -0.12885855618E-01 -0.19676957288E-01 -0.51673635656E-02  0.24081726876E-01  0.00000000000E+00 0. -1.
     999901    1    3    3    0    0 -0.10674574976E+00  0.16849981470E-01 -0.46566884486E-01  0.88783278364E+00  0.88000000000E+00 0.  1.
        -11    1    4    4    0    0  0.30183683361E-01  0.22045719334E-02  0.23154858717E-01  0.38109362129E-01  0.51100000000E-03 0. -1.
         11    1    4    4    0    0  0.89447922018E-01  0.62240388466E-03  0.28579389334E-01  0.93906127359E-01  0.51100000000E-03 0.  1.
</event>
<event>
 8    1  0.1084146E+005  0.1043930E+01  0.7957747E-01            NaN
         13   -1    0    0    0    0  0.00000000000E+00  0.00000000000E+00  0.74505805969E-08  0.10566000000E+00  0.10566000000E+00 0. -1.
     999900   -1    0    0    0    0 -0.00000000000E+00 -0.00000000000E+00 -0.74505805969E-08  0.93827000000E+00  0.93827000000E+00 0.  1.
     999902    2    1    2    0    0  0.86441845883E-02 -0.20911910988E-01 -0.68172881881E-02  0.10202972819E+01  0.10200235478E+01 0.  0.
     999903    2    3    3    0    0  0.26659956360E-01 -0.32127299197E-01 -0.12400845034E+00  0.13227469124E+00  0.19379926708E-01 0.  0.
         14    1    1    2    0    0 -0.86441845883E-02  0.20911910988E-01  0.68172881881E-02  0.23632718139E-01  0.00000000000E+00 0. -1.
     999901    1    3    3    0    0 -0.18015771772E-01  0.11215388209E-01  0.11719116216E+00  0.88802259062E+00  0.88000000000E+00 0. -1.
        -11    1    4    4    0    0  0.44077025494E-02 -0.73302960520E-02 -0.85524792334E-02  0.12106490161E-01  0.51100000000E-03 0.  1.
         11    1    4    4    0    0  0.22252253811E-01 -0.24797003145E-01 -0.11545597111E+00  0.12016820108E+00  0.51100000000E-03 0. -1.
</event>
<event>
 8    1  0.1084146E+005  0.1043930E+01  0.7957747E-01            NaN
         13   -1    0    0    0    0  0.00000000000E+00  0.00000000000E+00  0.74505805969E-08  0.10566000000E+00  0.10566000000E+00 0. -1.
     999900   -1    0    0    0    0 -0.00000000000E+00 -0.00000000000E+00 -0.74505805969E-08  0.93827000000E+00  0.93827000000E+00 0.  1.
     999902    2    1    2    0    0 -0.11296196674E-01 -0.69181487176E-02  0.19853658525E-01  0.10200630229E+01  0.10197837702E+01 0.  0.
     999903    2    3    3    0    0 -0.11087343458E+00 -0.63819262098E-01  0.28136137266E-01  0.13258233999E+00  0.20508972320E-01 0.  0.
         14    1    1    2    0    0  0.11296196674E-01  0.69181487176E-02 -0.19853658525E-01  0.23866977140E-01  0.00000000000E+00 0.  1.
     999901    1    3    3    0    0  0.99577237911E-01  0.56901113381E-01 -0.82824787411E-02  0.88748068287E+00  0.88000000000E+00 0.  1.
        -11    1    4    4    0    0 -0.40865027128E-01 -0.15308485012E-01  0.16315056404E-01  0.46591226020E-01  0.51100000000E-03 0. -1.
         11    1    4    4    0    0 -0.70008407456E-01 -0.48510777087E-01  0.11821080862E-01  0.85991113970E-01  0.51100000000E-03 0.  1.
</event>
<event>
 8    1  0.1084146E+005  0.1043930E+01  0.7957747E-01            NaN
         13   -1    0    0    0    0  0.00000000000E+00  0.00000000000E+00  0.74505805969E-08  0.10566000000E+00  0.10566000000E+00 0.  1.
     999900   -1    0    0    0    0 -0.00000000000E+00 -0.00000000000E+00 -0.74505805969E-08  0.93827000000E+00  0.93827000000E+00 0.  1.
     999902    2    1    2    0    0  0.11428713558E-01 -0.11709187571E-01  0.15882050897E-01  0.10211273662E+01  0.10208727335E+01 0.  0.
     999903    2    3    3    0    0 -0.31962142623E-01 -0.12314665756E+00  0.32931562914E-01  0.13287528376E+00  0.19613142758E-01 0.  0.
         14    1    1    2    0    0 -0.11428713558E-01  0.11709187571E-01 -0.15882050897E-01  0.22802633792E-01  0.00000000000E+00 0.  1.
     999901    1    3    3    0    0  0.43390856181E-01  0.11143746999E+00 -0.17049512017E-01  0.88825208245E+00  0.88000000000E+00 0. -1.
        -11    1    4    4    0    0 -0.90163492773E-02 -0.53310867717E-01  0.22755897158E-01  0.58663746450E-01  0.51100000000E-03 0.  1.
         11    1    4    4    0    0 -0.22945793346E-01 -0.69835789841E-01  0.10175665756E-01  0.74211537307E-01  0.51100000000E-03 0. -1.
</event>
<event>
 8    1  0.1084146E+005  0.1043930E+01  0.7957747E-01            NaN
         13   -1    0    0    0    0  0.00000000000E+00  0.00000000000E+00  0.74505805969E-08  0.10566000000E+00  0.10566000000E+00 0.  1.
     999900   -1    0    0    0    0 -0.00000000000E+00 -0.00000000000E+00 -0.74505805969E-08  0.93827000000E+00  0.93827000000E+00 0. -1.
     999902    2    1    2    0    0  0.13808010262E-01 -0.61264256073E-02  0.66030456282E-02  0.10274438103E+01  0.10273115345E+01 0.  0.
     999903    2    3    3    0    0 -0.92144712508E-01 -0.80744633642E-01 -0.55266115728E-01  0.13580394494E+00  0.19442839521E-01 0.  0.
         14    1    1    2    0    0 -0.13808010262E-01  0.61264256073E-02 -0.66030456282E-02  0.16486189665E-01  0.00000000000E+00 0. -1.
     999901    1    3    3    0    0  0.10595272277E+00  0.74618208034E-01  0.61869161356E-01  0.89163986539E+00  0.88000000000E+00 0.  1.
        -11    1    4    4    0    0 -0.23061818256E-01 -0.30612482313E-01 -0.21981832960E-01  0.44186351240E-01  0.51100000000E-03 0. -1.
         11    1    4    4    0    0 -0.69082894252E-01 -0.50132151328E-01 -0.33284282768E-01  0.91617593701E-01  0.51100000000E-03 0.  1.
</event>
<event>
 8    1  0.1084146E+005  0.1043930E+01  0.7957747E-01            NaN
         13   -1    0    0    0    0  0.00000000000E+00  0.00000000000E+00  0.74505805969E-08  0.10566000000E+00  0.10566000000E+00 0.  1.
     999900   -1    0    0    0    0 -0.00000000000E+00 -0.00000000000E+00 -0.74505805969E-08  0.93827000000E+00  0.93827000000E+00 0. -1.
     999902    2    1    2    0    0 -0.11819245339E-02 -0.19967550806E-01 -0.12928896132E-01  0.10201128552E+01  0.10198347812E+01 0.  0.
     999903    2    3    3    0    0  0.16798595485E-02  0.69911744585E-01  0.10478604171E+00  0.12773217179E+00  0.21093108233E-01 0.  0.
         14    1    1    2    0    0  0.11819245339E-02  0.19967550806E-01  0.12928896132E-01  0.23817144791E-01  0.00000000000E+00 0.  1.
     999901    1    3    3    0    0 -0.28617840825E-02 -0.89879295391E-01 -0.11771493784E+00  0.89238068342E+00  0.88000000000E+00 0. -1.
        -11    1    4    4    0    0  0.14921608868E-02  0.26232642984E-01  0.22611659550E-01  0.34668809767E-01  0.51100000000E-03 0.  1.
         11    1    4    4    0    0  0.18769866176E-03  0.43679101600E-01  0.82174382156E-01  0.93063362023E-01  0.51100000000E-03 0. -1.
</event>
<event>
 8    1  0.1084146E+005  0.1043930E+01  0.7957747E-01            NaN
         13   -1    0    0    0    0  0.00000000000E+00  0.00000000000E+00  0.74505805969E-08  0.10566000000E+00  0.10566000000E+00 0. -1.
     999900   -1    0    0    0    0 -0.00000000000E+00 -0.00000000000E+00 -0.74505805969E-08  0.93827000000E+00  0.93827000000E+00 0.  1.
     999902    2    1    2    0    0  0.50409008081E-02 -0.11927172918E-01 -0.19772343734E-01  0.10202949897E+01  0.10200212019E+01 0.  0.
     999903    2    3    3    0    0  0.27998399318E-01 -0.12739866901E+00  0.44765927218E-02  0.13212342741E+00  0.20548210638E-01 0.  0.
         14    1    1    2    0    0 -0.50409008081E-02  0.11927172918E-01  0.19772343734E-01  0.23635010292E-01  0.00000000000E+00 0. -1.
     999901    1    3    3    0    0 -0.22957498510E-01  0.11547149609E+00 -0.24248936456E-01  0.88817156229E+00  0.88000000000E+00 0.  1.
        -11    1    4    4    0    0  0.80582729812E-04 -0.45310031096E-01  0.28046151661E-02  0.45399696020E-01  0.51100000000E-03 0. -1.
         11    1    4    4    0    0  0.27917816588E-01 -0.82088637910E-01  0.16719775557E-02  0.86723731394E-01  0.51100000000E-03 0.  1.
</event>
<event>
 8    1  0.1084146E+005  0.1043930E+01  0.7957747E-01            NaN
         13   -1    0    0    0    0  0.00000000000E+00  0.00000000000E+00  0.74505805969E-08  0.10566000000E+00  0.10566000000E+00 0.  1.
     999900   -1    0    0    0    0 -0.00000000000E+00 -0.00000000000E+00 -0.74505805969E-08  0.93827000000E+00  0.93827000000E+00 0.  1.
     999902    2    1    2    0    0 -0.12838967485E-01  0.12099102677E-01  0.15947408962E-01  0.10201487632E+01  0.10198715369E+01 0.  0.
     999903    2    3    3    0    0 -0.72325004908E-01  0.15331096813E-01  0.10909015834E+00  0.13323016140E+00  0.19587352979E-01 0.  0.
         14    1    1    2    0    0  0.12838967485E-01 -0.12099102677E-01 -0.15947408962E-01  0.23781236811E-01  0.00000000000E+00 0. -1.
     999901    1    3    3    0    0  0.59486037423E-01 -0.32319941357E-02 -0.93142749375E-01  0.88691860179E+00  0.88000000000E+00 0.  1.
        -11    1    4    4    0    0 -0.17840083942E-01  0.87749041988E-02  0.17677219801E-01  0.26608509158E-01  0.51100000000E-03 0. -1.
         11    1    4    4    0    0 -0.54484920966E-01  0.65561926139E-02  0.91412938536E-01  0.10662165224E+00  0.51100000000E-03 0.  1.
</event>
<event>
 8    1  0.1084146E+005  0.1043930E+01  0.7957747E-01            NaN
         13   -1    0    0    0    0  0.00000000000E+00  0.00000000000E+00  0.74505805969E-08  0.10566000000E+00  0.10566000000E+00 0.  1.
     999900   -1    0    0    0    0 -0.00000000000E+00 -0.00000000000E+00 -0.74505805969E-08  0.93827000000E+00  0.93827000000E+00 0.  1.
     999902    2    1    2    0    0  0.34793106257E-02 -0.22148646176E-01  0.71473018895E-02  0.10203980631E+01  0.10201266858E+01 0.  0.
     999903    2    3    3    0    0 -0.33143133736E-01 -0.12620199529E+00  0.19895711589E-01  0.13341958262E+00  0.19481651829E-01 0.  0.
         14    1    1    2    0    0 -0.34793106257E-02  0.22148646176E-01 -0.71473018895E-02  0.23531936898E-01  0.00000000000E+00 0. -1.
     999901    1    3    3    0    0  0.36622444361E-01  0.10405334911E+00 -0.12748409699E-01  0.88697848048E+00  0.88000000000E+00 0. -1.
        -11    1    4    4    0    0 -0.25492613126E-01 -0.80770623954E-01  0.44154428804E-02  0.84814646581E-01  0.51100000000E-03 0. -1.
         11    1    4    4    0    0 -0.76505206100E-02 -0.45431371334E-01  0.15480268708E-01  0.48604936037E-01  0.51100000000E-03 0.  1.
</event>
<event>
 8    1  0.1084146E+005  0.1043930E+01  0.7957747E-01            NaN
         13   -1    0    0    0    0  0.00000000000E+00  0.00000000000E+00  0.74505805969E-08  0.10566000000E+00  0.10566000000E+00 0. -1.
     999900   -1    0    0    0    0 -0.00000000000E+00 -0.00000000000E+00 -0.74505805969E-08  0.93827000000E+00  0.93827000000E+00 0.  1.
     999902    2    1    2    0    0 -0.91596770706E-02 -0.18502667302E-01 -0.89792516438E-02  0.10214161078E+01  0.10211679538E+01 0.  0.
     999903    2    3    3    0    0 -0.44672323001E-01 -0.12499244409E+00 -0.42344836547E-02  0.13427252676E+00  0.19810428277E-01 0.  0.
         14    1    1    2    0    0  0.91596770706E-02  0.18502667302E-01  0.89792516438E-02  0.22513892187E-01  0.00000000000E+00 0. -1.
     999901    1    3    3    0    0  0.35512645930E-01  0.10648977679E+00 -0.47447679891E-02  0.88714358105E+00  0.88000000000E+00 0. -1.
        -11    1    4    4    0    0 -0.29614773568E-01 -0.88399972605E-01 -0.11829399461E-01  0.93977581277E-01  0.51100000000E-03 0.  1.
         11    1    4    4    0    0 -0.15057549433E-01 -0.36592471485E-01  0.75949158062E-02  0.40294945482E-01  0.51100000000E-03 0. -1.
</event>
<event>
 8    1  0.1084146E+005  0.1043930E+01  0.7957747E-01            NaN
         13   -1    0    0    0    0  0.00000000000E+00  0.00000000000E+00  0.74505805969E-08  0.10566000000E+00  0.10566000000E+00 0. -1.
     999900   -1    0    0    0    0 -0.00000000000E+00 -0.00000000000E+00 -0.74505805969E-08  0.93827000000E+00  0.93827000000E+00 0.  1.
     999902    2    1    2    0    0 -0.10578530344E-01 -0.10162367511E-01 -0.17400861016E-01  0.10211710681E+01  0.10209174214E+01 0.  0.
     999903    2    3    3    0    0  0.43365977345E-02  0.76647972646E-01 -0.10599793102E+00  0.13234716145E+00  0.19659399096E-01 0.  0.
         14    1    1    2    0    0  0.10578530344E-01  0.10162367511E-01  0.17400861016E-01  0.22758931912E-01  0.00000000000E+00 0. -1.
     999901    1    3    3    0    0 -0.14915128078E-01 -0.86810340158E-01  0.88597070000E-01  0.88882390664E+00  0.88000000000E+00 0.  1.
        -11    1    4    4    0    0  0.32169290759E-02  0.68239002331E-01 -0.81104278875E-01  0.10604279912E+00  0.51100000000E-03 0.  1.
         11    1    4    4    0    0  0.11196686586E-02  0.84089703149E-02 -0.24893652140E-01  0.26304362329E-01  0.51100000000E-03 0. -1.
</event>
<event>
 8    1  0.1084146E+005  0.1043930E+01  0.7957747E-01            NaN
         13   -1    0    0    0    0  0.00000000000E+00  0.00000000000E+00  0.74505805969E-08  0.10566000000E+00  0.10566000000E+00 0. -1.
     999900   -1    0    0    0    0 -0.00000000000E+00 -0.00000000000E+00 -0.74505805969E-08  0.93827000000E+00  0.93827000000E+00 0.  1.
     999902    2    1    2    0    0  0.65823618828E-02 -0.15439725897E-02  0.22781171475E-01  0.10201667276E+01  0.10198899250E+01 0.  0.
     999903    2    3    3    0    0 -0.21891921616E-01  0.80452347982E-01 -0.95627753875E-01  0.12800370722E+00  0.16983675195E-01 0.  0.
         14    1    1    2    0    0 -0.65823618828E-02  0.15439725897E-02 -0.22781171475E-01  0.23763272356E-01  0.00000000000E+00 0.  1.
     999901    1    3    3    0    0  0.28474283499E-01 -0.81996320572E-01  0.11840892535E+00  0.89216302042E+00  0.88000000000E+00 0. -1.
        -11    1    4    4    0    0 -0.60823931940E-02  0.31784663199E-01 -0.49300072580E-01  0.58974728478E-01  0.51100000000E-03 0.  1.
         11    1    4    4    0    0 -0.15809528422E-01  0.48667684783E-01 -0.46327681295E-01  0.69028978742E-01  0.51100000000E-03 0. -1.
</event>
<event>
 8    1  0.1084146E+005  0.1043930E+01  0.7957747E-01            NaN
         13   -1    0    0    0    0  0.00000000000E+00  0.00000000000E+00  0.74505805969E-08  0.10566000000E+00  0.10566000000E+00 0. -1.
     999900   -1    0    0    0    0 -0.00000000000E+00 -0.00000000000E+00 -0.74505805969E-08  0.93827000000E+00  0.93827000000E+00 0. -1.
     999902    2    1    2    0    0  0.18637663981E-01 -0.36524264676E-02 -0.13856979534E-01  0.10204200315E+01  0.10201491666E+01 0.  0.
     999903    2    3    3    0    0 -0.83752751431E-01  0.85094616066E-01  0.42460648146E-01  0.12827009458E+00  0.19866893759E-01 0.  0.
         14    1    1    2    0    0 -0.18637663981E-01  0.36524264676E-02  0.13856979534E-01  0.23509968516E-01  0.00000000000E+00 0. -1.
     999901    1    3    3    0    0  0.10239041541E+00 -0.88747042533E-01 -0.56317627680E-01  0.89214993690E+00  0.88000000000E+00 0.  1.
        -11    1    4    4    0    0 -0.74577857334E-01  0.68185875148E-01  0.40718985330E-01  0.10894708469E+00  0.51100000000E-03 0. -1.
         11    1    4    4    0    0 -0.91748940967E-02  0.16908740917E-01  0.17416628163E-02  0.19323009896E-01  0.51100000000E-03 0.  1.
</event>
<event>
 8    1  0.1084146E+005  0.1043930E+01  0.7957747E-01            NaN
         13   -1    0    0    0    0  0.00000000000E+00  0.00000000000E+00  0.74505805969E-08  0.10566000000E+00  0.10566000000E+00 0. -1.
     999900   -1    0    0    0    0 -0.00000000000E+00 -0.00000000000E+00 -0.74505805969E-08  0.93827000000E+00  0.93827000000E+00 0. -1.
     999902    2    1    2    0    0 -0.24287596871E-01  0.12429671907E-02 -0.15897358741E-02  0.10195587138E+01  0.10192673895E+01 0.  0.
     999903    2    3    3    0    0 -0.11050151060E+00 -0.20955521139E-01 -0.65481969382E-01  0.13276232835E+00  0.26234134327E-01 0.  0.
         14    1    1    2    0    0  0.24287596871E-01 -0.12429671907E-02  0.15897358741E-02  0.24371286165E-01  0.00000000000E+00 0.  1.
     999901    1    3    3    0    0  0.86213913729E-01  0.22198488330E-01  0.63892233508E-01  0.88679638548E+00  0.88000000000E+00 0.  1.
        -11    1    4    4    0    0 -0.28728231364E-01 -0.16453269311E-01 -0.13480797739E-01  0.35749326945E-01  0.51100000000E-03 0. -1.
         11    1    4    4    0    0 -0.81773279236E-01 -0.45022518276E-02 -0.52001171643E-01  0.97013001406E-01  0.51100000000E-03 0.  1.
</event>
<event>
 8    1  0.1084146E+005  0.1043930E+01  0.7957747E-01            NaN
         13   -1    0    0    0    0  0.00000000000E+00  0.00000000000E+00  0.74505805969E-08  0.10566000000E+00  0.10566000000E+00 0.  1.
     999900   -1    0    0    0    0 -0.00000000000E+00 -0.00000000000E+00 -0.74505805969E-08  0.93827000000E+00  0.93827000000E+00 0. -1.
     999902    2    1    2    0    0  0.60042849023E-02 -0.16231209599E-01  0.16798554619E-01  0.10198116452E+01  0.10195264080E+01 0.  0.
     999903    2    3    3    0    0 -0.78655862769E-02  0.12592372880E+00  0.12079030934E-01  0.12828336534E+00  0.19800654308E-01 0.  0.
         14    1    1    2    0    0 -0.60042849023E-02  0.16231209599E-01 -0.16798554619E-01  0.24118354826E-01  0.00000000000E+00 0. -1.
     999901    1    3    3    0    0  0.13869871179E-01 -0.14215493840E+00  0.47195236847E-02  0.89152827983E+00  0.88000000000E+00 0. -1.
        -11    1    4    4    0    0 -0.11317113833E-01  0.68970562180E-01 -0.30304748181E-03  0.69895410948E-01  0.51100000000E-03 0. -1.
         11    1    4    4    0    0  0.34515275561E-02  0.56953166625E-01  0.12382078416E-01  0.58387954392E-01  0.51100000000E-03 0.  1.
</event>
<event>
 8    1  0.1084146E+005  0.1043930E+01  0.7957747E-01            NaN
         13   -1    0    0    0    0  0.00000000000E+00  0.00000000000E+00  0.74505805969E-08  0.10566000000E+00  0.10566000000E+00 0.  1.
     999900   -1    0    0    0    0 -0.00000000000E+00 -0.00000000000E+00 -0.74505805969E-08  0.93827000000E+00  0.93827000000E+00 0. -1.
     999902    2    1    2    0    0  0.19027574516E-01  0.77020416856E-02 -0.13668361093E-01  0.10192684077E+01  0.10189700157E+01 0.  0.
     999903    2    3    3    0    0 -0.20322139377E-01  0.13142917325E-01  0.12331617271E+00  0.12778494428E+00  0.23160049842E-01 0.  0.
         14    1    1    2    0    0 -0.19027574516E-01 -0.77020416856E-02  0.13668361093E-01  0.24661592265E-01  0.00000000000E+00 0.  1.
     999901    1    3    3    0    0  0.39349713893E-01 -0.54408756395E-02 -0.13698453380E+00  0.89148346345E+00  0.88000000000E+00 0. -1.
        -11    1    4    4    0    0 -0.28102753846E-02 -0.61304876530E-02  0.37435316256E-01  0.38041353168E-01  0.51100000000E-03 0.  1.
         11    1    4    4    0    0 -0.17511863993E-01  0.19273404978E-01  0.85880856452E-01  0.89743591113E-01  0.51100000000E-03 0. -1.
</event>
<event>
 8    1  0.1084146E+005  0.1043930E+01  0.7957747E-01            NaN
         13   -1    0    0    0    0  0.00000000000E+00  0.00000000000E+00  0.74505805969E-08  0.10566000000E+00  0.10566000000E+00 0. -1.
     999900   -1    0    0    0    0 -0.00000000000E+00 -0.00000000000E+00 -0.74505805969E-08  0.93827000000E+00  0.93827000000E+00 0. -1.
     999902    2    1    2    0    0  0.43134398850E-02  0.14244729421E-01 -0.14681289818E-01  0.10230240594E+01  0.10228104262E+01 0.  0.
     999903    2    3    3    0    0  0.38458198787E-01  0.71636179044E-01 -0.10666378291E+00  0.13571327844E+00  0.20740206329E-01 0.  0.
         14    1    1    2    0    0 -0.43134398850E-02 -0.14244729421E-01  0.14681289818E-01  0.20905940559E-01  0.00000000000E+00 0. -1.
     999901    1    3    3    0    0 -0.34144758902E-01 -0.57391449623E-01  0.91982493087E-01  0.88731078100E+00  0.88000000000E+00 0.  1.
        -11    1    4    4    0    0  0.30675971833E-01  0.51380849642E-01 -0.62650952696E-01  0.86639540353E-01  0.51100000000E-03 0.  1.
         11    1    4    4    0    0  0.77822269534E-02  0.20255329402E-01 -0.44012830209E-01  0.49073738085E-01  0.51100000000E-03 0. -1.
</event>
<event>
 8    1  0.1084146E+005  0.1043930E+01  0.7957747E-01            NaN
         13   -1    0    0    0    0  0.00000000000E+00  0.00000000000E+00  0.74505805969E-08  0.10566000000E+00  0.10566000000E+00 0. -1.
     999900   -1    0    0    0    0 -0.00000000000E+00 -0.00000000000E+00 -0.74505805969E-08  0.93827000000E+00  0.93827000000E+00 0. -1.
     999902    2    1    2    0    0  0.46321412733E-02 -0.16939079391E-01 -0.15667385510E-01  0.10203958522E+01  0.10201244233E+01 0.  0.
     999903    2    3    3    0    0 -0.11661009543E+00 -0.23751689586E-01  0.47791531384E-01  0.12979317663E+00  0.20004527320E-01 0.  0.
         14    1    1    2    0    0 -0.46321412733E-02  0.16939079391E-01  0.15667385510E-01  0.23534147789E-01  0.00000000000E+00 0. -1.
     999901    1    3    3    0    0  0.12124223670E+00  0.68126101949E-02 -0.63458916895E-01  0.89060267558E+00  0.88000000000E+00 0.  1.
        -11    1    4    4    0    0 -0.78340758197E-01 -0.18372617692E-01  0.41818036509E-01  0.90685372438E-01  0.51100000000E-03 0.  1.
         11    1    4    4    0    0 -0.38269337234E-01 -0.53790718948E-02  0.59734948747E-02  0.39107804193E-01  0.51100000000E-03 0. -1.
</event>
<event>
 8    1  0.1084146E+005  0.1043930E+01  0.7957747E-01            NaN
         13   -1    0    0    0    0  0.00000000000E+00  0.00000000000E+00  0.74505805969E-08  0.10566000000E+00  0.10566000000E+00 0. -1.
     999900   -1    0    0    0    0 -0.00000000000E+00 -0.00000000000E+00 -0.74505805969E-08  0.93827000000E+00  0.93827000000E+00 0. -1.
     999902    2    1    2    0    0  0.27508282304E-02 -0.90392424930E-02  0.21332573915E-01  0.10205986119E+01  0.10203318935E+01 0.  0.
     999903    2    3    3    0    0  0.60607228743E-01 -0.56518191345E-02  0.11695371206E+00  0.13352350810E+00  0.21099223146E-01 0.  0.
         14    1    1    2    0    0 -0.27508282304E-02  0.90392424930E-02 -0.21332573915E-01  0.23331388099E-01  0.00000000000E+00 0.  1.
     999901    1    3    3    0    0 -0.57856400513E-01 -0.33874233584E-02 -0.95621138140E-01  0.88707510380E+00  0.88000000000E+00 0.  1.
        -11    1    4    4    0    0  0.49539582340E-01 -0.62177506271E-02  0.10894161495E+00  0.11983892202E+00  0.51100000000E-03 0.  1.
         11    1    4    4    0    0  0.11067646403E-01  0.56593149257E-03  0.80120971070E-02  0.13684586088E-01  0.51100000000E-03 0. -1.
</event>
<event>
 8    1  0.1084146E+005  0.1043930E+01  0.7957747E-01            NaN
         13   -1    0    0    0    0  0.00000000000E+00  0.00000000000E+00  0.74505805969E-08  0.10566000000E+00  0.10566000000E+00 0. -1.
     999900   -1    0    0    0    0 -0.00000000000E+00 -0.00000000000E+00 -0.74505805969E-08  0.93827000000E+00  0.93827000000E+00 0. -1.
     999902    2    1    2    0    0  0.61667624791E-02 -0.17830164649E-01 -0.12825858612E-01  0.10211167061E+01  0.10208618325E+01 0.  0.
     999903    2    3    3    0    0 -0.46308094193E-01 -0.33222729439E-01 -0.11843851712E+00  0.13311638215E+00  0.21073668917E-01 0.  0.
         14    1    1    2    0    0 -0.61667624791E-02  0.17830164649E-01  0.12825858612E-01  0.22813293932E-01  0.00000000000E+00 0. -1.
     999901    1    3    3    0    0  0.52474856672E-01  0.15392564790E-01  0.10561265851E+00  0.88800032391E+00  0.88000000000E+00 0.  1.
        -11    1    4    4    0    0 -0.27512743901E-02  0.57105950217E-04 -0.22076409669E-01  0.22253129145E-01  0.51100000000E-03 0. -1.
         11    1    4    4    0    0 -0.43556819803E-01 -0.33279835389E-01 -0.96362107449E-01  0.11086325301E+00  0.51100000000E-03 0.  1.
</event>
<event>
 8    1  0.1084146E+005  0.1043930E+01  0.7957747E-01            NaN
         13   -1    0    0    0    0  0.00000000000E+00  0.00000000000E+00  0.74505805969E-08  0.10566000000E+00  0.10566000000E+00 0.  1.
     999900   -1    0    0    0    0 -0.00000000000E+00 -0.00000000000E+00 -0.74505805969E-08  0.93827000000E+00  0.93827000000E+00 0.  1.
     999902    2    1    2    0    0 -0.14213793676E-01  0.58514469963E-02 -0.18315512410E-01  0.10200191373E+01  0.10197388445E+01 0.  0.
     999903    2    3    3    0    0 -0.44958653103E-01  0.91140268164E-02 -0.12303319009E+00  0.13327132483E+00  0.22797679381E-01 0.  0.
         14    1    1    2    0    0  0.14213793676E-01 -0.58514469963E-02  0.18315512410E-01  0.23910862750E-01  0.00000000000E+00 0.  1.
     999901    1    3    3    0    0  0.30744859427E-01 -0.32625798201E-02  0.10471767768E+00  0.88674781242E+00  0.88000000000E+00 0. -1.
        -11    1    4    4    0    0 -0.34100436183E-01 -0.25044743220E-03 -0.10391216842E+00  0.10936591031E+00  0.51100000000E-03 0. -1.
         11    1    4    4    0    0 -0.10858216920E-01  0.93644742486E-02 -0.19121021669E-01  0.23905414518E-01  0.51100000000E-03 0.  1.
</event>
<event>
 8    1  0.1084146E+005  0.1043930E+01  0.7957747E-01            NaN
         13   -1    0    0    0    0  0.00000000000E+00  0.00000000000E+00  0.74505805969E-08  0.10566000000E+00  0.10566000000E+00 0.  1.
     999900   -1    0    0    0    0 -0.00000000000E+00 -0.00000000000E+00 -0.74505805969E-08  0.93827000000E+00  0.93827000000E+00 0. -1.
     999902    2    1    2    0    0 -0.19053877287E-02 -0.20445187810E-01 -0.47322097556E-02  0.10228579803E+01  0.10226409036E+01 0.  0.
     999903    2    3    3    0    0 -0.96595520961E-01  0.36062009932E-01  0.80368163955E-01  0.13190267367E+00  0.17553071334E-01 0.  0.
         14    1    1    2    0    0  0.19053877287E-02  0.20445187810E-01  0.47322097556E-02  0.21072019746E-01  0.00000000000E+00 0.  1.
     999901    1    3    3    0    0  0.94690133232E-01 -0.56507197742E-01 -0.85100373711E-01  0.89095530659E+00  0.88000000000E+00 0. -1.
        -11    1    4    4    0    0 -0.58301990143E-01  0.17958200698E-01  0.37367917525E-01  0.71541885691E-01  0.51100000000E-03 0.  1.
         11    1    4    4    0    0 -0.38293530818E-01  0.18103809233E-01  0.43000246430E-01  0.60360787978E-01  0.51100000000E-03 0. -1.
</event>
<event>
 8    1  0.1084146E+005  0.1043930E+01  0.7957747E-01            NaN
         13   -1    0    0    0    0  0.00000000000E+00  0.00000000000E+00  0.74505805969E-08  0.10566000000E+00  0.10566000000E+00 0.  1.
     999900   -1    0    0    0    0 -0.00000000000E+00 -0.00000000000E+00 -0.74505805969E-08  0.93827000000E+00  0.93827000000E+00 0.  1.
     999902    2    1    2    0    0 -0.47386058226E-02  0.15546131780E-03  0.23366486329E-01  0.10200873651E+01  0.10198086886E+01 0.  0.
     999903    2    3    3    0    0  0.11896848136E+00  0.32653697853E-01 -0.32387053345E-01  0.12909464016E+00  0.19918367196E-01 0.  0.
         14    1    1    2    0    0  0.47386058226E-02 -0.15546131780E-03 -0.23366486329E-01  0.23842634853E-01  0.00000000000E+00 0. -1.
     999901    1    3    3    0    0 -0.12370708719E+00 -0.32498236535E-01  0.55753539673E-01  0.89099272499E+00  0.88000000000E+00 0. -1.
        -11    1    4    4    0    0  0.40214616616E-01  0.20242295718E-01 -0.15329740947E-01  0.47562884732E-01  0.51100000000E-03 0.  1.
         11    1    4    4    0    0  0.78753864747E-01  0.12411402135E-01 -0.17057312398E-01  0.81531755426E-01  0.51100000000E-03 0. -1.
</event>
<event>
 8    1  0.1084146E+005  0.1043930E+01  0.7957747E-01            NaN
         13   -1    0    0    0    0  0.00000000000E+00  0.00000000000E+00  0.74505805969E-08  0.10566000000E+00  0.10566000000E+00 0. -1.
     999900   -1    0    0    0    0 -0.00000000000E+00 -0.00000000000E+00 -0.74505805969E-08  0.93827000000E+00  0.93827000000E+00 0. -1.
     999902    2    1    2    0    0  0.16759996493E-01 -0.10623048546E-01 -0.11766439304E-01  0.10208606321E+01  0.10205999385E+01 0.  0.
     999903    2    3    3    0    0 -0.16976536704E-02  0.11848266591E-01  0.12732891814E+00  0.12946107894E+00  0.20106071642E-01 0.  0.
         14    1    1    2    0    0 -0.16759996493E-01  0.10623048546E-01  0.11766439304E-01  0.23069367931E-01  0.00000000000E+00 0. -1.
     999901    1    3    3    0    0  0.18457650163E-01 -0.22471315137E-01 -0.13909535744E+00  0.89139955313E+00  0.88000000000E+00 0. -1.
        -11    1    4    4    0    0 -0.99236991669E-03  0.42384669081E-02  0.41234558597E-02  0.60177578058E-02  0.51100000000E-03 0. -1.
         11    1    4    4    0    0 -0.70528375369E-03  0.76097996829E-02  0.12320546228E+00  0.12344332114E+00  0.51100000000E-03 0.  1.
</event>
<event>
 8    1  0.1084146E+005  0.1043930E+01  0.7957747E-01            NaN
         13   -1    0    0    0    0  0.00000000000E+00  0.00000000000E+00  0.74505805969E-08  0.10566000000E+00  0.10566000000E+00 0. -1.
     999900   -1    0    0    0    0 -0.00000000000E+00 -0.00000000000E+00 -0.74505805969E-08  0.93827000000E+00  0.93827000000E+00 0.  1.
     999902    2    1    2    0    0 -0.17834514541E-01  0.88584849607E-02 -0.18285717277E-01  0.10168946505E+01  0.10165352036E+01 0.  0.
     999903    2    3    3    0    0  0.57973732219E-01  0.47792290676E-01  0.98131236057E-01  0.12514600964E+00  0.19665389978E-01 0.  0.
         14    1    1    2    0    0  0.17834514541E-01 -0.88584849607E-02  0.18285717277E-01  0.27035349472E-01  0.00000000000E+00 0. -1.
     999901    1    3    3    0    0 -0.75808246760E-01 -0.38933805715E-01 -0.11641695333E+00  0.89174864089E+00  0.88000000000E+00 0.  1.
        -11    1    4    4    0    0  0.19146275269E-01  0.19074627835E-01  0.50687865463E-01  0.57445122594E-01  0.51100000000E-03 0. -1.
         11    1    4    4    0    0  0.38827456950E-01  0.28717662841E-01  0.47443370594E-01  0.67700887044E-01  0.51100000000E-03 0.  1.
</event>
<event>
 8    1  0.1084146E+005  0.1043930E+01  0.7957747E-01            NaN
         13   -1    0    0    0    0  0.00000000000E+00  0.00000000000E+00  0.74505805969E-08  0.10566000000E+00  0.10566000000E+00 0.  1.
     999900   -1    0    0    0    0 -0.00000000000E+00 -0.00000000000E+00 -0.74505805969E-08  0.93827000000E+00  0.93827000000E+00 0.  1.
     999902    2    1    2    0    0 -0.93347583113E-02 -0.21208636881E-01  0.81303475959E-02  0.10193729940E+01  0.10190771582E+01 0.  0.
     999903    2    3    3    0    0 -0.20389782704E-01 -0.86914108610E-01  0.96012443102E-01  0.13248930080E+00  0.19110732094E-01 0.  0.
         14    1    1    2    0    0  0.93347583113E-02  0.21208636881E-01 -0.81303475959E-02  0.24557005988E-01  0.00000000000E+00 0. -1.
     999901    1    3    3    0    0  0.11055024393E-01  0.65705471729E-01 -0.87882095506E-01  0.88688369321E+00  0.88000000000E+00 0.  1.
        -11    1    4    4    0    0 -0.24061216436E-01 -0.73608196082E-01  0.80024818445E-01  0.11136130996E+00  0.51100000000E-03 0.  1.
         11    1    4    4    0    0  0.36714337316E-02 -0.13305912528E-01  0.15987624657E-01  0.21127990842E-01  0.51100000000E-03 0. -1.
</event>
<event>
 8    1  0.1131346E+005  0.1043930E+01  0.7957747E-01            NaN
         13   -1    0    0    0    0  0.00000000000E+00  0.00000000000E+00  0.74505805969E-08  0.10566000000E+00  0.10566000000E+00 0.  1.
     999900   -1    0    0    0    0 -0.00000000000E+00 -0.00000000000E+00 -0.74505805969E-08  0.93827000000E+00  0.93827000000E+00 0. -1.
     999902    2    1    2    0    0 -0.15280072075E-01  0.12414985306E-01 -0.12729822043E-01  0.10204851534E+01  0.10202158044E+01 0.  0.
     999903    2    3    3    0    0 -0.86562897924E-02 -0.11524230617E+00 -0.55980248840E-01  0.13019820080E+00  0.21495644815E-01 0.  0.
         14    1    1    2    0    0  0.15280072075E-01 -0.12414985306E-01  0.12729822043E-01  0.23444846598E-01  0.00000000000E+00 0.  1.
     999901    1    3    3    0    0 -0.66237822825E-02  0.12765729148E+00  0.43250426797E-01  0.89028695260E+00  0.88000000000E+00 0. -1.
        -11    1    4    4    0    0  0.45197647068E-02 -0.74139778017E-01 -0.38033251395E-01  0.83450130558E-01  0.51100000000E-03 0.  1.
         11    1    4    4    0    0 -0.13176054499E-01 -0.41102528155E-01 -0.17946997445E-01  0.46748070240E-01  0.51100000000E-03 0. -1.
</event>
<event>
 8    1  0.1084146E+005  0.1043930E+01  0.7957747E-01            NaN
         13   -1    0    0    0    0  0.00000000000E+00  0.00000000000E+00  0.74505805969E-08  0.10566000000E+00  0.10566000000E+00 0. -1.
     999900   -1    0    0    0    0 -0.00000000000E+00 -0.00000000000E+00 -0.74505805969E-08  0.93827000000E+00  0.93827000000E+00 0.  1.
     999902    2    1    2    0    0 -0.12270161103E-01 -0.16975143613E-01  0.10395153062E-01  0.10205468530E+01  0.10202789362E+01 0.  0.
     999903    2    3    3    0    0 -0.37069307583E-01 -0.93271686739E-01  0.86154337426E-01  0.13365587092E+00  0.19172398475E-01 0.  0.
         14    1    1    2    0    0  0.12270161103E-01  0.16975143613E-01 -0.10395153062E-01  0.23383146952E-01  0.00000000000E+00 0. -1.
     999901    1    3    3    0    0  0.24799146480E-01  0.76296543125E-01 -0.75759184364E-01  0.88689098212E+00  0.88000000000E+00 0. -1.
        -11    1    4    4    0    0 -0.26981269031E-01 -0.78490436368E-01  0.78303741478E-01  0.11410729394E+00  0.51100000000E-03 0.  1.
         11    1    4    4    0    0 -0.10088038553E-01 -0.14781250371E-01  0.78505959475E-02  0.19548576984E-01  0.51100000000E-03 0. -1.
</event>
<event>
 8    1  0.1084146E+005  0.1043930E+01  0.7957747E-01            NaN
         13   -1    0    0    0    0  0.00000000000E+00  0.00000000000E+00  0.74505805969E-08  0.10566000000E+00  0.10566000000E+00 0. -1.
     999900   -1    0    0    0    0 -0.00000000000E+00 -0.00000000000E+00 -0.74505805969E-08  0.93827000000E+00  0.93827000000E+00 0.  1.
     999902    2    1    2    0    0  0.14501367064E-01 -0.80535146924E-02  0.17093337236E-01  0.10201112905E+01  0.10198331795E+01 0.  0.
     999903    2    3    3    0    0  0.50486311164E-01  0.75097317089E-01  0.94021682372E-01  0.13212089226E+00  0.20673141215E-01 0.  0.
         14    1    1    2    0    0 -0.14501367064E-01  0.80535146924E-02 -0.17093337236E-01  0.23818709526E-01  0.00000000000E+00 0.  1.
     999901    1    3    3    0    0 -0.35984944100E-01 -0.83150831781E-01 -0.76928345136E-01  0.88799039821E+00  0.88000000000E+00 0. -1.
        -11    1    4    4    0    0  0.45350200350E-01  0.55239593912E-01  0.65211819435E-01  0.96751723098E-01  0.51100000000E-03 0. -1.
         11    1    4    4    0    0  0.51361108137E-02  0.19857723177E-01  0.28809862937E-01  0.35369169166E-01  0.51100000000E-03 0.  1.
</event>
<event>
 8    1  0.1084146E+005  0.1043930E+01  0.7957747E-01            NaN
         13   -1    0    0    0    0  0.00000000000E+00  0.00000000000E+00  0.74505805969E-08  0.10566000000E+00  0.10566000000E+00 0.  1.
     999900   -1    0    0    0    0 -0.00000000000E+00 -0.00000000000E+00 -0.74505805969E-08  0.93827000000E+00  0.93827000000E+00 0.  1.
     999902    2    1    2    0    0  0.25117350745E-02 -0.17401421684E-01 -0.13817860821E-01  0.10215681672E+01  0.10213233908E+01 0.  0.
     999903    2    3    3    0    0  0.86458022206E-01  0.44841754686E-01  0.83859718378E-01  0.13001777510E+00  0.19656981162E-01 0.  0.
         14    1    1    2    0    0 -0.25117350745E-02  0.17401421684E-01  0.13817860821E-01  0.22361832827E-01  0.00000000000E+00 0.  1.
     999901    1    3    3    0    0 -0.83946287131E-01 -0.62243176370E-01 -0.97677579199E-01  0.89155039207E+00  0.88000000000E+00 0.  1.
        -11    1    4    4    0    0  0.53073090704E-01  0.16569106136E-01  0.46221018223E-01  0.72304438879E-01  0.51100000000E-03 0.  1.
         11    1    4    4    0    0  0.33384931502E-01  0.28272648549E-01  0.37638700155E-01  0.57713336221E-01  0.51100000000E-03 0. -1.
</event>
<event>
 8    1  0.1084146E+005  0.1043930E+01  0.7957747E-01            NaN
         13   -1    0    0    0    0  0.00000000000E+00  0.00000000000E+00  0.74505805969E-08  0.10566000000E+00  0.10566000000E+00 0.  1.
     999900   -1    0    0    0    0 -0.00000000000E+00 -0.00000000000E+00 -0.74505805969E-08  0.93827000000E+00  0.93827000000E+00 0.  1.
     999902    2    1    2    0    0 -0.70534378971E-04  0.83716344969E-02 -0.23953381385E-01  0.10185557272E+01  0.10182396161E+01 0.  0.
     999903    2    3    3    0    0 -0.37858668342E-02  0.94178930740E-01  0.84138854133E-01  0.12779165792E+00  0.19166566609E-01 0.  0.
         14    1    1    2    0    0  0.70534378971E-04 -0.83716344969E-02  0.23953381385E-01  0.25374272778E-01  0.00000000000E+00 0.  1.
     999901    1    3    3    0    0  0.37153324552E-02 -0.85807296243E-01 -0.10809223552E+00  0.89076406930E+00  0.88000000000E+00 0.  1.
        -11    1    4    4    0    0 -0.45323692744E-03  0.14518141429E-01  0.47876227707E-02  0.15302428142E-01  0.51100000000E-03 0.  1.
         11    1    4    4    0    0 -0.33326299067E-02  0.79660789311E-01  0.79351231362E-01  0.11248922978E+00  0.51100000000E-03 0. -1.
</event>
<event>
 8    1  0.1084146E+005  0.1043930E+01  0.7957747E-01            NaN
         13   -1    0    0    0    0  0.00000000000E+00  0.00000000000E+00  0.74505805969E-08  0.10566000000E+00  0.10566000000E+00 0. -1.
     999900   -1    0    0    0    0 -0.00000000000E+00 -0.00000000000E+00 -0.74505805969E-08  0.93827000000E+00  0.93827000000E+00 0.  1.
     999902    2    1    2    0    0  0.21214570872E-01 -0.44588549976E-02  0.88102704044E-02  0.10205299942E+01  0.10202616865E+01 0.  0.
     999903    2    3    3    0    0  0.59468152525E-01  0.58663018089E-01 -0.98778702736E-01  0.13091035950E+00  0.20061885591E-01 0.  0.
         14    1    1    2    0    0 -0.21214570872E-01  0.44588549976E-02 -0.88102704044E-02  0.23400005764E-01  0.00000000000E+00 0.  1.
     999901    1    3    3    0    0 -0.38253581653E-01 -0.63121873086E-01  0.10758897314E+00  0.88961963474E+00  0.88000000000E+00 0. -1.
        -11    1    4    4    0    0  0.32954510306E-01  0.18608422906E-01 -0.45012225452E-01  0.58810158253E-01  0.51100000000E-03 0. -1.
         11    1    4    4    0    0  0.26513642218E-01  0.40054595183E-01 -0.53766477284E-01  0.72100201244E-01  0.51100000000E-03 0.  1.
</event>
<event>
 8    1  0.1084146E+005  0.1043930E+01  0.7957747E-01            NaN
         13   -1    0    0    0    0  0.00000000000E+00  0.00000000000E+00  0.74505805969E-08  0.10566000000E+00  0.10566000000E+00 0. -1.
     999900   -1    0    0    0    0 -0.00000000000E+00 -0.00000000000E+00 -0.74505805969E-08  0.93827000000E+00  0.93827000000E+00 0. -1.
     999902    2    1    2    0    0  0.12665221319E-01 -0.13467996823E-01 -0.14599551067E-01  0.10203728002E+01  0.10201008332E+01 0.  0.
     999903    2    3    3    0    0  0.35828967176E-01 -0.92750196499E-01 -0.86940985696E-01  0.13354953178E+00  0.19759266313E-01 0.  0.
         14    1    1    2    0    0 -0.12665221319E-01  0.13467996823E-01  0.14599551067E-01  0.23557199766E-01  0.00000000000E+00 0. -1.
     999901    1    3    3    0    0 -0.23163745858E-01  0.79282199676E-01  0.72341434629E-01  0.88682326845E+00  0.88000000000E+00 0.  1.
        -11    1    4    4    0    0  0.28003807516E-01 -0.76194418230E-01 -0.79958572789E-01  0.11394488619E+00  0.51100000000E-03 0. -1.
         11    1    4    4    0    0  0.78251596598E-02 -0.16555778269E-01 -0.69824129076E-02  0.19604645592E-01  0.51100000000E-03 0.  1.
</event>
<event>
 8    1  0.1084146E+005  0.1043930E+01  0.7957747E-01            NaN
         13   -1    0    0    0    0  0.00000000000E+00  0.00000000000E+00  0.74505805969E-08  0.10566000000E+00  0.10566000000E+00 0.  1.
     999900   -1    0    0    0    0 -0.00000000000E+00 -0.00000000000E+00 -0.74505805969E-08  0.93827000000E+00  0.93827000000E+00 0. -1.
     999902    2    1    2    0    0 -0.41028560603E-02 -0.65307533700E-02 -0.23150254274E-01  0.10195288025E+01  0.10192367540E+01 0.  0.
     999903    2    3    3    0    0  0.33461501809E-01 -0.10625176993E+00 -0.67965175681E-01  0.13196824719E+00  0.19678476666E-01 0.  0.
         14    1    1    2    0    0  0.41028560603E-02  0.65307533700E-02  0.23150254274E-01  0.24401197519E-01  0.00000000000E+00 0.  1.
     999901    1    3    3    0    0 -0.37564357869E-01  0.99721016563E-01  0.44814921407E-01  0.88756055529E+00  0.88000000000E+00 0.  1.
        -11    1    4    4    0    0  0.15296367016E-01 -0.73189546203E-01 -0.51574469285E-01  0.90834330076E-01  0.51100000000E-03 0. -1.
         11    1    4    4    0    0  0.18165134793E-01 -0.33062223730E-01 -0.16390706396E-01  0.41133917115E-01  0.51100000000E-03 0.  1.
</event>
<event>
 8    1  0.1084146E+005  0.1043930E+01  0.7957747E-01            NaN
         13   -1    0    0    0    0  0.00000000000E+00  0.00000000000E+00  0.74505805969E-08  0.10566000000E+00  0.10566000000E+00 0. -1.
     999900   -1    0    0    0    0 -0.00000000000E+00 -0.00000000000E+00 -0.74505805969E-08  0.93827000000E+00  0.93827000000E+00 0.  1.
     999902    2    1    2    0    0  0.11955077717E-01  0.14927732001E-01 -0.11805759019E-01  0.10214547467E+01  0.10212074532E+01 0.  0.
     999903    2    3    3    0    0 -0.48605968851E-01 -0.69633382824E-01  0.94843040209E-01  0.12893461308E+00  0.20434871230E-01 0.  0.
         14    1    1    2    0    0 -0.11955077717E-01 -0.14927732001E-01  0.11805759019E-01  0.22475253323E-01  0.00000000000E+00 0. -1.
     999901    1    3    3    0    0  0.60561046568E-01  0.84561114825E-01 -0.10664879923E+00  0.89252013360E+00  0.88000000000E+00 0.  1.
        -11    1    4    4    0    0 -0.14863550607E-01 -0.31874417849E-01  0.27350542895E-01  0.44555773672E-01  0.51100000000E-03 0.  1.
         11    1    4    4    0    0 -0.33742418244E-01 -0.37758964975E-01  0.67492497313E-01  0.84378839406E-01  0.51100000000E-03 0. -1.
</event>
<event>
 8    1  0.1084146E+005  0.1043930E+01  0.7957747E-01            NaN
         13   -1    0    0    0    0  0.00000000000E+00  0.00000000000E+00  0.74505805969E-08  0.10566000000E+00  0.10566000000E+00 0. -1.
     999900   -1    0    0    0    0 -0.00000000000E+00 -0.00000000000E+00 -0.74505805969E-08  0.93827000000E+00  0.93827000000E+00 0. -1.
     999902    2    1    2    0    0  0.49630836270E-02 -0.18000109422E-01 -0.14723526184E-01  0.10201514727E+01  0.10198743103E+01 0.  0.
     999903    2    3    3    0    0 -0.14197562474E-01 -0.98724645402E-01  0.82792015602E-01  0.13088612310E+00  0.18125478843E-01 0.  0.
         14    1    1    2    0    0 -0.49630836270E-02  0.18000109422E-01  0.14723526184E-01  0.23778527321E-01  0.00000000000E+00 0. -1.
     999901    1    3    3    0    0  0.19160646101E-01  0.80724535980E-01 -0.97515541786E-01  0.88926534958E+00  0.88000000000E+00 0. -1.
        -11    1    4    4    0    0 -0.73693614433E-02 -0.11938952772E-01  0.15027696846E-01  0.20565477745E-01  0.51100000000E-03 0. -1.
         11    1    4    4    0    0 -0.68282010311E-02 -0.86785692630E-01  0.67764318756E-01  0.11032064536E+00  0.51100000000E-03 0.  1.
</event>
<event>
 8    1  0.1084146E+005  0.1043930E+01  0.7957747E-01            NaN
         13   -1    0    0    0    0  0.00000000000E+00  0.00000000000E+00  0.74505805969E-08  0.10566000000E+00  0.10566000000E+00 0. -1.
     999900   -1    0    0    0    0 -0.00000000000E+00 -0.00000000000E+00 -0.74505805969E-08  0.93827000000E+00  0.93827000000E+00 0.  1.
     999902    2    1    2    0    0  0.93362688672E-02  0.47214482508E-02  0.20167602373E-01  0.10212101810E+01  0.10209574152E+01 0.  0.
     999903    2    3    3    0    0  0.63123521832E-01  0.91745409766E-01 -0.62861050606E-01  0.13140121517E+00  0.30215367659E-01 0.  0.
         14    1    1    2    0    0 -0.93362688672E-02 -0.47214482508E-02 -0.20167602373E-01  0.22719819000E-01  0.00000000000E+00 0.  1.
     999901    1    3    3    0    0 -0.53787252965E-01 -0.87023961515E-01  0.83028652979E-01  0.88980896583E+00  0.88000000000E+00 0. -1.
        -11    1    4    4    0    0  0.19225415769E-01  0.43080983043E-01 -0.40418668735E-01  0.62125016014E-01  0.51100000000E-03 0.  1.
         11    1    4    4    0    0  0.43898106062E-01  0.48664426723E-01 -0.22442381871E-01  0.69276199154E-01  0.51100000000E-03 0. -1.
</event>
<event>
 8    1  0.1084146E+005  0.1043930E+01  0.7957747E-01            NaN
         13   -1    0    0    0    0  0.00000000000E+00  0.00000000000E+00  0.74505805969E-08  0.10566000000E+00  0.10566000000E+00 0. -1.
     999900   -1    0    0    0    0 -0.00000000000E+00 -0.00000000000E+00 -0.74505805969E-08  0.93827000000E+00  0.93827000000E+00 0. -1.
     999902    2    1    2    0    0 -0.95465676418E-02 -0.54927398826E-03 -0.21857478434E-01  0.10200723384E+01  0.10197933062E+01 0.  0.
     999903    2    3    3    0    0  0.42820840147E-01  0.12097956950E+00 -0.48982533189E-02  0.13001659824E+00  0.20264312092E-01 0.  0.
         14    1    1    2    0    0  0.95465676418E-02  0.54927398826E-03  0.21857478434E-01  0.23857661644E-01  0.00000000000E+00 0. -1.
     999901    1    3    3    0    0 -0.52367407788E-01 -0.12152884349E+00 -0.16959225115E-01  0.89005574012E+00  0.88000000000E+00 0.  1.
        -11    1    4    4    0    0  0.10034342999E-01  0.35613813415E-01  0.74298684590E-02  0.37742493448E-01  0.51100000000E-03 0. -1.
         11    1    4    4    0    0  0.32786497148E-01  0.85365756086E-01 -0.12328121778E-01  0.92274104791E-01  0.51100000000E-03 0.  1.
</event>
<event>
 8    1  0.1084146E+005  0.1043930E+01  0.7957747E-01            NaN
         13   -1    0    0    0    0  0.00000000000E+00  0.00000000000E+00  0.74505805969E-08  0.10566000000E+00  0.10566000000E+00 0. -1.
     999900   -1    0    0    0    0 -0.00000000000E+00 -0.00000000000E+00 -0.74505805969E-08  0.93827000000E+00  0.93827000000E+00 0. -1.
     999902    2    1    2    0    0 -0.70188598545E-02  0.42294516588E-02  0.19700784005E-01  0.10225928600E+01  0.10223702283E+01 0.  0.
     999903    2    3    3    0    0  0.89889304514E-01  0.84065119095E-01 -0.41951700169E-01  0.13154518731E+00  0.19928869585E-01 0.  0.
         14    1    1    2    0    0  0.70188598545E-02 -0.42294516588E-02 -0.19700784005E-01  0.21337140048E-01  0.00000000000E+00 0.  1.
     999901    1    3    3    0    0 -0.96908164368E-01 -0.79835667436E-01  0.61652484174E-01  0.89104767264E+00  0.88000000000E+00 0. -1.
        -11    1    4    4    0    0  0.58388075073E-01  0.51750624263E-01 -0.36326383850E-01  0.86064869180E-01  0.51100000000E-03 0.  1.
         11    1    4    4    0    0  0.31501229440E-01  0.32314494832E-01 -0.56253163190E-02  0.45480318130E-01  0.51100000000E-03 0. -1.
</event>
<event>
 8    1  0.1084146E+005  0.1043930E+01  0.7957747E-01            NaN
         13   -1    0    0    0    0  0.00000000000E+00  0.00000000000E+00  0.74505805969E-08  0.10566000000E+00  0.10566000000E+00 0. -1.
     999900   -1    0    0    0    0 -0.00000000000E+00 -0.00000000000E+00 -0.74505805969E-08  0.93827000000E+00  0.93827000000E+00 0.  1.
     999902    2    1    2    0    0 -0.23829514179E-01 -0.86740890717E-02  0.25777478223E-02  0.10184401912E+01  0.10181211582E+01 0.  0.
     999903    2    3    3    0    0  0.41220191248E-01  0.11606875817E+00 -0.22220190923E-01  0.12692060094E+00  0.21072286746E-01 0.  0.
         14    1    1    2    0    0  0.23829514179E-01  0.86740890717E-02 -0.25777478223E-02  0.25489808769E-01  0.00000000000E+00 0.  1.
     999901    1    3    3    0    0 -0.65049705427E-01 -0.12474284724E+00  0.24797938745E-01  0.89151959029E+00  0.88000000000E+00 0.  1.
        -11    1    4    4    0    0 -0.67193783873E-03  0.99975336026E-02 -0.60993786805E-02  0.11741623392E-01  0.51100000000E-03 0. -1.
         11    1    4    4    0    0  0.41892129087E-01  0.10607122456E+00 -0.16120812243E-01  0.11517897754E+00  0.51100000000E-03 0.  1.
</event>
<event>
 8    1  0.1084146E+005  0.1043930E+01  0.7957747E-01            NaN
         13   -1    0    0    0    0  0.00000000000E+00  0.00000000000E+00  0.74505805969E-08  0.10566000000E+00  0.10566000000E+00 0. -1.
     999900   -1    0    0    0    0 -0.00000000000E+00 -0.00000000000E+00 -0.74505805969E-08  0.93827000000E+00  0.93827000000E+00 0.  1.
     999902    2    1    2    0    0  0.12099261232E-01 -0.79974544119E-02 -0.11026387446E-02  0.10293846498E+01  0.10292818808E+01 0.  0.
     999903    2    3    3    0    0 -0.81841085569E-01 -0.10879660627E+00 -0.18058044978E-01  0.13850152417E+00  0.17941972766E-01 0.  0.
         14    1    1    2    0    0 -0.12099261232E-01  0.79974544119E-02  0.11026387446E-02  0.14545350172E-01  0.00000000000E+00 0. -1.
     999901    1    3    3    0    0  0.93940346801E-01  0.10079915186E+00  0.16955406233E-01  0.89088312565E+00  0.88000000000E+00 0. -1.
        -11    1    4    4    0    0 -0.69933874289E-01 -0.80854021073E-01 -0.12715201718E-01  0.10765712690E+00  0.51100000000E-03 0.  1.
         11    1    4    4    0    0 -0.11907211280E-01 -0.27942585200E-01 -0.53428432601E-02  0.30844397274E-01  0.51100000000E-03 0. -1.
</event>
<event>
 8    1  0.1084146E+005  0.1043930E+01  0.7957747E-01            NaN
         13   -1    0    0    0    0  0.00000000000E+00  0.00000000000E+00  0.74505805969E-08  0.10566000000E+00  0.10566000000E+00 0. -1.
     999900   -1    0    0    0    0 -0.00000000000E+00 -0.00000000000E+00 -0.74505805969E-08  0.93827000000E+00  0.93827000000E+00 0. -1.
     999902    2    1    2    0    0 -0.48015286449E-02  0.15554351631E-01 -0.17432470160E-01  0.10200787202E+01  0.10197998391E+01 0.  0.
     999903    2    3    3    0    0  0.97015751447E-01 -0.55631816869E-01  0.59349762634E-01  0.12804187097E+00  0.19114688620E-01 0.  0.
         14    1    1    2    0    0  0.48015286449E-02 -0.15554351631E-01  0.17432470160E-01  0.23851279795E-01  0.00000000000E+00 0. -1.
     999901    1    3    3    0    0 -0.10181728009E+00  0.71186168500E-01 -0.76782232793E-01  0.89203684923E+00  0.88000000000E+00 0.  1.
        -11    1    4    4    0    0  0.29736408070E-01 -0.18776883683E-01  0.28836120299E-01  0.45481955550E-01  0.51100000000E-03 0.  1.
         11    1    4    4    0    0  0.67279343378E-01 -0.36854933186E-01  0.30513642335E-01  0.82559915425E-01  0.51100000000E-03 0. -1.
</event>
<event>
 8    1  0.1084146E+005  0.1043930E+01  0.7957747E-01            NaN
         13   -1    0    0    0    0  0.00000000000E+00  0.00000000000E+00  0.74505805969E-08  0.10566000000E+00  0.10566000000E+00 0.  1.
     999900   -1    0    0    0    0 -0.00000000000E+00 -0.00000000000E+00 -0.74505805969E-08  0.93827000000E+00  0.93827000000E+00 0.  1.
     999902    2    1    2    0    0  0.19120294197E-02  0.48916516822E-03  0.23429437804E-01  0.10204175842E+01  0.10201466623E+01 0.  0.
     999903    2    3    3    0    0 -0.93627068074E-01 -0.78504633466E-01  0.44588400886E-01  0.13147695569E+00  0.19210909179E-01 0.  0.
         14    1    1    2    0    0 -0.19120294197E-02 -0.48916516822E-03 -0.23429437804E-01  0.23512415761E-01  0.00000000000E+00 0. -1.
     999901    1    3    3    0    0  0.95539097494E-01  0.78993798634E-01 -0.21158963081E-01  0.88894062855E+00  0.88000000000E+00 0. -1.
        -11    1    4    4    0    0 -0.63763912597E-01 -0.64330230273E-01  0.34253429791E-01  0.96838905664E-01  0.51100000000E-03 0. -1.
         11    1    4    4    0    0 -0.29863155477E-01 -0.14174403193E-01  0.10334971095E-01  0.34638050023E-01  0.51100000000E-03 0.  1.
</event>
<event>
 8    1  0.1084146E+005  0.1043930E+01  0.7957747E-01            NaN
         13   -1    0    0    0    0  0.00000000000E+00  0.00000000000E+00  0.74505805969E-08  0.10566000000E+00  0.10566000000E+00 0.  1.
     999900   -1    0    0    0    0 -0.00000000000E+00 -0.00000000000E+00 -0.74505805969E-08  0.93827000000E+00  0.93827000000E+00 0. -1.
     999902    2    1    2    0    0  0.18889949894E-01  0.76195337165E-02 -0.11930807804E-01  0.10203242449E+01  0.10200511423E+01 0.  0.
     999903    2    3    3    0    0  0.11775601291E+00  0.36993266219E-01 -0.47035007279E-01  0.13360578931E+00  0.20080704827E-01 0.  0.
         14    1    1    2    0    0 -0.18889949894E-01 -0.76195337165E-02  0.11930807804E-01  0.23605755144E-01  0.00000000000E+00 0.  1.
     999901    1    3    3    0    0 -0.98866063017E-01 -0.29373732503E-01  0.35104199475E-01  0.88671845554E+00  0.88000000000E+00 0. -1.
        -11    1    4    4    0    0  0.68533104679E-01  0.13561301764E-01 -0.19529177689E-01  0.72542023991E-01  0.51100000000E-03 0.  1.
         11    1    4    4    0    0  0.49222908232E-01  0.23431964456E-01 -0.27505829591E-01  0.61063765324E-01  0.51100000000E-03 0. -1.
</event>
<event>
 8    1  0.1084146E+005  0.1043930E+01  0.7957747E-01            NaN
         13   -1    0    0    0    0  0.00000000000E+00  0.00000000000E+00  0.74505805969E-08  0.10566000000E+00  0.10566000000E+00 0.  1.
     999900   -1    0    0    0    0 -0.00000000000E+00 -0.00000000000E+00 -0.74505805969E-08  0.93827000000E+00  0.93827000000E+00 0.  1.
     999902    2    1    2    0    0  0.19419258161E-02  0.18841402397E-01 -0.14408716934E-01  0.10201312470E+01  0.10198536074E+01 0.  0.
     999903    2    3    3    0    0  0.62265447660E-01 -0.15186169041E-03 -0.11491394222E+00  0.13215547500E+00  0.19566461649E-01 0.  0.
         14    1    1    2    0    0 -0.19419258161E-02 -0.18841402397E-01  0.14408716934E-01  0.23798752989E-01  0.00000000000E+00 0.  1.
     999901    1    3    3    0    0 -0.60323521844E-01  0.18993264087E-01  0.10050522529E+00  0.88797577201E+00  0.88000000000E+00 0. -1.
        -11    1    4    4    0    0  0.15434999381E-01 -0.60827050537E-02 -0.43398224481E-01  0.46464023887E-01  0.51100000000E-03 0. -1.
         11    1    4    4    0    0  0.46830448279E-01  0.59308433633E-02 -0.71515717740E-01  0.85691451113E-01  0.51100000000E-03 0.  1.
</event>
<event>
 8    1  0.1084146E+005  0.1043930E+01  0.7957747E-01            NaN
         13   -1    0    0    0    0  0.00000000000E+00  0.00000000000E+00  0.74505805969E-08  0.10566000000E+00  0.10566000000E+00 0.  1.
     999900   -1    0    0    0    0 -0.00000000000E+00 -0.00000000000E+00 -0.74505805969E-08  0.93827000000E+00  0.93827000000E+00 0. -1.
     999902    2    1    2    0    0 -0.74873808477E-02 -0.25058034078E-01  0.25635727564E-01  0.10073081968E+01  0.10066422636E+01 0.  0.
     999903    2    3    3    0    0  0.10871958586E+00 -0.40354600104E-01 -0.15006585970E-01  0.11860698619E+00  0.19848865259E-01 0.  0.
         14    1    1    2    0    0  0.74873808477E-02  0.25058034078E-01 -0.25635727564E-01  0.36621803226E-01  0.00000000000E+00 0. -1.
     999901    1    3    3    0    0 -0.11620696671E+00  0.15296566025E-01  0.40642313534E-01  0.88870121058E+00  0.88000000000E+00 0.  1.
        -11    1    4    4    0    0  0.10209552256E+00 -0.41182896062E-01 -0.10616005216E-01  0.11060057568E+00  0.51100000000E-03 0.  1.
         11    1    4    4    0    0  0.66240633018E-02  0.82829595887E-03 -0.43905807544E-02  0.80064105055E-02  0.51100000000E-03 0. -1.
</event>
<event>
 8    1  0.1084146E+005  0.1043930E+01  0.7957747E-01            NaN
         13   -1    0    0    0    0  0.00000000000E+00  0.00000000000E+00  0.74505805969E-08  0.10566000000E+00  0.10566000000E+00 0.  1.
     999900   -1    0    0    0    0 -0.00000000000E+00 -0.00000000000E+00 -0.74505805969E-08  0.93827000000E+00  0.93827000000E+00 0.  1.
     999902    2    1    2    0    0  0.19965757776E-01  0.59288328293E-02 -0.28778637208E-02  0.10229046667E+01  0.10226885608E+01 0.  0.
     999903    2    3    3    0    0  0.41378630803E-01  0.12203486698E+00 -0.32433735639E-01  0.13452824202E+00  0.21004781566E-01 0.  0.
         14    1    1    2    0    0 -0.19965757776E-01 -0.59288328293E-02  0.28778637208E-02  0.21025333336E-01  0.00000000000E+00 0. -1.
     999901    1    3    3    0    0 -0.21412873027E-01 -0.11610603415E+00  0.29555871918E-01  0.88837642464E+00  0.88000000000E+00 0.  1.
        -11    1    4    4    0    0  0.17259779304E-01  0.43049090919E-01 -0.21827282453E-01  0.51262223819E-01  0.51100000000E-03 0. -1.
         11    1    4    4    0    0  0.24118851500E-01  0.78985776057E-01 -0.10606453186E-01  0.83266018202E-01  0.51100000000E-03 0.  1.
</event>
<event>
 8    1  0.1084146E+005  0.1043930E+01  0.7957747E-01            NaN
         13   -1    0    0    0    0  0.00000000000E+00  0.00000000000E+00  0.74505805969E-08  0.10566000000E+00  0.10566000000E+00 0. -1.
     999900   -1    0    0    0    0 -0.00000000000E+00 -0.00000000000E+00 -0.74505805969E-08  0.93827000000E+00  0.93827000000E+00 0. -1.
     999902    2    1    2    0    0 -0.24313559366E-02 -0.20153707939E-01 -0.12379264709E-01  0.10201533385E+01  0.10198762202E+01 0.  0.
     999903    2    3    3    0    0 -0.44776792392E-01  0.75331314568E-01  0.91117653616E-01  0.12795261134E+00  0.19740209152E-01 0.  0.
         14    1    1    2    0    0  0.24313559366E-02  0.20153707939E-01  0.12379264709E-01  0.23776661458E-01  0.00000000000E+00 0. -1.
     999901    1    3    3    0    0  0.42345436455E-01 -0.95485022507E-01 -0.10349691833E+00  0.89220072720E+00  0.88000000000E+00 0.  1.
        -11    1    4    4    0    0 -0.25913137365E-01  0.37549887571E-01  0.60564536285E-01  0.75827494493E-01  0.51100000000E-03 0. -1.
         11    1    4    4    0    0 -0.18863655027E-01  0.37781426997E-01  0.30553117332E-01  0.52125116849E-01  0.51100000000E-03 0.  1.
</event>
<event>
 8    1  0.1084146E+005  0.1043930E+01  0.7957747E-01            NaN
         13   -1    0    0    0    0  0.00000000000E+00  0.00000000000E+00  0.74505805969E-08  0.10566000000E+00  0.10566000000E+00 0. -1.
     999900   -1    0    0    0    0 -0.00000000000E+00 -0.00000000000E+00 -0.74505805969E-08  0.93827000000E+00  0.93827000000E+00 0. -1.
     999902    2    1    2    0    0 -0.17207164380E-01 -0.22325215528E-02  0.15453570047E-01  0.10206946070E+01  0.10204301041E+01 0.  0.
     999903    2    3    3    0    0  0.23577156776E-01  0.62861763799E-01 -0.10658746638E+00  0.12895773924E+00  0.27599399447E-01 0.  0.
         14    1    1    2    0    0  0.17207164380E-01  0.22325215528E-02 -0.15453570047E-01  0.23235392953E-01  0.00000000000E+00 0.  1.
     999901    1    3    3    0    0 -0.40784321156E-01 -0.65094285352E-01  0.12204103643E+00  0.89173686781E+00  0.88000000000E+00 0.  1.
        -11    1    4    4    0    0  0.21219543288E-01  0.59637334165E-01 -0.79748235219E-01  0.10181808673E+00  0.51100000000E-03 0. -1.
         11    1    4    4    0    0  0.23576134877E-02  0.32244296343E-02 -0.26839231164E-01  0.27139652508E-01  0.51100000000E-03 0.  1.
</event>
<event>
 8    1  0.1084146E+005  0.1043930E+01  0.7957747E-01            NaN
         13   -1    0    0    0    0  0.00000000000E+00  0.00000000000E+00  0.74505805969E-08  0.10566000000E+00  0.10566000000E+00 0. -1.
     999900   -1    0    0    0    0 -0.00000000000E+00 -0.00000000000E+00 -0.74505805969E-08  0.93827000000E+00  0.93827000000E+00 0.  1.
     999902    2    1    2    0    0  0.83973817454E-02  0.11961221642E-01 -0.18446715131E-01  0.10203955966E+01  0.10201241618E+01 0.  0.
     999903    2    3    3    0    0  0.27682245840E-01 -0.12433643141E+00 -0.13159459549E-01  0.12967851961E+00  0.20432624890E-01 0.  0.
         14    1    1    2    0    0 -0.83973817454E-02 -0.11961221642E-01  0.18446715131E-01  0.23534403381E-01  0.00000000000E+00 0. -1.
     999901    1    3    3    0    0 -0.19284864094E-01  0.13629765306E+00 -0.52872555829E-02  0.89071707701E+00  0.88000000000E+00 0. -1.
        -11    1    4    4    0    0  0.25813141031E-01 -0.93687986428E-01 -0.17244138405E-01  0.98698421878E-01  0.51100000000E-03 0.  1.
         11    1    4    4    0    0  0.18691048083E-02 -0.30648444986E-01  0.40846788560E-02  0.30980097727E-01  0.51100000000E-03 0. -1.
</event>
<event>
 8    1  0.1084146E+005  0.1043930E+01  0.7957747E-01            NaN
         13   -1    0    0    0    0  0.00000000000E+00  0.00000000000E+00  0.74505805969E-08  0.10566000000E+00  0.10566000000E+00 0. -1.
     999900   -1    0    0    0    0 -0.00000000000E+00 -0.00000000000E+00 -0.74505805969E-08  0.93827000000E+00  0.93827000000E+00 0.  1.
     999902    2    1    2    0    0  0.13576347858E-01 -0.15976266742E-01 -0.10885942996E-01  0.10203066625E+01  0.10200331482E+01 0.  0.
     999903    2    3    3    0    0  0.23966615749E-01 -0.64330742196E-02 -0.12869990651E+00  0.13234317214E+00  0.18310274762E-01 0.  0.
         14    1    1    2    0    0 -0.13576347858E-01  0.15976266742E-01  0.10885942996E-01  0.23623337509E-01  0.00000000000E+00 0. -1.
     999901    1    3    3    0    0 -0.10390267891E-01 -0.95431925225E-02  0.11781396352E+00  0.88796349035E+00  0.88000000000E+00 0. -1.
        -11    1    4    4    0    0  0.18565350848E-02  0.40789427624E-02 -0.42313862543E-01  0.42553596569E-01  0.51100000000E-03 0. -1.
         11    1    4    4    0    0  0.22110080664E-01 -0.10512016982E-01 -0.86386043970E-01  0.89789575575E-01  0.51100000000E-03 0.  1.
</event>
<event>
 8    1  0.1084146E+005  0.1043930E+01  0.7957747E-01            NaN
         13   -1    0    0    0    0  0.00000000000E+00  0.00000000000E+00  0.74505805969E-08  0.10566000000E+00  0.10566000000E+00 0. -1.
     999900   -1    0    0    0    0 -0.00000000000E+00 -0.00000000000E+00 -0.74505805969E-08  0.93827000000E+00  0.93827000000E+00 0.  1.
     999902    2    1    2    0    0  0.12872316271E-01 -0.14804753769E-01  0.12918954559E-01  0.10204400735E+01  0.10201696756E+01 0.  0.
     999903    2    3    3    0    0  0.59636686929E-01  0.48327735594E-01  0.10573855451E+00  0.13207748102E+00  0.19279902114E-01 0.  0.
         14    1    1    2    0    0 -0.12872316271E-01  0.14804753769E-01 -0.12918954559E-01  0.23489926506E-01  0.00000000000E+00 0.  1.
     999901    1    3    3    0    0 -0.46764370658E-01 -0.63132489363E-01 -0.92819599955E-01  0.88836259248E+00  0.88000000000E+00 0.  1.
        -11    1    4    4    0    0  0.44775153519E-01  0.35680187554E-01  0.63228908084E-01  0.85299742643E-01  0.51100000000E-03 0. -1.
         11    1    4    4    0    0  0.14861533411E-01  0.12647548040E-01  0.42509646431E-01  0.46777738374E-01  0.51100000000E-03 0.  1.
</event>
<event>
 8    1  0.1084146E+005  0.1043930E+01  0.7957747E-01            NaN
         13   -1    0    0    0    0  0.00000000000E+00  0.00000000000E+00  0.74505805969E-08  0.10566000000E+00  0.10566000000E+00 0.  1.
     999900   -1    0    0    0    0 -0.00000000000E+00 -0.00000000000E+00 -0.74505805969E-08  0.93827000000E+00  0.93827000000E+00 0.  1.
     999902    2    1    2    0    0 -0.92661747497E-02  0.89685360164E-02  0.20760782562E-01  0.10194901406E+01  0.10191971547E+01 0.  0.
     999903    2    3    3    0    0 -0.11370095901E+00  0.21379283369E-01  0.61114053130E-01  0.13230975467E+00  0.19645911843E-01 0.  0.
         14    1    1    2    0    0  0.92661747497E-02 -0.89685360164E-02 -0.20760782562E-01  0.24439859356E-01  0.00000000000E+00 0. -1.
     999901    1    3    3    0    0  0.10443478427E+00 -0.12410747353E-01 -0.40353270568E-01  0.88718038598E+00  0.88000000000E+00 0.  1.
        -11    1    4    4    0    0 -0.75537030504E-01  0.22102255476E-01  0.46617507047E-01  0.91475711305E-01  0.51100000000E-03 0.  1.
         11    1    4    4    0    0 -0.38163928511E-01 -0.72297210710E-03  0.14496546083E-01  0.40834043363E-01  0.51100000000E-03 0. -1.
</event>
<event>
 8    1  0.1084146E+005  0.1043930E+01  0.7957747E-01            NaN
         13   -1    0    0    0    0  0.00000000000E+00  0.00000000000E+00  0.74505805969E-08  0.10566000000E+00  0.10566000000E+00 0. -1.
     999900   -1    0    0    0    0 -0.00000000000E+00 -0.00000000000E+00 -0.74505805969E-08  0.93827000000E+00  0.93827000000E+00 0. -1.
     999902    2    1    2    0    0 -0.20614113748E-01  0.47366273338E-02 -0.10603578290E-01  0.10202696281E+01  0.10199952455E+01 0.  0.
     999903    2    3    3    0    0 -0.10767753903E+00 -0.39254598993E-01 -0.65012980006E-01  0.13320951123E+00  0.19562984419E-01 0.  0.
         14    1    1    2    0    0  0.20614113748E-01 -0.47366273338E-02  0.10603578290E-01  0.23660371863E-01  0.00000000000E+00 0. -1.
     999901    1    3    3    0    0  0.87063425279E-01  0.43991226327E-01  0.54409401716E-01  0.88706011691E+00  0.88000000000E+00 0.  1.
        -11    1    4    4    0    0 -0.17701866339E-01 -0.10840930731E-01 -0.19357327342E-01  0.28387481287E-01  0.51100000000E-03 0. -1.
         11    1    4    4    0    0 -0.89975672688E-01 -0.28413668262E-01 -0.45655652664E-01  0.10482202994E+00  0.51100000000E-03 0.  1.
</event>
<event>
 8    1  0.1084146E+005  0.1043930E+01  0.7957747E-01            NaN
         13   -1    0    0    0    0  0.00000000000E+00  0.00000000000E+00  0.74505805969E-08  0.10566000000E+00  0.10566000000E+00 0. -1.
     999900   -1    0    0    0    0 -0.00000000000E+00 -0.00000000000E+00 -0.74505805969E-08  0.93827000000E+00  0.93827000000E+00 0.  1.
     999902    2    1    2    0    0  0.95543437455E-02  0.18771491437E-01 -0.17935358164E-01  0.10162653755E+01  0.10158887646E+01 0.  0.
     999903    2    3    3    0    0  0.78937445847E-01 -0.49172256843E-01  0.81654255035E-01  0.12533975638E+00  0.19839505126E-01 0.  0.
         14    1    1    2    0    0 -0.95543437455E-02 -0.18771491437E-01  0.17935358164E-01  0.27664624480E-01  0.00000000000E+00 0.  1.
     999901    1    3    3    0    0 -0.69383102101E-01  0.67943748280E-01 -0.99589613198E-01  0.89092561914E+00  0.88000000000E+00 0.  1.
        -11    1    4    4    0    0  0.37500840632E-01 -0.19782102036E-01  0.49666165831E-01  0.65304163408E-01  0.51100000000E-03 0.  1.
         11    1    4    4    0    0  0.41436605215E-01 -0.29390154807E-01  0.31988089204E-01  0.60035592970E-01  0.51100000000E-03 0. -1.
</event>
<event>
 8    1  0.1084146E+005  0.1043930E+01  0.7957747E-01            NaN
         13   -1    0    0    0    0  0.00000000000E+00  0.00000000000E+00  0.74505805969E-08  0.10566000000E+00  0.10566000000E+00 0.  1.
     999900   -1    0    0    0    0 -0.00000000000E+00 -0.00000000000E+00 -0.74505805969E-08  0.93827000000E+00  0.93827000000E+00 0. -1.
     999902    2    1    2    0    0  0.42823896506E-02 -0.70627167100E-02  0.22660372603E-01  0.10198112663E+01  0.10195260201E+01 0.  0.
     999903    2    3    3    0    0  0.95528761807E-01  0.55625417496E-01 -0.62855219571E-01  0.12876209869E+00  0.20222957955E-01 0.  0.
         14    1    1    2    0    0 -0.42823896506E-02  0.70627167100E-02 -0.22660372603E-01  0.24118733693E-01  0.00000000000E+00 0. -1.
     999901    1    3    3    0    0 -0.91246372156E-01 -0.62688134206E-01  0.85515592174E-01  0.89104916761E+00  0.88000000000E+00 0.  1.
        -11    1    4    4    0    0  0.65519879388E-01  0.27820330075E-01 -0.35486905102E-01  0.79538713312E-01  0.51100000000E-03 0. -1.
         11    1    4    4    0    0  0.30008882419E-01  0.27805087421E-01 -0.27368314469E-01  0.49223385381E-01  0.51100000000E-03 0.  1.
</event>
<event>
 8    1  0.1084146E+005  0.1043930E+01  0.7957747E-01            NaN
         13   -1    0    0    0    0  0.00000000000E+00  0.00000000000E+00  0.74505805969E-08  0.10566000000E+00  0.10566000000E+00 0.  1.
     999900   -1    0    0    0    0 -0.00000000000E+00 -0.00000000000E+00 -0.74505805969E-08  0.93827000000E+00  0.93827000000E+00 0. -1.
     999902    2    1    2    0    0  0.58259435378E-02 -0.21401623382E-02 -0.22682449085E-01  0.10204137203E+01  0.10201427083E+01 0.  0.
     999903    2    3    3    0    0  0.71986664465E-01  0.99034814354E-01 -0.43901624120E-01  0.13189592631E+00  0.21890830552E-01 0.  0.
         14    1    1    2    0    0 -0.58259435378E-02  0.21401623382E-02  0.22682449085E-01  0.23516279668E-01  0.00000000000E+00 0.  1.
     999901    1    3    3    0    0 -0.66160720927E-01 -0.10117497669E+00  0.21219175035E-01  0.88851779402E+00  0.88000000000E+00 0.  1.
        -11    1    4    4    0    0  0.29605075557E-01  0.27838930066E-01 -0.72010475852E-02  0.41274480412E-01  0.51100000000E-03 0. -1.
         11    1    4    4    0    0  0.42381588908E-01  0.71195884288E-01 -0.36700576535E-01  0.90621445899E-01  0.51100000000E-03 0.  1.
</event>
<event>
 8    1  0.1084146E+005  0.1043930E+01  0.7957747E-01            NaN
         13   -1    0    0    0    0  0.00000000000E+00  0.00000000000E+00  0.74505805969E-08  0.10566000000E+00  0.10566000000E+00 0. -1.
     999900   -1    0    0    0    0 -0.00000000000E+00 -0.00000000000E+00 -0.74505805969E-08  0.93827000000E+00  0.93827000000E+00 0. -1.
     999902    2    1    2    0    0  0.18218341902E-01  0.89935332859E-02 -0.12788585085E-01  0.10199229275E+01  0.10196403476E+01 0.  0.
     999903    2    3    3    0    0  0.38803884310E-01  0.12414817838E+00 -0.12484156723E-01  0.13218172109E+00  0.19940952541E-01 0.  0.
         14    1    1    2    0    0 -0.18218341902E-01 -0.89935332859E-02  0.12788585085E-01  0.24007072523E-01  0.00000000000E+00 0. -1.
     999901    1    3    3    0    0 -0.20585542407E-01 -0.11515464509E+00 -0.30442836159E-03  0.88774120639E+00  0.88000000000E+00 0.  1.
        -11    1    4    4    0    0  0.62453825430E-02  0.31809224213E-01 -0.11072952160E-01  0.34259348194E-01  0.51100000000E-03 0. -1.
         11    1    4    4    0    0  0.32558501767E-01  0.92338954167E-01 -0.14112045629E-02  0.97922372895E-01  0.51100000000E-03 0.  1.
</event>
<event>
 8    1  0.1084146E+005  0.1043930E+01  0.7957747E-01            NaN
         13   -1    0    0    0    0  0.00000000000E+00  0.00000000000E+00  0.74505805969E-08  0.10566000000E+00  0.10566000000E+00 0. -1.
     999900   -1    0    0    0    0 -0.00000000000E+00 -0.00000000000E+00 -0.74505805969E-08  0.93827000000E+00  0.93827000000E+00 0.  1.
     999902    2    1    2    0    0 -0.20210144434E-01 -0.95753672800E-02 -0.60933204155E-02  0.10207509976E+01  0.10204877917E+01 0.  0.
     999903    2    3    3    0    0 -0.12788490425E-01 -0.66073656601E-01  0.11083960498E+00  0.13118905675E+00  0.19896657857E-01 0.  0.
         14    1    1    2    0    0  0.20210144434E-01  0.95753672800E-02  0.60933204155E-02  0.23179002357E-01  0.00000000000E+00 0. -1.
     999901    1    3    3    0    0 -0.74216540082E-02  0.56498289321E-01 -0.11693292540E+00  0.88956194089E+00  0.88000000000E+00 0.  1.
        -11    1    4    4    0    0 -0.83584036066E-02 -0.62178107744E-01  0.91351242323E-01  0.11082098442E+00  0.51100000000E-03 0. -1.
         11    1    4    4    0    0 -0.44300868187E-02 -0.38955488574E-02  0.19488362660E-01  0.20368072326E-01  0.51100000000E-03 0.  1.
</event>
<event>
 8    1  0.1084146E+005  0.1043930E+01  0.7957747E-01            NaN
         13   -1    0    0    0    0  0.00000000000E+00  0.00000000000E+00  0.74505805969E-08  0.10566000000E+00  0.10566000000E+00 0. -1.
     999900   -1    0    0    0    0 -0.00000000000E+00 -0.00000000000E+00 -0.74505805969E-08  0.93827000000E+00  0.93827000000E+00 0.  1.
     999902    2    1    2    0    0  0.11749337469E-03  0.17601970607E-01  0.15774581480E-01  0.10202935748E+01  0.10200197539E+01 0.  0.
     999903    2    3    3    0    0 -0.28256729071E-01 -0.64204822769E-01 -0.10471006074E+00  0.12787327197E+00  0.21602658611E-01 0.  0.
         14    1    1    2    0    0 -0.11749337469E-03 -0.17601970607E-01 -0.15774581480E-01  0.23636425170E-01  0.00000000000E+00 0.  1.
     999901    1    3    3    0    0  0.28374222446E-01  0.81806793375E-01  0.12048464222E+00  0.89242030286E+00  0.88000000000E+00 0. -1.
        -11    1    4    4    0    0 -0.19876462497E-01 -0.25717252238E-01 -0.60342661725E-01  0.68541584233E-01  0.51100000000E-03 0.  1.
         11    1    4    4    0    0 -0.83802665746E-02 -0.38487570531E-01 -0.44367399019E-01  0.59331687739E-01  0.51100000000E-03 0. -1.
</event>
<event>
 8    1  0.1084146E+005  0.1043930E+01  0.7957747E-01            NaN
         13   -1    0    0    0    0  0.00000000000E+00  0.00000000000E+00  0.74505805969E-08  0.10566000000E+00  0.10566000000E+00 0. -1.
     999900   -1    0    0    0    0 -0.00000000000E+00 -0.00000000000E+00 -0.74505805969E-08  0.93827000000E+00  0.93827000000E+00 0.  1.
     999902    2    1    2    0    0  0.47224677630E-02  0.12683209500E-01 -0.19151756236E-01  0.10204788748E+01  0.10202093798E+01 0.  0.
     999903    2    3    3    0    0 -0.67149797642E-01 -0.79404537196E-01  0.72038445411E-01  0.12808802520E+00  0.20070593688E-01 0.  0.
         14    1    1    2    0    0 -0.47224677630E-02 -0.12683209500E-01  0.19151756236E-01  0.23451125173E-01  0.00000000000E+00 0. -1.
     999901    1    3    3    0    0  0.71872265405E-01  0.92087746696E-01 -0.91190201647E-01  0.89239084963E+00  0.88000000000E+00 0.  1.
        -11    1    4    4    0    0 -0.10909536832E-01 -0.16985192095E-01  0.23771303465E-01  0.31190555202E-01  0.51100000000E-03 0. -1.
         11    1    4    4    0    0 -0.56240260809E-01 -0.62419345101E-01  0.48267141946E-01  0.96897469995E-01  0.51100000000E-03 0.  1.
</event>
<event>
 8    1  0.1084146E+005  0.1043930E+01  0.7957747E-01            NaN
         13   -1    0    0    0    0  0.00000000000E+00  0.00000000000E+00  0.74505805969E-08  0.10566000000E+00  0.10566000000E+00 0.  1.
     999900   -1    0    0    0    0 -0.00000000000E+00 -0.00000000000E+00 -0.74505805969E-08  0.93827000000E+00  0.93827000000E+00 0. -1.
     999902    2    1    2    0    0 -0.81506404010E-02  0.22793330650E-01 -0.19477581376E-02  0.10196449712E+01  0.10193557302E+01 0.  0.
     999903    2    3    3    0    0 -0.55986294792E-01  0.65481841873E-01  0.97539281949E-01  0.13172142160E+00  0.20353981577E-01 0.  0.
         14    1    1    2    0    0  0.81506404010E-02 -0.22793330650E-01  0.19477581376E-02  0.24285028780E-01  0.00000000000E+00 0.  1.
     999901    1    3    3    0    0  0.47835654391E-01 -0.42688511223E-01 -0.99487040087E-01  0.88792354962E+00  0.88000000000E+00 0. -1.
        -11    1    4    4    0    0 -0.31285208376E-01  0.24930058425E-01  0.54692571319E-01  0.67762899544E-01  0.51100000000E-03 0.  1.
         11    1    4    4    0    0 -0.24701086416E-01  0.40551783448E-01  0.42846710631E-01  0.63958522058E-01  0.51100000000E-03 0. -1.
</event>
<event>
 8    1  0.1084146E+005  0.1043930E+01  0.7957747E-01            NaN
         13   -1    0    0    0    0  0.00000000000E+00  0.00000000000E+00  0.74505805969E-08  0.10566000000E+00  0.10566000000E+00 0.  1.
     999900   -1    0    0    0    0 -0.00000000000E+00 -0.00000000000E+00 -0.74505805969E-08  0.93827000000E+00  0.93827000000E+00 0. -1.
     999902    2    1    2    0    0 -0.13699539937E-01  0.18594511664E-01  0.57324603652E-02  0.10201330599E+01  0.10198554630E+01 0.  0.
     999903    2    3    3    0    0 -0.34530231773E-01  0.12695658146E+00 -0.32322716050E-02  0.13319640918E+00  0.20506714921E-01 0.  0.
         14    1    1    2    0    0  0.13699539937E-01 -0.18594511664E-01 -0.57324603652E-02  0.23796940147E-01  0.00000000000E+00 0. -1.
     999901    1    3    3    0    0  0.20830691836E-01 -0.10836206979E+00  0.89647319702E-02  0.88693665068E+00  0.88000000000E+00 0. -1.
        -11    1    4    4    0    0 -0.19217844923E-01  0.41178678204E-01 -0.69917497871E-02  0.45979938976E-01  0.51100000000E-03 0. -1.
         11    1    4    4    0    0 -0.15312386851E-01  0.85777903252E-01  0.37594781821E-02  0.87216470202E-01  0.51100000000E-03 0.  1.
</event>
<event>
 8    1  0.1084146E+005  0.1043930E+01  0.7957747E-01            NaN
         13   -1    0    0    0    0  0.00000000000E+00  0.00000000000E+00  0.74505805969E-08  0.10566000000E+00  0.10566000000E+00 0. -1.
     999900   -1    0    0    0    0 -0.00000000000E+00 -0.00000000000E+00 -0.74505805969E-08  0.93827000000E+00  0.93827000000E+00 0.  1.
     999902    2    1    2    0    0 -0.78371945771E-02 -0.16223578506E-03 -0.22378345918E-01  0.10202184352E+01  0.10199428500E+01 0.  0.
     999903    2    3    3    0    0  0.88498763318E-01  0.73568330038E-02  0.89472385036E-01  0.12789128712E+00  0.21557354601E-01 0.  0.
         14    1    1    2    0    0  0.78371945771E-02  0.16223578506E-03  0.22378345918E-01  0.23711564801E-01  0.00000000000E+00 0. -1.
     999901    1    3    3    0    0 -0.96335957895E-01 -0.75190687889E-02 -0.11185073095E+00  0.89232714808E+00  0.88000000000E+00 0.  1.
        -11    1    4    4    0    0  0.71865541363E-01  0.11184967531E-01  0.62137925359E-01  0.95661603702E-01  0.51100000000E-03 0.  1.
         11    1    4    4    0    0  0.16633221955E-01 -0.38281345270E-02  0.27334459677E-01  0.32229683420E-01  0.51100000000E-03 0. -1.
</event>
<event>
 8    1  0.1157048E+005  0.1043930E+01  0.7957747E-01            NaN
         13   -1    0    0    0    0  0.00000000000E+00  0.00000000000E+00  0.74505805969E-08  0.10566000000E+00  0.10566000000E+00 0.  1.
     999900   -1    0    0    0    0 -0.00000000000E+00 -0.00000000000E+00 -0.74505805969E-08  0.93827000000E+00  0.93827000000E+00 0.  1.
     999902    2    1    2    0    0  0.14578116482E-01  0.48907608616E-03 -0.18591208572E-01  0.10202996443E+01  0.10200259655E+01 0.  0.
     999903    2    3    3    0    0  0.11763018831E+00 -0.60363896353E-02 -0.58916027325E-01  0.13334507823E+00  0.20892879445E-01 0.  0.
         14    1    1    2    0    0 -0.14578116482E-01 -0.48907608616E-03  0.18591208572E-01  0.23630355726E-01  0.00000000000E+00 0.  1.
     999901    1    3    3    0    0 -0.10305207183E+00  0.65254657214E-02  0.40324818753E-01  0.88695456604E+00  0.88000000000E+00 0. -1.
        -11    1    4    4    0    0  0.43600807024E-01  0.70171888799E-02 -0.26287411297E-01  0.51396112952E-01  0.51100000000E-03 0.  1.
         11    1    4    4    0    0  0.74029381288E-01 -0.13053578515E-01 -0.32628616029E-01  0.81948965282E-01  0.51100000000E-03 0. -1.
</event>
<event>
 8    1  0.1084146E+005  0.1043930E+01  0.7957747E-01            NaN
         13   -1    0    0    0    0  0.00000000000E+00  0.00000000000E+00  0.74505805969E-08  0.10566000000E+00  0.10566000000E+00 0.  1.
     999900   -1    0    0    0    0 -0.00000000000E+00 -0.00000000000E+00 -0.74505805969E-08  0.93827000000E+00  0.93827000000E+00 0. -1.
     999902    2    1    2    0    0 -0.49751366804E-02  0.10031363929E-01 -0.66376861453E-02  0.10309131215E+01  0.10308309391E+01 0.  0.
     999903    2    3    3    0    0 -0.62224462507E-01 -0.12098938106E+00 -0.22235014371E-01  0.13923649991E+00  0.19547198742E-01 0.  0.
         14    1    1    2    0    0  0.49751366804E-02 -0.10031363929E-01  0.66376861453E-02  0.13016878452E-01  0.00000000000E+00 0.  1.
     999901    1    3    3    0    0  0.57249325827E-01  0.13102074499E+00  0.15597328226E-01  0.89167662164E+00  0.88000000000E+00 0.  1.
        -11    1    4    4    0    0 -0.55913135151E-01 -0.91451407858E-01 -0.18892205521E-01  0.10884307618E+00  0.51100000000E-03 0.  1.
         11    1    4    4    0    0 -0.63113273563E-02 -0.29537973207E-01 -0.33428088496E-02  0.30393423732E-01  0.51100000000E-03 0. -1.
</event>
<event>
 8    1  0.1084146E+005  0.1043930E+01  0.7957747E-01            NaN
         13   -1    0    0    0    0  0.00000000000E+00  0.00000000000E+00  0.74505805969E-08  0.10566000000E+00  0.10566000000E+00 0. -1.
     999900   -1    0    0    0    0 -0.00000000000E+00 -0.00000000000E+00 -0.74505805969E-08  0.93827000000E+00  0.93827000000E+00 0.  1.
     999902    2    1    2    0    0  0.16608115623E-01 -0.58713776328E-02 -0.16703434586E-01  0.10196543474E+01  0.10193653324E+01 0.  0.
     999903    2    3    3    0    0  0.98624256701E-01 -0.66775060325E-01 -0.56152552301E-01  0.13286680872E+00  0.17743366002E-01 0.  0.
         14    1    1    2    0    0 -0.16608115623E-01  0.58713776328E-02  0.16703434586E-01  0.24275652552E-01  0.00000000000E+00 0. -1.
     999901    1    3    3    0    0 -0.82016141078E-01  0.60903682693E-01  0.39449117716E-01  0.88678753873E+00  0.88000000000E+00 0.  1.
        -11    1    4    4    0    0  0.19033363946E-01 -0.20369887429E-01 -0.17735382926E-01  0.33045516874E-01  0.51100000000E-03 0.  1.
         11    1    4    4    0    0  0.79590892755E-01 -0.46405172897E-01 -0.38417169376E-01  0.99821291842E-01  0.51100000000E-03 0. -1.
</event>
<event>
 8    1  0.1084146E+005  0.1043930E+01  0.7957747E-01            NaN
         13   -1    0    0    0    0  0.00000000000E+00  0.00000000000E+00  0.74505805969E-08  0.10566000000E+00  0.10566000000E+00 0.  1.
     999900   -1    0    0    0    0 -0.00000000000E+00 -0.00000000000E+00 -0.74505805969E-08  0.93827000000E+00  0.93827000000E+00 0. -1.
     999902    2    1    2    0    0  0.11919311645E-01 -0.11606357010E-01  0.23300205902E-01  0.10152999964E+01  0.10148962536E+01 0.  0.
     999903    2    3    3    0    0  0.75869410645E-01  0.92354185229E-01  0.37850758135E-01  0.12675673457E+00  0.18684936899E-01 0.  0.
         14    1    1    2    0    0 -0.11919311645E-01  0.11606357010E-01 -0.23300205902E-01  0.28630003636E-01  0.00000000000E+00 0. -1.
     999901    1    3    3    0    0 -0.63950099000E-01 -0.10396054224E+00 -0.14550552233E-01  0.88854326179E+00  0.88000000000E+00 0.  1.
        -11    1    4    4    0    0  0.76664545450E-01  0.89084100667E-01  0.37300333413E-01  0.12330857843E+00  0.51100000000E-03 0.  1.
         11    1    4    4    0    0 -0.79513480520E-03  0.32700845623E-02  0.55042472196E-03  0.34481561417E-02  0.51100000000E-03 0. -1.
</event>
<event>
 7    1  0.1084146E+005  0.1043930E+01  0.7957747E-01            NaN
         13   -1    0    0    0    0  0.00000000000E+00  0.00000000000E+00  0.74505805969E-08  0.10566000000E+00  0.10566000000E+00 0.  1.
     999900   -1    0    0    0    0 -0.00000000000E+00 -0.00000000000E+00 -0.74505805969E-08  0.93827000000E+00  0.93827000000E+00 0.  1.
     999903    2    1    2    0    0  0.47159738395E-01 -0.95133530630E-01 -0.39986684540E-01  0.11533204088E+00  0.20690943360E-01 0.  0.
         14    1    1    2    0    0 -0.29144246166E-01 -0.75248887177E-02 -0.26300145906E-01  0.39971348607E-01  0.00000000000E+00 0. -1.
     999901    1    1    2    0    0 -0.18015492229E-01  0.10265841935E+00  0.66286830445E-01  0.88862661051E+00  0.88000000000E+00 0. -1.
        -11    1    3    3    0    0  0.14023474443E-01 -0.45454439362E-01 -0.25096411341E-01  0.53785266350E-01  0.51100000000E-03 0.  1.
         11    1    3    3    0    0  0.33136263952E-01 -0.49679091269E-01 -0.14890273198E-01  0.61546774529E-01  0.51100000000E-03 0. -1.
</event>
<event>
 8    1  0.1084146E+005  0.1043930E+01  0.7957747E-01            NaN
         13   -1    0    0    0    0  0.00000000000E+00  0.00000000000E+00  0.74505805969E-08  0.10566000000E+00  0.10566000000E+00 0.  1.
     999900   -1    0    0    0    0 -0.00000000000E+00 -0.00000000000E+00 -0.74505805969E-08  0.93827000000E+00  0.93827000000E+00 0.  1.
     999902    2    1    2    0    0 -0.22635024534E-01  0.64034507589E-02 -0.20048953138E-02  0.10203213549E+01  0.10200481847E+01 0.  0.
     999903    2    3    3    0    0 -0.48834746426E-01  0.91544484255E-01  0.79302549990E-01  0.13209485133E+00  0.19872852285E-01 0.  0.
         14    1    1    2    0    0  0.22635024534E-01 -0.64034507589E-02  0.20048953138E-02  0.23608645080E-01  0.00000000000E+00 0.  1.
     999901    1    3    3    0    0  0.26199721892E-01 -0.85141033496E-01 -0.81307445304E-01  0.88822650359E+00  0.88000000000E+00 0.  1.
        -11    1    4    4    0    0 -0.12309227472E-01  0.34271184860E-01  0.37798989683E-01  0.52488626718E-01  0.51100000000E-03 0.  1.
         11    1    4    4    0    0 -0.36525518954E-01  0.57273299395E-01  0.41503560307E-01  0.79606224616E-01  0.51100000000E-03 0. -1.
</event>
<event>
 8    1  0.1084146E+005  0.1043930E+01  0.7957747E-01            NaN
         13   -1    0    0    0    0  0.00000000000E+00  0.00000000000E+00  0.74505805969E-08  0.10566000000E+00  0.10566000000E+00 0.  1.
     999900   -1    0    0    0    0 -0.00000000000E+00 -0.00000000000E+00 -0.74505805969E-08  0.93827000000E+00  0.93827000000E+00 0.  1.
     999902    2    1    2    0    0 -0.75055263272E-03  0.10277627791E-01 -0.21927538747E-01  0.10197017124E+01  0.10194138377E+01 0.  0.
     999903    2    3    3    0    0 -0.98888594979E-02  0.35224345408E-01  0.12084162088E+00  0.12779987911E+00  0.19788069914E-01 0.  0.
         14    1    1    2    0    0  0.75055263272E-03 -0.10277627791E-01  0.21927538747E-01  0.24228287554E-01  0.00000000000E+00 0.  1.
     999901    1    3    3    0    0  0.91383068651E-02 -0.24946717617E-01 -0.14276915963E+00  0.89190183334E+00  0.88000000000E+00 0.  1.
        -11    1    4    4    0    0 -0.14849285441E-01  0.16439630666E-01  0.64172881861E-01  0.67890961268E-01  0.51100000000E-03 0.  1.
         11    1    4    4    0    0  0.49604259431E-02  0.18784714742E-01  0.56668739021E-01  0.59908917840E-01  0.51100000000E-03 0. -1.
</event>
<event>
 8    1  0.1432930E+005  0.1043930E+01  0.7957747E-01            NaN
         13   -1    0    0    0    0  0.00000000000E+00  0.00000000000E+00  0.74505805969E-08  0.10566000000E+00  0.10566000000E+00 0.  1.
     999900   -1    0    0    0    0 -0.00000000000E+00 -0.00000000000E+00 -0.74505805969E-08  0.93827000000E+00  0.93827000000E+00 0. -1.
     999902    2    1    2    0    0 -0.17988181413E-01 -0.75966050914E-02  0.12584830934E-01  0.10206993941E+01  0.10204350014E+01 0.  0.
     999903    2    3    3    0    0 -0.19166977743E-01 -0.21775348545E-02 -0.12679544921E+00  0.12971251523E+00  0.19394225252E-01 0.  0.
         14    1    1    2    0    0  0.17988181413E-01  0.75966050914E-02 -0.12584830934E-01  0.23230605870E-01  0.00000000000E+00 0. -1.
     999901    1    3    3    0    0  0.11787963301E-02 -0.54190702370E-02  0.13938028014E+00  0.89098687890E+00  0.88000000000E+00 0.  1.
        -11    1    4    4    0    0 -0.31896024970E-02 -0.70240300122E-02 -0.72359026692E-01  0.72770876224E-01  0.51100000000E-03 0.  1.
         11    1    4    4    0    0 -0.15977375246E-01  0.48464951577E-02 -0.54436422516E-01  0.56941639004E-01  0.51100000000E-03 0. -1.
</event>
<event>
 8    1  0.1084146E+005  0.1043930E+01  0.7957747E-01            NaN
         13   -1    0    0    0    0  0.00000000000E+00  0.00000000000E+00  0.74505805969E-08  0.10566000000E+00  0.10566000000E+00 0.  1.
     999900   -1    0    0    0    0 -0.00000000000E+00 -0.00000000000E+00 -0.74505805969E-08  0.93827000000E+00  0.93827000000E+00 0. -1.
     999902    2    1    2    0    0  0.67398846399E-02 -0.19159402027E-02 -0.22603426951E-01  0.10202654319E+01  0.10199909509E+01 0.  0.
     999903    2    3    3    0    0  0.69274560257E-01 -0.10268681723E+00 -0.41769940711E-01  0.13210288456E+00  0.19049856429E-01 0.  0.
         14    1    1    2    0    0 -0.67398846399E-02  0.19159402027E-02  0.22603426951E-01  0.23664568066E-01  0.00000000000E+00 0.  1.
     999901    1    3    3    0    0 -0.62534675617E-01  0.10077087703E+00  0.19166513760E-01  0.88816254738E+00  0.88000000000E+00 0.  1.
        -11    1    4    4    0    0  0.17599123204E-01 -0.24985073191E-01 -0.19197285989E-01  0.36094042864E-01  0.51100000000E-03 0.  1.
         11    1    4    4    0    0  0.51675437054E-01 -0.77701744039E-01 -0.22572654722E-01  0.96008841694E-01  0.51100000000E-03 0. -1.
</event>
<event>
 8    1  0.1084146E+005  0.1043930E+01  0.7957747E-01            NaN
         13   -1    0    0    0    0  0.00000000000E+00  0.00000000000E+00  0.74505805969E-08  0.10566000000E+00  0.10566000000E+00 0.  1.
     999900   -1    0    0    0    0 -0.00000000000E+00 -0.00000000000E+00 -0.74505805969E-08  0.93827000000E+00  0.93827000000E+00 0. -1.
     999902    2    1    2    0    0 -0.44901231295E-03  0.13508694350E-01 -0.18362761707E-01  0.10211291787E+01  0.10208745869E+01 0.  0.
     999903    2    3    3    0    0 -0.25286226613E-01  0.12815580387E+00 -0.15295829908E-01  0.13333964675E+00  0.21958954042E-01 0.  0.
         14    1    1    2    0    0  0.44901231295E-03 -0.13508694350E-01  0.18362761707E-01  0.22800821314E-01  0.00000000000E+00 0.  1.
     999901    1    3    3    0    0  0.24837214300E-01 -0.11464710952E+00 -0.30669317998E-02  0.88778953193E+00  0.88000000000E+00 0.  1.
        -11    1    4    4    0    0 -0.12432423531E-01  0.26722956327E-01 -0.93354226936E-02  0.30920750113E-01  0.51100000000E-03 0. -1.
         11    1    4    4    0    0 -0.12853803082E-01  0.10143284754E+00 -0.59604072140E-02  0.10241889664E+00  0.51100000000E-03 0.  1.
</event>
<event>
 8    1  0.1084146E+005  0.1043930E+01  0.7957747E-01            NaN
         13   -1    0    0    0    0  0.00000000000E+00  0.00000000000E+00  0.74505805969E-08  0.10566000000E+00  0.10566000000E+00 0. -1.
     999900   -1    0    0    0    0 -0.00000000000E+00 -0.00000000000E+00 -0.74505805969E-08  0.93827000000E+00  0.93827000000E+00 0. -1.
     999902    2    1    2    0    0 -0.86937766212E-02  0.20985421058E-01 -0.32281813337E-03  0.10212127409E+01  0.10209600327E+01 0.  0.
     999903    2    3    3    0    0  0.70119560941E-01  0.98089509444E-01 -0.52044631540E-01  0.13282559073E+00  0.19891937852E-01 0.  0.
         14    1    1    2    0    0  0.86937766212E-02 -0.20985421058E-01  0.32281813337E-03  0.22717259088E-01  0.00000000000E+00 0.  1.
     999901    1    3    3    0    0 -0.78813337562E-01 -0.77104088386E-01  0.51721813406E-01  0.88838715018E+00  0.88000000000E+00 0.  1.
        -11    1    4    4    0    0  0.55180986734E-01  0.88569778212E-01 -0.42298008132E-01  0.11260075276E+00  0.51100000000E-03 0. -1.
         11    1    4    4    0    0  0.14938574207E-01  0.95197312323E-02 -0.97466234074E-02  0.20224837971E-01  0.51100000000E-03 0.  1.
</event>
<event>
 8    1  0.1084146E+005  0.1043930E+01  0.7957747E-01            NaN
         13   -1    0    0    0    0  0.00000000000E+00  0.00000000000E+00  0.74505805969E-08  0.10566000000E+00  0.10566000000E+00 0.  1.
     999900   -1    0    0    0    0 -0.00000000000E+00 -0.00000000000E+00 -0.74505805969E-08  0.93827000000E+00  0.93827000000E+00 0.  1.
     999902    2    1    2    0    0  0.30543353409E-01 -0.56983480115E-02  0.94987306018E-03  0.10128451184E+01  0.10123679983E+01 0.  0.
     999903    2    3    3    0    0 -0.10082463810E+00 -0.32970400903E-02 -0.63122800236E-01  0.12078647515E+00  0.20697984146E-01 0.  0.
         14    1    1    2    0    0 -0.30543353409E-01  0.56983480115E-02 -0.94987306018E-03  0.31084881636E-01  0.00000000000E+00 0. -1.
     999901    1    3    3    0    0  0.13136799151E+00 -0.24013079212E-02  0.64072673296E-01  0.89205864322E+00  0.88000000000E+00 0.  1.
        -11    1    4    4    0    0 -0.51407080672E-01 -0.90797105814E-02 -0.23838353976E-01  0.57390394045E-01  0.51100000000E-03 0.  1.
         11    1    4    4    0    0 -0.49417557429E-01  0.57826704910E-02 -0.39284446260E-01  0.63396081103E-01  0.51100000000E-03 0. -1.
</event>
<event>
 8    1  0.1084146E+005  0.1043930E+01  0.7957747E-01            NaN
         13   -1    0    0    0    0  0.00000000000E+00  0.00000000000E+00  0.74505805969E-08  0.10566000000E+00  0.10566000000E+00 0.  1.
     999900   -1    0    0    0    0 -0.00000000000E+00 -0.00000000000E+00 -0.74505805969E-08  0.93827000000E+00  0.93827000000E+00 0. -1.
     999902    2    1    2    0    0  0.16980562691E-01 -0.17894827225E-01  0.29529774314E-02  0.10190847907E+01  0.10187818835E+01 0.  0.
     999903    2    3    3    0    0 -0.93240154927E-01  0.41636043690E-01 -0.72173422051E-01  0.12704414862E+00  0.22448301103E-01 0.  0.
         14    1    1    2    0    0 -0.16980562691E-01  0.17894827225E-01 -0.29529774314E-02  0.24845209325E-01  0.00000000000E+00 0.  1.
     999901    1    3    3    0    0  0.11022071762E+00 -0.59530870915E-01  0.75126399482E-01  0.89204064206E+00  0.88000000000E+00 0.  1.
        -11    1    4    4    0    0 -0.11150997953E-01  0.11776347279E-01 -0.18104617311E-01  0.24311836614E-01  0.51100000000E-03 0.  1.
         11    1    4    4    0    0 -0.82089156974E-01  0.29859696411E-01 -0.54068804739E-01  0.10273231200E+00  0.51100000000E-03 0. -1.
</event>
<event>
 8    1  0.1084146E+005  0.1043930E+01  0.7957747E-01            NaN
         13   -1    0    0    0    0  0.00000000000E+00  0.00000000000E+00  0.74505805969E-08  0.10566000000E+00  0.10566000000E+00 0.  1.
     999900   -1    0    0    0    0 -0.00000000000E+00 -0.00000000000E+00 -0.74505805969E-08  0.93827000000E+00  0.93827000000E+00 0.  1.
     999902    2    1    2    0    0  0.21973602096E-01  0.22711933220E-02  0.65134186170E-02  0.10208991049E+01  0.10206392900E+01 0.  0.
     999903    2    3    3    0    0  0.11916832778E-01  0.80734139942E-01  0.10210046958E+00  0.13219529769E+00  0.19775706982E-01 0.  0.
         14    1    1    2    0    0 -0.21973602096E-01 -0.22711933220E-02 -0.65134186170E-02  0.23030895125E-01  0.00000000000E+00 0. -1.
     999901    1    3    3    0    0  0.10056769318E-01 -0.78462946620E-01 -0.95587050961E-01  0.88870380719E+00  0.88000000000E+00 0.  1.
        -11    1    4    4    0    0  0.15554630725E-01  0.44483553346E-01  0.51070598220E-01  0.69492446919E-01  0.51100000000E-03 0. -1.
         11    1    4    4    0    0 -0.36377979474E-02  0.36250586596E-01  0.51029871358E-01  0.62702850767E-01  0.51100000000E-03 0.  1.
</event>
<event>
 8    1  0.1084146E+005  0.1043930E+01  0.7957747E-01            NaN
         13   -1    0    0    0    0  0.00000000000E+00  0.00000000000E+00  0.74505805969E-08  0.10566000000E+00  0.10566000000E+00 0.  1.
     999900   -1    0    0    0    0 -0.00000000000E+00 -0.00000000000E+00 -0.74505805969E-08  0.93827000000E+00  0.93827000000E+00 0.  1.
     999902    2    1    2    0    0  0.13293515437E-01  0.10594499466E-01 -0.88936740497E-02  0.10247451516E+01  0.10245655505E+01 0.  0.
     999903    2    3    3    0    0 -0.22336414097E-03 -0.35358380488E-01  0.12665307448E+00  0.13307969061E+00  0.20467970509E-01 0.  0.
         14    1    1    2    0    0 -0.13293515437E-01 -0.10594499466E-01  0.88936740497E-02  0.19184848441E-01  0.00000000000E+00 0.  1.
     999901    1    3    3    0    0  0.13516879578E-01  0.45952879954E-01 -0.13554674853E+00  0.89166546095E+00  0.88000000000E+00 0.  1.
        -11    1    4    4    0    0 -0.41951639863E-02  0.90182819892E-03  0.15652563672E-01  0.16238120750E-01  0.51100000000E-03 0. -1.
         11    1    4    4    0    0  0.39717998454E-02 -0.36260208687E-01  0.11100051080E+00  0.11684156986E+00  0.51100000000E-03 0.  1.
</event>
<event>
 7    1  0.1084146E+005  0.1043930E+01  0.7957747E-01            NaN
         13   -1    0    0    0    0  0.00000000000E+00  0.00000000000E+00  0.74505805969E-08  0.10566000000E+00  0.10566000000E+00 0. -1.
     999900   -1    0    0    0    0 -0.00000000000E+00 -0.00000000000E+00 -0.74505805969E-08  0.93827000000E+00  0.93827000000E+00 0. -1.
     999902    2    1    2    0    0 -0.32762987620E-02  0.78306709996E-02 -0.22837594194E-01  0.10195659024E+01  0.10192747520E+01 0.  0.
         14    1    1    2    0    0  0.32762987620E-02 -0.78306709996E-02  0.22837594194E-01  0.24364097571E-01  0.00000000000E+00 0. -1.
     999901    1    3    3    0    0  0.31453987304E-01 -0.36898295809E-01 -0.13185384040E+00  0.89114323920E+00  0.88000000000E+00 0. -1.
        -11    1    3    3    0    0  0.34730345344E-02  0.50655600305E-02  0.38294473134E-01  0.38787235799E-01  0.51100000000E-03 0. -1.
         11    1    3    3    0    0 -0.38203320600E-01  0.39663406778E-01  0.70721773073E-01  0.89635427426E-01  0.51100000000E-03 0.  1.
</event>
<event>
 8    1  0.1084146E+005  0.1043930E+01  0.7957747E-01            NaN
         13   -1    0    0    0    0  0.00000000000E+00  0.00000000000E+00  0.74505805969E-08  0.10566000000E+00  0.10566000000E+00 0.  1.
     999900   -1    0    0    0    0 -0.00000000000E+00 -0.00000000000E+00 -0.74505805969E-08  0.93827000000E+00  0.93827000000E+00 0.  1.
     999902    2    1    2    0    0  0.80549636486E-02 -0.22384672785E-01  0.13084326536E-02  0.10201042154E+01  0.10198259373E+01 0.  0.
     999903    2    3    3    0    0  0.76978033074E-01 -0.10702219276E+00  0.22845850520E-02  0.13336025453E+00  0.20009268863E-01 0.  0.
         14    1    1    2    0    0 -0.80549636486E-02  0.22384672785E-01 -0.13084326536E-02  0.23825784585E-01  0.00000000000E+00 0. -1.
     999901    1    3    3    0    0 -0.68923069426E-01  0.84637519978E-01 -0.97615239835E-03  0.88674396088E+00  0.88000000000E+00 0.  1.
        -11    1    4    4    0    0  0.18126845915E-01 -0.41298244873E-01 -0.11250465625E-03  0.45104338491E-01  0.51100000000E-03 0.  1.
         11    1    4    4    0    0  0.58851187160E-01 -0.65723947890E-01  0.23970897082E-02  0.88255916042E-01  0.51100000000E-03 0. -1.
</event>
<event>
 8    1  0.1084146E+005  0.1043930E+01  0.7957747E-01            NaN
         13   -1    0    0    0    0  0.00000000000E+00  0.00000000000E+00  0.74505805969E-08  0.10566000000E+00  0.10566000000E+00 0.  1.
     999900   -1    0    0    0    0 -0.00000000000E+00 -0.00000000000E+00 -0.74505805969E-08  0.93827000000E+00  0.93827000000E+00 0.  1.
     999902    2    1    2    0    0 -0.12459340607E-01 -0.15018890701E-01 -0.12519235266E-01  0.10207452313E+01  0.10204818929E+01 0.  0.
     999903    2    3    3    0    0  0.59437964215E-01  0.76069396493E-01 -0.84957371112E-01  0.13017598528E+00  0.20214043728E-01 0.  0.
         14    1    1    2    0    0  0.12459340607E-01  0.15018890701E-01  0.12519235266E-01  0.23184768661E-01  0.00000000000E+00 0.  1.
     999901    1    3    3    0    0 -0.71897304822E-01 -0.91088287194E-01  0.72438135846E-01  0.89056924606E+00  0.88000000000E+00 0.  1.
        -11    1    4    4    0    0  0.46271321704E-01  0.61861100466E-01 -0.56340665843E-01  0.95615703270E-01  0.51100000000E-03 0.  1.
         11    1    4    4    0    0  0.13166642511E-01  0.14208296027E-01 -0.28616705269E-01  0.34560282008E-01  0.51100000000E-03 0. -1.
</event>
<event>
 8    1  0.1084146E+005  0.1043930E+01  0.7957747E-01            NaN
         13   -1    0    0    0    0  0.00000000000E+00  0.00000000000E+00  0.74505805969E-08  0.10566000000E+00  0.10566000000E+00 0. -1.
     999900   -1    0    0    0    0 -0.00000000000E+00 -0.00000000000E+00 -0.74505805969E-08  0.93827000000E+00  0.93827000000E+00 0.  1.
     999902    2    1    2    0    0  0.13908002082E-01 -0.15934138228E-02 -0.19058748499E-01  0.10202824339E+01  0.10200083517E+01 0.  0.
     999903    2    3    3    0    0  0.44824210174E-01  0.97051862108E-01  0.69917179109E-01  0.12977504026E+00  0.22910158945E-01 0.  0.
         14    1    1    2    0    0 -0.13908002082E-01  0.15934138228E-02  0.19058748499E-01  0.23647566130E-01  0.00000000000E+00 0. -1.
     999901    1    3    3    0    0 -0.30916208092E-01 -0.98645275930E-01 -0.88975927608E-01  0.89050739361E+00  0.88000000000E+00 0.  1.
        -11    1    4    4    0    0  0.26924682428E-01  0.80607277008E-01  0.53054239020E-01  0.10018724983E+00  0.51100000000E-03 0. -1.
         11    1    4    4    0    0  0.17899527746E-01  0.16444585100E-01  0.16862940089E-01  0.29587790422E-01  0.51100000000E-03 0.  1.
</event>
<event>
 8    1  0.1084146E+005  0.1043930E+01  0.7957747E-01            NaN
         13   -1    0    0    0    0  0.00000000000E+00  0.00000000000E+00  0.74505805969E-08  0.10566000000E+00  0.10566000000E+00 0. -1.
     999900   -1    0    0    0    0 -0.00000000000E+00 -0.00000000000E+00 -0.74505805969E-08  0.93827000000E+00  0.93827000000E+00 0.  1.
     999902    2    1    2    0    0  0.13154747185E-01 -0.10729040723E-01  0.16810403675E-01  0.10200396388E+01  0.10197598322E+01 0.  0.
     999903    2    3    3    0    0  0.63869720720E-01 -0.92473190550E-01 -0.64624741004E-01  0.13105943799E+00  0.19224644128E-01 0.  0.
         14    1    1    2    0    0 -0.13154747185E-01  0.10729040723E-01 -0.16810403675E-01  0.23890361237E-01  0.00000000000E+00 0.  1.
     999901    1    3    3    0    0 -0.50714973535E-01  0.81744149827E-01  0.81435144679E-01  0.88898020077E+00  0.88000000000E+00 0. -1.
        -11    1    4    4    0    0  0.11801066079E-01 -0.64604816464E-02 -0.81548033500E-02  0.15740550257E-01  0.51100000000E-03 0. -1.
         11    1    4    4    0    0  0.52068654641E-01 -0.86012708904E-01 -0.56469937654E-01  0.11531888774E+00  0.51100000000E-03 0.  1.
</event>
<event>
 8    1  0.1084146E+005  0.1043930E+01  0.7957747E-01            NaN
         13   -1    0    0    0    0  0.00000000000E+00  0.00000000000E+00  0.74505805969E-08  0.10566000000E+00  0.10566000000E+00 0.  1.
     999900   -1    0    0    0    0 -0.00000000000E+00 -0.00000000000E+00 -0.74505805969E-08  0.93827000000E+00  0.93827000000E+00 0.  1.
     999902    2    1    2    0    0  0.47342643008E-02 -0.11208069071E-01 -0.22409521628E-01  0.10184305739E+01  0.10181112970E+01 0.  0.
     999903    2    3    3    0    0 -0.10060278441E+00 -0.74794005104E-01  0.21242455745E-01  0.12879887472E+00  0.20563189779E-01 0.  0.
         14    1    1    2    0    0 -0.47342643008E-02  0.11208069071E-01  0.22409521628E-01  0.25499426079E-01  0.00000000000E+00 0.  1.
     999901    1    3    3    0    0  0.10533704871E+00  0.63585936034E-01 -0.43651977373E-01  0.88963169920E+00  0.88000000000E+00 0.  1.
        -11    1    4    4    0    0 -0.63505486762E-01 -0.58528640347E-01  0.17472974388E-01  0.88114213069E-01  0.51100000000E-03 0. -1.
         11    1    4    4    0    0 -0.37097297644E-01 -0.16265364757E-01  0.37694813568E-02  0.40684661653E-01  0.51100000000E-03 0.  1.
</event>
<event>
 8    1  0.1084146E+005  0.1043930E+01  0.7957747E-01            NaN
         13   -1    0    0    0    0  0.00000000000E+00  0.00000000000E+00  0.74505805969E-08  0.10566000000E+00  0.10566000000E+00 0. -1.
     999900   -1    0    0    0    0 -0.00000000000E+00 -0.00000000000E+00 -0.74505805969E-08  0.93827000000E+00  0.93827000000E+00 0.  1.
     999902    2    1    2    0    0  0.51825178690E-02 -0.63261809399E-02  0.21947097761E-01  0.10205087670E+01  0.10202399665E+01 0.  0.
     999903    2    3    3    0    0  0.12047478782E+00 -0.11864327640E-02 -0.45596702236E-01  0.13040714949E+00  0.20282585131E-01 0.  0.
         14    1    1    2    0    0 -0.51825178690E-02  0.63261809399E-02 -0.21947097761E-01  0.23421233035E-01  0.00000000000E+00 0.  1.
     999901    1    3    3    0    0 -0.11529226995E+00 -0.51397481759E-02  0.67543799996E-01  0.89010161748E+00  0.88000000000E+00 0. -1.
        -11    1    4    4    0    0  0.54965222619E-01  0.95202029555E-02 -0.20018788807E-01  0.59269072780E-01  0.51100000000E-03 0. -1.
         11    1    4    4    0    0  0.65509565199E-01 -0.10706635720E-01 -0.25577913429E-01  0.71138076706E-01  0.51100000000E-03 0.  1.
</event>
<event>
 8    1  0.1084146E+005  0.1043930E+01  0.7957747E-01            NaN
         13   -1    0    0    0    0  0.00000000000E+00  0.00000000000E+00  0.74505805969E-08  0.10566000000E+00  0.10566000000E+00 0. -1.
     999900   -1    0    0    0    0 -0.00000000000E+00 -0.00000000000E+00 -0.74505805969E-08  0.93827000000E+00  0.93827000000E+00 0.  1.
     999902    2    1    2    0    0  0.10936098422E-01  0.36521036121E-02 -0.22023428466E-01  0.10190710477E+01  0.10187678012E+01 0.  0.
     999903    2    3    3    0    0  0.12854268122E+00  0.11453723226E-03  0.11639140517E-01  0.13060214487E+00  0.19955366159E-01 0.  0.
         14    1    1    2    0    0 -0.10936098422E-01 -0.36521036121E-02  0.22023428466E-01  0.24858952329E-01  0.00000000000E+00 0. -1.
     999901    1    3    3    0    0 -0.11760658280E+00  0.35375663799E-02 -0.33662568983E-01  0.88846890280E+00  0.88000000000E+00 0. -1.
        -11    1    4    4    0    0  0.80863176114E-01  0.42542208644E-02 -0.14265635534E-02  0.80989183543E-01  0.51100000000E-03 0.  1.
         11    1    4    4    0    0  0.47679505108E-01 -0.41396836321E-02  0.13065704070E-01  0.49612961328E-01  0.51100000000E-03 0. -1.
</event>
<event>
 8    1  0.1084146E+005  0.1043930E+01  0.7957747E-01            NaN
         13   -1    0    0    0    0  0.00000000000E+00  0.00000000000E+00  0.74505805969E-08  0.10566000000E+00  0.10566000000E+00 0.  1.
     999900   -1    0    0    0    0 -0.00000000000E+00 -0.00000000000E+00 -0.74505805969E-08  0.93827000000E+00  0.93827000000E+00 0. -1.
     999902    2    1    2    0    0 -0.13088345701E-01  0.14461151499E-01 -0.12012987179E-01  0.10210227619E+01  0.10207657610E+01 0.  0.
     999903    2    3    3    0    0 -0.74197491763E-01 -0.96388248274E-01  0.41758317030E-01  0.13034141018E+00  0.21193489044E-01 0.  0.
         14    1    1    2    0    0  0.13088345701E-01 -0.14461151499E-01  0.12012987179E-01  0.22907238088E-01  0.00000000000E+00 0.  1.
     999901    1    3    3    0    0  0.61109146062E-01  0.11084939977E+00 -0.53771304209E-01  0.89068135173E+00  0.88000000000E+00 0. -1.
        -11    1    4    4    0    0 -0.33399983514E-01 -0.57606518694E-01  0.28948351447E-01  0.72610867419E-01  0.51100000000E-03 0. -1.
         11    1    4    4    0    0 -0.40797508249E-01 -0.38781729580E-01  0.12809965584E-01  0.57730542764E-01  0.51100000000E-03 0.  1.
</event>
<event>
 8    1  0.1084146E+005  0.1043930E+01  0.7957747E-01            NaN
         13   -1    0    0    0    0  0.00000000000E+00  0.00000000000E+00  0.74505805969E-08  0.10566000000E+00  0.10566000000E+00 0.  1.
     999900   -1    0    0    0    0 -0.00000000000E+00 -0.00000000000E+00 -0.74505805969E-08  0.93827000000E+00  0.93827000000E+00 0. -1.
     999902    2    1    2    0    0  0.73114382694E-02 -0.18912434538E-01 -0.12742477532E-01  0.10199819720E+01  0.10197007969E+01 0.  0.
     999903    2    3    3    0    0 -0.38874044949E-01 -0.98676378524E-01  0.74053663721E-01  0.13092125659E+00  0.20204238818E-01 0.  0.
         14    1    1    2    0    0 -0.73114382694E-02  0.18912434538E-01  0.12742477532E-01  0.23948027964E-01  0.00000000000E+00 0.  1.
     999901    1    3    3    0    0  0.46185483218E-01  0.79763943987E-01 -0.86796141253E-01  0.88906071545E+00  0.88000000000E+00 0.  1.
        -11    1    4    4    0    0 -0.19052791162E-01 -0.48700198927E-01  0.48764357334E-01  0.71504838254E-01  0.51100000000E-03 0. -1.
         11    1    4    4    0    0 -0.19821253787E-01 -0.49976179597E-01  0.25289306387E-01  0.59416418332E-01  0.51100000000E-03 0.  1.
</event>
<event>
 8    1  0.1084146E+005  0.1043930E+01  0.7957747E-01            NaN
         13   -1    0    0    0    0  0.00000000000E+00  0.00000000000E+00  0.74505805969E-08  0.10566000000E+00  0.10566000000E+00 0.  1.
     999900   -1    0    0    0    0 -0.00000000000E+00 -0.00000000000E+00 -0.74505805969E-08  0.93827000000E+00  0.93827000000E+00 0.  1.
     999902    2    1    2    0    0  0.66197842438E-02  0.60729887810E-02  0.21697357729E-01  0.10204464298E+01  0.10201761799E+01 0.  0.
     999903    2    3    3    0    0 -0.12035253258E+00  0.37749685734E-01  0.27835132059E-01  0.13074813565E+00  0.20261034719E-01 0.  0.
         14    1    1    2    0    0 -0.66197842438E-02 -0.60729887810E-02 -0.21697357729E-01  0.23483570184E-01  0.00000000000E+00 0. -1.
     999901    1    3    3    0    0  0.12697231682E+00 -0.31676696953E-01 -0.61377743301E-02  0.88969829417E+00  0.88000000000E+00 0. -1.
        -11    1    4    4    0    0 -0.27977659533E-01  0.32338664981E-02  0.13003092266E-01  0.31024971474E-01  0.51100000000E-03 0.  1.
         11    1    4    4    0    0 -0.92374873046E-01  0.34515819236E-01  0.14832039793E-01  0.99723164176E-01  0.51100000000E-03 0. -1.
</event>
<event>
 8    1  0.1084146E+005  0.1043930E+01  0.7957747E-01            NaN
         13   -1    0    0    0    0  0.00000000000E+00  0.00000000000E+00  0.74505805969E-08  0.10566000000E+00  0.10566000000E+00 0. -1.
     999900   -1    0    0    0    0 -0.00000000000E+00 -0.00000000000E+00 -0.74505805969E-08  0.93827000000E+00  0.93827000000E+00 0. -1.
     999902    2    1    2    0    0  0.17840680049E-01  0.99352797125E-02 -0.11085314194E-01  0.10206945995E+01  0.10204300963E+01 0.  0.
     999903    2    3    3    0    0  0.20841855142E-01  0.33068026416E-01 -0.12551996300E+00  0.13297875536E+00  0.20005273502E-01 0.  0.
         14    1    1    2    0    0 -0.17840680049E-01 -0.99352797125E-02  0.11085314194E-01  0.23235400543E-01  0.00000000000E+00 0. -1.
     999901    1    3    3    0    0 -0.30011750925E-02 -0.23132746704E-01  0.11443464881E+00  0.88771584410E+00  0.88000000000E+00 0.  1.
        -11    1    4    4    0    0  0.12235422917E-01  0.13074816280E-01 -0.86115574944E-01  0.87959136897E-01  0.51100000000E-03 0.  1.
         11    1    4    4    0    0  0.86064322249E-02  0.19993210136E-01 -0.39404388055E-01  0.45019618459E-01  0.51100000000E-03 0. -1.
</event>
<event>
 8    1  0.1084146E+005  0.1043930E+01  0.7957747E-01            NaN
         13   -1    0    0    0    0  0.00000000000E+00  0.00000000000E+00  0.74505805969E-08  0.10566000000E+00  0.10566000000E+00 0.  1.
     999900   -1    0    0    0    0 -0.00000000000E+00 -0.00000000000E+00 -0.74505805969E-08  0.93827000000E+00  0.93827000000E+00 0. -1.
     999902    2    1    2    0    0  0.57747421479E-02 -0.18047812515E-01 -0.12820621027E-01  0.10210511996E+01  0.10207948436E+01 0.  0.
     999903    2    3    3    0    0 -0.99382270458E-01 -0.22728149761E-01  0.78347407569E-01  0.13010141860E+00  0.19866010569E-01 0.  0.
         14    1    1    2    0    0 -0.57747421479E-02  0.18047812515E-01  0.12820621027E-01  0.22878800383E-01  0.00000000000E+00 0. -1.
     999901    1    3    3    0    0  0.10515701261E+00  0.46803372460E-02 -0.91168028596E-01  0.89094978102E+00  0.88000000000E+00 0.  1.
        -11    1    4    4    0    0 -0.38470752980E-01  0.93660330777E-03  0.30580919536E-01  0.49156177855E-01  0.51100000000E-03 0.  1.
         11    1    4    4    0    0 -0.60911517478E-01 -0.23664753069E-01  0.47766488032E-01  0.80945240745E-01  0.51100000000E-03 0. -1.
</event>
<event>
 8    1  0.1084146E+005  0.1043930E+01  0.7957747E-01            NaN
         13   -1    0    0    0    0  0.00000000000E+00  0.00000000000E+00  0.74505805969E-08  0.10566000000E+00  0.10566000000E+00 0. -1.
     999900   -1    0    0    0    0 -0.00000000000E+00 -0.00000000000E+00 -0.74505805969E-08  0.93827000000E+00  0.93827000000E+00 0.  1.
     999902    2    1    2    0    0  0.25790803082E-02  0.20981636053E-01  0.10147860550E-01  0.10204809109E+01  0.10202114632E+01 0.  0.
     999903    2    3    3    0    0  0.38370050233E-01  0.58562788684E-01 -0.10707508850E+00  0.13119211845E+00  0.29059187755E-01 0.  0.
         14    1    1    2    0    0 -0.25790803082E-02 -0.20981636053E-01 -0.10147860550E-01  0.23449089118E-01  0.00000000000E+00 0.  1.
     999901    1    3    3    0    0 -0.35790969925E-01 -0.37581152631E-01  0.11722294905E+00  0.88928879243E+00  0.88000000000E+00 0. -1.
        -11    1    4    4    0    0  0.30863826585E-01  0.35082664284E-01 -0.47105589156E-01  0.66351840785E-01  0.51100000000E-03 0.  1.
         11    1    4    4    0    0  0.75062236476E-02  0.23480124400E-01 -0.59969499343E-01  0.64840277666E-01  0.51100000000E-03 0. -1.
</event>
<event>
 8    1  0.1084146E+005  0.1043930E+01  0.7957747E-01            NaN
         13   -1    0    0    0    0  0.00000000000E+00  0.00000000000E+00  0.74505805969E-08  0.10566000000E+00  0.10566000000E+00 0. -1.
     999900   -1    0    0    0    0 -0.00000000000E+00 -0.00000000000E+00 -0.74505805969E-08  0.93827000000E+00  0.93827000000E+00 0. -1.
     999902    2    1    2    0    0  0.44875853038E-03 -0.86420829019E-02  0.15861097853E-01  0.10258617570E+01  0.10257026289E+01 0.  0.
     999903    2    3    3    0    0 -0.43318191072E-01 -0.14115332635E-02  0.12897723342E+00  0.13751324042E+00  0.19907446992E-01 0.  0.
         14    1    1    2    0    0 -0.44875853038E-03  0.86420829019E-02 -0.15861097853E-01  0.18068243030E-01  0.00000000000E+00 0. -1.
     999901    1    3    3    0    0  0.43766949603E-01 -0.72305496384E-02 -0.11311613557E+00  0.88834851655E+00  0.88000000000E+00 0. -1.
        -11    1    4    4    0    0 -0.15647879250E-01 -0.36122304707E-02  0.23672496979E-01  0.28610357709E-01  0.51100000000E-03 0. -1.
         11    1    4    4    0    0 -0.27670311822E-01  0.22006972072E-02  0.10530473645E+00  0.10890288271E+00  0.51100000000E-03 0.  1.
</event>
<event>
 8    1  0.1084146E+005  0.1043930E+01  0.7957747E-01            NaN
         13   -1    0    0    0    0  0.00000000000E+00  0.00000000000E+00  0.74505805969E-08  0.10566000000E+00  0.10566000000E+00 0. -1.
     999900   -1    0    0    0    0 -0.00000000000E+00 -0.00000000000E+00 -0.74505805969E-08  0.93827000000E+00  0.93827000000E+00 0. -1.
     999902    2    1    2    0    0 -0.17427189563E-01 -0.11042533678E-01 -0.11263436298E-01  0.10204244797E+01  0.10201537185E+01 0.  0.
     999903    2    3    3    0    0  0.29937222175E-01  0.10060394612E+00 -0.73460028659E-01  0.12993206536E+00  0.21646582895E-01 0.  0.
         14    1    1    2    0    0  0.17427189563E-01  0.11042533678E-01  0.11263436298E-01  0.23505520273E-01  0.00000000000E+00 0.  1.
     999901    1    3    3    0    0 -0.47364411737E-01 -0.11164647980E+00  0.62196592361E-01  0.89049241437E+00  0.88000000000E+00 0.  1.
        -11    1    4    4    0    0  0.85779802818E-02  0.42244538247E-01 -0.42355559129E-01  0.60435397472E-01  0.51100000000E-03 0. -1.
         11    1    4    4    0    0  0.21359241893E-01  0.58359407871E-01 -0.31104469530E-01  0.69496667884E-01  0.51100000000E-03 0.  1.
</event>
