<event>
 8    1  0.5716970E+005  0.1043930E+01  0.7957747E-01            NaN
         13   -1    0    0    0    0  0.00000000000E+00  0.00000000000E+00  0.74505805969E-08  0.10566000000E+00  0.10566000000E+00 0. -1.
     999900   -1    0    0    0    0 -0.00000000000E+00 -0.00000000000E+00 -0.74505805969E-08  0.93827000000E+00  0.93827000000E+00 0.  1.
     999902    2    1    2    0    0 -0.59921387238E-02  0.17273243533E-02  0.23359131166E-01  0.10197527714E+01  0.10194661232E+01 0.  0.
     999903    2    3    3    0    0 -0.62489123809E-01  0.59532930863E-01  0.14737757639E+00  0.17173215119E+00  0.17964444838E-01 0.  0.
         14    1    1    2    0    0  0.59921387238E-02 -0.17273243533E-02 -0.23359131166E-01  0.24177228641E-01  0.00000000000E+00 0.  1.
     999901    1    3    3    0    0  0.56496985085E-01 -0.57805606509E-01 -0.12401844523E+00  0.84802062016E+00  0.83500000000E+00 0.  1.
        -11    1    4    4    0    0 -0.54870966987E-01  0.49915675982E-01  0.11249056236E+00  0.13474711673E+00  0.51100000000E-03 0. -1.
         11    1    4    4    0    0 -0.76181568221E-02  0.96172548801E-02  0.34887014039E-01  0.36985034464E-01  0.51100000000E-03 0.  1.
</event>
<event>
 8    1  0.5716970E+005  0.1043930E+01  0.7957747E-01            NaN
         13   -1    0    0    0    0  0.00000000000E+00  0.00000000000E+00  0.74505805969E-08  0.10566000000E+00  0.10566000000E+00 0. -1.
     999900   -1    0    0    0    0 -0.00000000000E+00 -0.00000000000E+00 -0.74505805969E-08  0.93827000000E+00  0.93827000000E+00 0. -1.
     999902    2    1    2    0    0 -0.12961469663E-01  0.47684288388E-02 -0.18676377663E-01  0.10207018987E+01  0.10204375636E+01 0.  0.
     999903    2    3    3    0    0 -0.82739839784E-01  0.10593102757E-01  0.14347682624E+00  0.16722570725E+00  0.20512010736E-01 0.  0.
         14    1    1    2    0    0  0.12961469663E-01 -0.47684288388E-02  0.18676377663E-01  0.23228101344E-01  0.00000000000E+00 0. -1.
     999901    1    3    3    0    0  0.69778370121E-01 -0.58246739177E-02 -0.16215320390E+00  0.85347619141E+00  0.83500000000E+00 0. -1.
        -11    1    4    4    0    0 -0.57624173704E-01  0.16312769921E-01  0.94360271638E-01  0.11176213063E+00  0.51100000000E-03 0. -1.
         11    1    4    4    0    0 -0.25115666080E-01 -0.57196671641E-02  0.49116554600E-01  0.55463576624E-01  0.51100000000E-03 0.  1.
</event>
<event>
 8    1  0.5716970E+005  0.1043930E+01  0.7957747E-01            NaN
         13   -1    0    0    0    0  0.00000000000E+00  0.00000000000E+00  0.74505805969E-08  0.10566000000E+00  0.10566000000E+00 0.  1.
     999900   -1    0    0    0    0 -0.00000000000E+00 -0.00000000000E+00 -0.74505805969E-08  0.93827000000E+00  0.93827000000E+00 0. -1.
     999902    2    1    2    0    0 -0.62744077861E-02 -0.92157979866E-02  0.20159157525E-01  0.10208932737E+01  0.10206333257E+01 0.  0.
     999903    2    3    3    0    0  0.12788068568E+00  0.10587314706E+00 -0.27045487823E-02  0.16708369106E+00  0.18629336950E-01 0.  0.
         14    1    1    2    0    0  0.62744077861E-02  0.92157979866E-02 -0.20159157525E-01  0.23036726281E-01  0.00000000000E+00 0. -1.
     999901    1    3    3    0    0 -0.13415509346E+00 -0.11508894505E+00  0.22863706308E-01  0.85380958266E+00  0.83500000000E+00 0.  1.
        -11    1    4    4    0    0  0.44974307985E-01  0.48257134329E-01  0.21816191541E-02  0.66003484572E-01  0.51100000000E-03 0. -1.
         11    1    4    4    0    0  0.82906377692E-01  0.57616012735E-01 -0.48861679365E-02  0.10108020649E+00  0.51100000000E-03 0.  1.
</event>
<event>
 8    1  0.5716970E+005  0.1043930E+01  0.7957747E-01            NaN
         13   -1    0    0    0    0  0.00000000000E+00  0.00000000000E+00  0.74505805969E-08  0.10566000000E+00  0.10566000000E+00 0.  1.
     999900   -1    0    0    0    0 -0.00000000000E+00 -0.00000000000E+00 -0.74505805969E-08  0.93827000000E+00  0.93827000000E+00 0.  1.
     999902    2    1    2    0    0 -0.22723312852E-03  0.10160885037E-01  0.20941348613E-01  0.10206526440E+01  0.10203871738E+01 0.  0.
     999903    2    3    3    0    0 -0.15406693494E+00  0.23931288719E-01 -0.58551752484E-01  0.16777490894E+00  0.20267839822E-01 0.  0.
         14    1    1    2    0    0  0.22723312852E-03 -0.10160885037E-01 -0.20941348613E-01  0.23277355979E-01  0.00000000000E+00 0. -1.
     999901    1    3    3    0    0  0.15383970181E+00 -0.13770403682E-01  0.79493101097E-01  0.85287773508E+00  0.83500000000E+00 0.  1.
        -11    1    4    4    0    0 -0.12406233067E+00  0.16735361232E-01 -0.38502402994E-01  0.13097415914E+00  0.51100000000E-03 0. -1.
         11    1    4    4    0    0 -0.30004604271E-01  0.71959274869E-02 -0.20049349489E-01  0.36800749800E-01  0.51100000000E-03 0.  1.
</event>
<event>
 8    1  0.5716970E+005  0.1043930E+01  0.7957747E-01            NaN
         13   -1    0    0    0    0  0.00000000000E+00  0.00000000000E+00  0.74505805969E-08  0.10566000000E+00  0.10566000000E+00 0.  1.
     999900   -1    0    0    0    0 -0.00000000000E+00 -0.00000000000E+00 -0.74505805969E-08  0.93827000000E+00  0.93827000000E+00 0. -1.
     999902    2    1    2    0    0  0.96293543929E-02 -0.15545270918E-01 -0.16277294281E-01  0.10194487782E+01  0.10191547876E+01 0.  0.
     999903    2    3    3    0    0 -0.11835077807E+00  0.52223723900E-01  0.99137210667E-01  0.16416107281E+00  0.19658262393E-01 0.  0.
         14    1    1    2    0    0 -0.96293543929E-02  0.15545270918E-01  0.16277294281E-01  0.24481221845E-01  0.00000000000E+00 0. -1.
     999901    1    3    3    0    0  0.12798013246E+00 -0.67768994818E-01 -0.11541450495E+00  0.85528770535E+00  0.83500000000E+00 0. -1.
        -11    1    4    4    0    0 -0.28661098683E-01  0.17931035149E-01  0.35140966278E-01  0.48766066390E-01  0.51100000000E-03 0.  1.
         11    1    4    4    0    0 -0.89689679383E-01  0.34292688751E-01  0.63996244389E-01  0.11539500642E+00  0.51100000000E-03 0. -1.
</event>
<event>
 8    1  0.5716970E+005  0.1043930E+01  0.7957747E-01            NaN
         13   -1    0    0    0    0  0.00000000000E+00  0.00000000000E+00  0.74505805969E-08  0.10566000000E+00  0.10566000000E+00 0.  1.
     999900   -1    0    0    0    0 -0.00000000000E+00 -0.00000000000E+00 -0.74505805969E-08  0.93827000000E+00  0.93827000000E+00 0.  1.
     999902    2    1    2    0    0 -0.11991058010E-01 -0.15283766483E-01 -0.19512669917E-01  0.10163959615E+01  0.10160229462E+01 0.  0.
     999903    2    3    3    0    0 -0.14444971981E+00  0.47505521317E-03  0.77306679620E-01  0.16528338138E+00  0.21824898989E-01 0.  0.
         14    1    1    2    0    0  0.11991058010E-01  0.15283766483E-01  0.19512669917E-01  0.27534038523E-01  0.00000000000E+00 0.  1.
     999901    1    3    3    0    0  0.13245866180E+00 -0.15758821696E-01 -0.96819349537E-01  0.85111258009E+00  0.83500000000E+00 0.  1.
        -11    1    4    4    0    0 -0.40579477325E-01 -0.90229700342E-02  0.18065473646E-01  0.45329134420E-01  0.51100000000E-03 0.  1.
         11    1    4    4    0    0 -0.10387024249E+00  0.94980252474E-02  0.59241205974E-01  0.11995424696E+00  0.51100000000E-03 0. -1.
</event>
<event>
 8    1  0.5716970E+005  0.1043930E+01  0.7957747E-01            NaN
         13   -1    0    0    0    0  0.00000000000E+00  0.00000000000E+00  0.74505805969E-08  0.10566000000E+00  0.10566000000E+00 0.  1.
     999900   -1    0    0    0    0 -0.00000000000E+00 -0.00000000000E+00 -0.74505805969E-08  0.93827000000E+00  0.93827000000E+00 0.  1.
     999902    2    1    2    0    0 -0.27907810315E-02  0.12212009272E-01 -0.18846972063E-01  0.10212997109E+01  0.10210489555E+01 0.  0.
     999903    2    3    3    0    0 -0.72153178946E-01  0.54401633757E-01 -0.14566606169E+00  0.17283097950E+00  0.22052821994E-01 0.  0.
         14    1    1    2    0    0  0.27907810315E-02 -0.12212009272E-01  0.18846972063E-01  0.22630289109E-01  0.00000000000E+00 0.  1.
     999901    1    3    3    0    0  0.69362397915E-01 -0.42189624485E-01  0.12681908963E+00  0.84846873139E+00  0.83500000000E+00 0. -1.
        -11    1    4    4    0    0 -0.42192503821E-01  0.20740995582E-01 -0.86547163701E-01  0.98494004600E-01  0.51100000000E-03 0.  1.
         11    1    4    4    0    0 -0.29960675125E-01  0.33660638176E-01 -0.59118897989E-01  0.74336974897E-01  0.51100000000E-03 0. -1.
</event>
<event>
 8    1  0.5716970E+005  0.1043930E+01  0.7957747E-01            NaN
         13   -1    0    0    0    0  0.00000000000E+00  0.00000000000E+00  0.74505805969E-08  0.10566000000E+00  0.10566000000E+00 0.  1.
     999900   -1    0    0    0    0 -0.00000000000E+00 -0.00000000000E+00 -0.74505805969E-08  0.93827000000E+00  0.93827000000E+00 0. -1.
     999902    2    1    2    0    0  0.34851029913E-02 -0.58149073487E-02 -0.22753326131E-01  0.10201882027E+01  0.10199119060E+01 0.  0.
     999903    2    3    3    0    0  0.13050001234E+00  0.10379207674E+00 -0.13686686930E-01  0.16845251474E+00  0.19643724343E-01 0.  0.
         14    1    1    2    0    0 -0.34851029913E-02  0.58149073487E-02  0.22753326131E-01  0.23741797328E-01  0.00000000000E+00 0.  1.
     999901    1    3    3    0    0 -0.12701490935E+00 -0.10960698409E+00 -0.90666392016E-02  0.85173568794E+00  0.83500000000E+00 0. -1.
        -11    1    4    4    0    0  0.66207273893E-01  0.43414461230E-01 -0.13101293596E-01  0.80250380530E-01  0.51100000000E-03 0.  1.
         11    1    4    4    0    0  0.64292738448E-01  0.60377615513E-01 -0.58539333338E-03  0.88202134206E-01  0.51100000000E-03 0. -1.
</event>
<event>
 8    1  0.5716970E+005  0.1043930E+01  0.7957747E-01            NaN
         13   -1    0    0    0    0  0.00000000000E+00  0.00000000000E+00  0.74505805969E-08  0.10566000000E+00  0.10566000000E+00 0. -1.
     999900   -1    0    0    0    0 -0.00000000000E+00 -0.00000000000E+00 -0.74505805969E-08  0.93827000000E+00  0.93827000000E+00 0. -1.
     999902    2    1    2    0    0  0.17962279248E-02  0.18696670924E-01 -0.47050765739E-02  0.10245668989E+01  0.10243839127E+01 0.  0.
     999903    2    3    3    0    0 -0.75228838830E-01 -0.62918145037E-01  0.13719219298E+00  0.17019363493E+00  0.22936965531E-01 0.  0.
         14    1    1    2    0    0 -0.17962279248E-02 -0.18696670924E-01  0.47050765739E-02  0.19363101094E-01  0.00000000000E+00 0. -1.
     999901    1    3    3    0    0  0.77025066755E-01  0.81614815961E-01 -0.14189726956E+00  0.85437326398E+00  0.83500000000E+00 0. -1.
        -11    1    4    4    0    0 -0.39362139146E-01 -0.21315104921E-01  0.73765795876E-01  0.86286531152E-01  0.51100000000E-03 0. -1.
         11    1    4    4    0    0 -0.35866699684E-01 -0.41603040116E-01  0.63426397107E-01  0.83907103776E-01  0.51100000000E-03 0.  1.
</event>
<event>
 8    1  0.5716970E+005  0.1043930E+01  0.7957747E-01            NaN
         13   -1    0    0    0    0  0.00000000000E+00  0.00000000000E+00  0.74505805969E-08  0.10566000000E+00  0.10566000000E+00 0.  1.
     999900   -1    0    0    0    0 -0.00000000000E+00 -0.00000000000E+00 -0.74505805969E-08  0.93827000000E+00  0.93827000000E+00 0. -1.
     999902    2    1    2    0    0 -0.20793339360E-01  0.10820410128E-01  0.29174788944E-02  0.10203089094E+01  0.10200354478E+01 0.  0.
     999903    2    3    3    0    0  0.57815081086E-02 -0.21485689005E-01  0.16578954219E+00  0.16854473105E+00  0.20642029835E-01 0.  0.
         14    1    1    2    0    0  0.20793339360E-01 -0.10820410128E-01 -0.29174788944E-02  0.23621090579E-01  0.00000000000E+00 0. -1.
     999901    1    3    3    0    0 -0.26574847468E-01  0.32306099133E-01 -0.16287206330E+00  0.85176417837E+00  0.83500000000E+00 0. -1.
        -11    1    4    4    0    0  0.92265755499E-02 -0.29384058072E-02  0.86431050925E-01  0.86973281013E-01  0.51100000000E-03 0. -1.
         11    1    4    4    0    0 -0.34450674413E-02 -0.18547283198E-01  0.79358491265E-01  0.81571450034E-01  0.51100000000E-03 0.  1.
</event>
<event>
 8    1  0.5716970E+005  0.1043930E+01  0.7957747E-01            NaN
         13   -1    0    0    0    0  0.00000000000E+00  0.00000000000E+00  0.74505805969E-08  0.10566000000E+00  0.10566000000E+00 0. -1.
     999900   -1    0    0    0    0 -0.00000000000E+00 -0.00000000000E+00 -0.74505805969E-08  0.93827000000E+00  0.93827000000E+00 0.  1.
     999902    2    1    2    0    0  0.14585417301E-01  0.17504649289E-02 -0.16818513012E-01  0.10215992834E+01  0.10213551953E+01 0.  0.
     999903    2    3    3    0    0 -0.12148786442E+00 -0.11296581753E+00 -0.16041524427E-01  0.16784207715E+00  0.19825620400E-01 0.  0.
         14    1    1    2    0    0 -0.14585417301E-01 -0.17504649289E-02  0.16818513012E-01  0.22330716631E-01  0.00000000000E+00 0. -1.
     999901    1    3    3    0    0  0.13607328172E+00  0.11471628246E+00 -0.77698858436E-03  0.85375720622E+00  0.83500000000E+00 0.  1.
        -11    1    4    4    0    0 -0.29616387622E-01 -0.18350497682E-01  0.10349607902E-02  0.34859768298E-01  0.51100000000E-03 0. -1.
         11    1    4    4    0    0 -0.91871476798E-01 -0.94615319850E-01 -0.17076485218E-01  0.13298230885E+00  0.51100000000E-03 0.  1.
</event>
<event>
 8    1  0.5716970E+005  0.1043930E+01  0.7957747E-01            NaN
         13   -1    0    0    0    0  0.00000000000E+00  0.00000000000E+00  0.74505805969E-08  0.10566000000E+00  0.10566000000E+00 0. -1.
     999900   -1    0    0    0    0 -0.00000000000E+00 -0.00000000000E+00 -0.74505805969E-08  0.93827000000E+00  0.93827000000E+00 0.  1.
     999902    2    1    2    0    0  0.53828034868E-02 -0.43249191085E-02  0.22928445645E-01  0.10199843716E+01  0.10197032535E+01 0.  0.
     999903    2    3    3    0    0  0.38383213470E-01 -0.72730169154E-01  0.14956619379E+00  0.17202775448E+00  0.21460508078E-01 0.  0.
         14    1    1    2    0    0 -0.53828034868E-02  0.43249191085E-02 -0.22928445645E-01  0.23945628377E-01  0.00000000000E+00 0.  1.
     999901    1    3    3    0    0 -0.33000409983E-01  0.68405250045E-01 -0.12663774814E+00  0.84795661714E+00  0.83500000000E+00 0.  1.
        -11    1    4    4    0    0  0.35045562686E-01 -0.58437515282E-01  0.10563313441E+00  0.12570503118E+00  0.51100000000E-03 0. -1.
         11    1    4    4    0    0  0.33376507846E-02 -0.14292653872E-01  0.43933059378E-01  0.46322723309E-01  0.51100000000E-03 0.  1.
</event>
<event>
 8    1  0.5716970E+005  0.1043930E+01  0.7957747E-01            NaN
         13   -1    0    0    0    0  0.00000000000E+00  0.00000000000E+00  0.74505805969E-08  0.10566000000E+00  0.10566000000E+00 0.  1.
     999900   -1    0    0    0    0 -0.00000000000E+00 -0.00000000000E+00 -0.74505805969E-08  0.93827000000E+00  0.93827000000E+00 0.  1.
     999902    2    1    2    0    0 -0.93795993250E-02  0.21575774230E-01  0.71211146963E-02  0.10193494957E+01  0.10190530865E+01 0.  0.
     999903    2    3    3    0    0 -0.15647283233E+00  0.33419977487E-02 -0.61064637301E-01  0.16855975283E+00  0.13732594060E-01 0.  0.
         14    1    1    2    0    0  0.93795993250E-02 -0.21575774230E-01 -0.71211146963E-02  0.24580504300E-01  0.00000000000E+00 0. -1.
     999901    1    3    3    0    0  0.14709323300E+00  0.18233776482E-01  0.68185751997E-01  0.85078974287E+00  0.83500000000E+00 0.  1.
        -11    1    4    4    0    0 -0.71308823442E-01 -0.49277707893E-02 -0.30173294474E-01  0.77588143721E-01  0.51100000000E-03 0. -1.
         11    1    4    4    0    0 -0.85164008884E-01  0.82697685380E-02 -0.30891342826E-01  0.90971609107E-01  0.51100000000E-03 0.  1.
</event>
<event>
 8    1  0.5716970E+005  0.1043930E+01  0.7957747E-01            NaN
         13   -1    0    0    0    0  0.00000000000E+00  0.00000000000E+00  0.74505805969E-08  0.10566000000E+00  0.10566000000E+00 0.  1.
     999900   -1    0    0    0    0 -0.00000000000E+00 -0.00000000000E+00 -0.74505805969E-08  0.93827000000E+00  0.93827000000E+00 0. -1.
     999902    2    1    2    0    0 -0.22734112299E-01 -0.31258258308E-03  0.56189482135E-02  0.10205097065E+01  0.10202409278E+01 0.  0.
     999903    2    3    3    0    0  0.31155330283E-01  0.11550045465E-01 -0.16257544427E+00  0.16695294349E+00  0.18397067856E-01 0.  0.
         14    1    1    2    0    0  0.22734112299E-01  0.31258258308E-03 -0.56189482135E-02  0.23420293527E-01  0.00000000000E+00 0. -1.
     999901    1    3    3    0    0 -0.53889442582E-01 -0.11862628048E-01  0.16819439248E+00  0.85355676298E+00  0.83500000000E+00 0.  1.
        -11    1    4    4    0    0  0.18991259555E-01  0.83566763543E-02 -0.13567733934E+00  0.13725561377E+00  0.51100000000E-03 0. -1.
         11    1    4    4    0    0  0.12164070728E-01  0.31933691109E-02 -0.26898104928E-01  0.29697329723E-01  0.51100000000E-03 0.  1.
</event>
<event>
 8    1  0.5716970E+005  0.1043930E+01  0.7957747E-01            NaN
         13   -1    0    0    0    0  0.00000000000E+00  0.00000000000E+00  0.74505805969E-08  0.10566000000E+00  0.10566000000E+00 0. -1.
     999900   -1    0    0    0    0 -0.00000000000E+00 -0.00000000000E+00 -0.74505805969E-08  0.93827000000E+00  0.93827000000E+00 0.  1.
     999902    2    1    2    0    0 -0.15552339963E-01  0.10057911847E-01  0.14361850153E-01  0.10204928583E+01  0.10202236884E+01 0.  0.
     999903    2    3    3    0    0 -0.14054116421E+00 -0.83131449747E-01 -0.40022524355E-01  0.16932358993E+00  0.20149910127E-01 0.  0.
         14    1    1    2    0    0  0.15552339963E-01 -0.10057911847E-01 -0.14361850153E-01  0.23437141653E-01  0.00000000000E+00 0.  1.
     999901    1    3    3    0    0  0.12498882425E+00  0.93189361595E-01  0.54384374508E-01  0.85116926841E+00  0.83500000000E+00 0. -1.
        -11    1    4    4    0    0 -0.89899321578E-01 -0.47462018445E-01 -0.16135840906E-01  0.10293278243E+00  0.51100000000E-03 0. -1.
         11    1    4    4    0    0 -0.50641842630E-01 -0.35669431302E-01 -0.23886683449E-01  0.66390807508E-01  0.51100000000E-03 0.  1.
</event>
<event>
 8    1  0.5716970E+005  0.1043930E+01  0.7957747E-01            NaN
         13   -1    0    0    0    0  0.00000000000E+00  0.00000000000E+00  0.74505805969E-08  0.10566000000E+00  0.10566000000E+00 0. -1.
     999900   -1    0    0    0    0 -0.00000000000E+00 -0.00000000000E+00 -0.74505805969E-08  0.93827000000E+00  0.93827000000E+00 0. -1.
     999902    2    1    2    0    0 -0.11394466886E-01 -0.14201827928E-01 -0.13443006301E-01  0.10212972757E+01  0.10210464657E+01 0.  0.
     999903    2    3    3    0    0  0.10256629333E+00  0.93266428748E-01 -0.92961952887E-01  0.16801845610E+00  0.19230331419E-01 0.  0.
         14    1    1    2    0    0  0.11394466886E-01  0.14201827928E-01  0.13443006301E-01  0.22632724329E-01  0.00000000000E+00 0. -1.
     999901    1    3    3    0    0 -0.11396076022E+00 -0.10746825668E+00  0.79518946587E-01  0.85327881957E+00  0.83500000000E+00 0. -1.
        -11    1    4    4    0    0  0.12974231025E-01  0.68030074147E-02 -0.46849704112E-02  0.15389010667E-01  0.51100000000E-03 0.  1.
         11    1    4    4    0    0  0.89592062307E-01  0.86463421333E-01 -0.88276982476E-01  0.15262944543E+00  0.51100000000E-03 0. -1.
</event>
<event>
 8    1  0.5716970E+005  0.1043930E+01  0.7957747E-01            NaN
         13   -1    0    0    0    0  0.00000000000E+00  0.00000000000E+00  0.74505805969E-08  0.10566000000E+00  0.10566000000E+00 0. -1.
     999900   -1    0    0    0    0 -0.00000000000E+00 -0.00000000000E+00 -0.74505805969E-08  0.93827000000E+00  0.93827000000E+00 0. -1.
     999902    2    1    2    0    0 -0.22489035928E-01  0.48786220566E-02 -0.22739862112E-02  0.10208057983E+01  0.10205438497E+01 0.  0.
     999903    2    3    3    0    0  0.62878386042E-01 -0.44906367426E-01 -0.14742312132E+00  0.16754182197E+00  0.19141894933E-01 0.  0.
         14    1    1    2    0    0  0.22489035928E-01 -0.48786220566E-02  0.22739862112E-02  0.23124201682E-01  0.00000000000E+00 0. -1.
     999901    1    3    3    0    0 -0.85367421970E-01  0.49784989483E-01  0.14514913511E+00  0.85326397635E+00  0.83500000000E+00 0.  1.
        -11    1    4    4    0    0  0.52255513745E-01 -0.39297424013E-01 -0.13625744683E+00  0.15113331595E+00  0.51100000000E-03 0. -1.
         11    1    4    4    0    0  0.10622872296E-01 -0.56089434137E-02 -0.11165674487E-01  0.16408506020E-01  0.51100000000E-03 0.  1.
</event>
<event>
 8    1  0.5716970E+005  0.1043930E+01  0.7957747E-01            NaN
         13   -1    0    0    0    0  0.00000000000E+00  0.00000000000E+00  0.74505805969E-08  0.10566000000E+00  0.10566000000E+00 0.  1.
     999900   -1    0    0    0    0 -0.00000000000E+00 -0.00000000000E+00 -0.74505805969E-08  0.93827000000E+00  0.93827000000E+00 0. -1.
     999902    2    1    2    0    0 -0.94614570084E-02  0.71643007400E-02 -0.18743491016E-01  0.10217452118E+01  0.10215043382E+01 0.  0.
     999903    2    3    3    0    0 -0.61774319277E-01 -0.42099911027E-01 -0.15440636341E+00  0.17274991550E+00  0.20315984182E-01 0.  0.
         14    1    1    2    0    0  0.94614570084E-02 -0.71643007400E-02  0.18743491016E-01  0.22184788240E-01  0.00000000000E+00 0.  1.
     999901    1    3    3    0    0  0.52312862268E-01  0.49264211767E-01  0.13566287240E+00  0.84899529626E+00  0.83500000000E+00 0.  1.
        -11    1    4    4    0    0 -0.26420829294E-01 -0.67412110867E-02 -0.48799373956E-01  0.55902988892E-01  0.51100000000E-03 0.  1.
         11    1    4    4    0    0 -0.35353489983E-01 -0.35358699940E-01 -0.10560698946E+00  0.11684692661E+00  0.51100000000E-03 0. -1.
</event>
<event>
 8    1  0.5716970E+005  0.1043930E+01  0.7957747E-01            NaN
         13   -1    0    0    0    0  0.00000000000E+00  0.00000000000E+00  0.74505805969E-08  0.10566000000E+00  0.10566000000E+00 0. -1.
     999900   -1    0    0    0    0 -0.00000000000E+00 -0.00000000000E+00 -0.74505805969E-08  0.93827000000E+00  0.93827000000E+00 0.  1.
     999902    2    1    2    0    0  0.98819585702E-02 -0.21195564097E-01 -0.58220303092E-02  0.10198301851E+01  0.10195453915E+01 0.  0.
     999903    2    3    3    0    0  0.10698980920E-02 -0.15439727116E+00  0.70223175292E-01  0.17081415432E+00  0.20162314960E-01 0.  0.
         14    1    1    2    0    0 -0.98819585702E-02  0.21195564097E-01  0.58220303092E-02  0.24099814926E-01  0.00000000000E+00 0.  1.
     999901    1    3    3    0    0  0.88120604783E-02  0.13320170707E+00 -0.76045205601E-01  0.84901603075E+00  0.83500000000E+00 0.  1.
        -11    1    4    4    0    0  0.10406330709E-01 -0.65505893398E-01  0.30176599826E-01  0.72871133426E-01  0.51100000000E-03 0. -1.
         11    1    4    4    0    0 -0.93364326169E-02 -0.88891377765E-01  0.40046575466E-01  0.97943020898E-01  0.51100000000E-03 0.  1.
</event>
<event>
 8    1  0.5716970E+005  0.1043930E+01  0.7957747E-01            NaN
         13   -1    0    0    0    0  0.00000000000E+00  0.00000000000E+00  0.74505805969E-08  0.10566000000E+00  0.10566000000E+00 0. -1.
     999900   -1    0    0    0    0 -0.00000000000E+00 -0.00000000000E+00 -0.74505805969E-08  0.93827000000E+00  0.93827000000E+00 0.  1.
     999902    2    1    2    0    0  0.99105856944E-02 -0.16614375800E-01  0.13250053589E-01  0.10204817354E+01  0.10202123069E+01 0.  0.
     999903    2    3    3    0    0  0.12142840231E+00  0.98208812314E-01  0.61052482707E-01  0.16893569427E+00  0.20543501417E-01 0.  0.
         14    1    1    2    0    0 -0.99105856944E-02  0.16614375800E-01 -0.13250053589E-01  0.23448264587E-01  0.00000000000E+00 0.  1.
     999901    1    3    3    0    0 -0.11151781662E+00 -0.11482318811E+00 -0.47802429118E-01  0.85154604114E+00  0.83500000000E+00 0.  1.
        -11    1    4    4    0    0  0.71783720599E-01  0.67759487220E-01  0.31449159790E-01  0.10360290258E+00  0.51100000000E-03 0. -1.
         11    1    4    4    0    0  0.49644681713E-01  0.30449325094E-01  0.29603322917E-01  0.65332791688E-01  0.51100000000E-03 0.  1.
</event>
<event>
 8    1  0.5716970E+005  0.1043930E+01  0.7957747E-01            NaN
         13   -1    0    0    0    0  0.00000000000E+00  0.00000000000E+00  0.74505805969E-08  0.10566000000E+00  0.10566000000E+00 0. -1.
     999900   -1    0    0    0    0 -0.00000000000E+00 -0.00000000000E+00 -0.74505805969E-08  0.93827000000E+00  0.93827000000E+00 0. -1.
     999902    2    1    2    0    0 -0.22970602680E-01 -0.72284399572E-02  0.44287080955E-02  0.10194450580E+01  0.10191509769E+01 0.  0.
     999903    2    3    3    0    0 -0.16250352325E-01 -0.10225019124E+00  0.13244792416E+00  0.16933435065E+00  0.20309951725E-01 0.  0.
         14    1    1    2    0    0  0.22970602680E-01  0.72284399572E-02 -0.44287080955E-02  0.24484942048E-01  0.00000000000E+00 0. -1.
     999901    1    3    3    0    0 -0.67202503548E-02  0.95021751282E-01 -0.12801921606E+00  0.85011070730E+00  0.83500000000E+00 0. -1.
        -11    1    4    4    0    0 -0.19402396394E-01 -0.61945041692E-01  0.86111861992E-01  0.10783856023E+00  0.51100000000E-03 0.  1.
         11    1    4    4    0    0  0.31520440690E-02 -0.40305149547E-01  0.46336062164E-01  0.61495790423E-01  0.51100000000E-03 0. -1.
</event>
<event>
 8    1  0.5716970E+005  0.1043930E+01  0.7957747E-01            NaN
         13   -1    0    0    0    0  0.00000000000E+00  0.00000000000E+00  0.74505805969E-08  0.10566000000E+00  0.10566000000E+00 0. -1.
     999900   -1    0    0    0    0 -0.00000000000E+00 -0.00000000000E+00 -0.74505805969E-08  0.93827000000E+00  0.93827000000E+00 0.  1.
     999902    2    1    2    0    0  0.12757201337E-01  0.19137217375E-01 -0.26800351782E-02  0.10207748307E+01  0.10205121720E+01 0.  0.
     999903    2    3    3    0    0 -0.14166226699E+00 -0.77464367645E-01 -0.31070728373E-01  0.16566766209E+00  0.20284426458E-01 0.  0.
         14    1    1    2    0    0 -0.12757201337E-01 -0.19137217375E-01  0.26800351782E-02  0.23155169258E-01  0.00000000000E+00 0.  1.
     999901    1    3    3    0    0  0.15441946832E+00  0.96601585021E-01  0.28390693195E-01  0.85510716866E+00  0.83500000000E+00 0.  1.
        -11    1    4    4    0    0 -0.65482854021E-01 -0.26565174413E-01 -0.19573839425E-01  0.73328773160E-01  0.51100000000E-03 0. -1.
         11    1    4    4    0    0 -0.76179412967E-01 -0.50899193233E-01 -0.11496888948E-01  0.92338888926E-01  0.51100000000E-03 0.  1.
</event>
<event>
 8    1  0.5716970E+005  0.1043930E+01  0.7957747E-01            NaN
         13   -1    0    0    0    0  0.00000000000E+00  0.00000000000E+00  0.74505805969E-08  0.10566000000E+00  0.10566000000E+00 0.  1.
     999900   -1    0    0    0    0 -0.00000000000E+00 -0.00000000000E+00 -0.74505805969E-08  0.93827000000E+00  0.93827000000E+00 0.  1.
     999902    2    1    2    0    0  0.71784495261E-03 -0.11601231408E-01 -0.20930034951E-01  0.10199890260E+01  0.10197080185E+01 0.  0.
     999903    2    3    3    0    0  0.10509108824E+00 -0.56753029746E-01  0.11451438655E+00  0.16646535903E+00  0.18224374273E-01 0.  0.
         14    1    1    2    0    0 -0.71784495261E-03  0.11601231408E-01  0.20930034951E-01  0.23940973970E-01  0.00000000000E+00 0.  1.
     999901    1    3    3    0    0 -0.10437324329E+00  0.45151798338E-01 -0.13544442150E+00  0.85352366700E+00  0.83500000000E+00 0.  1.
        -11    1    4    4    0    0  0.34975813066E-01 -0.10079577077E-01  0.38855509826E-01  0.53243939923E-01  0.51100000000E-03 0.  1.
         11    1    4    4    0    0  0.70115275176E-01 -0.46673452669E-01  0.75658876726E-01  0.11322141911E+00  0.51100000000E-03 0. -1.
</event>
<event>
 7    1  0.5716970E+005  0.1043930E+01  0.7957747E-01            NaN
         13   -1    0    0    0    0  0.00000000000E+00  0.00000000000E+00  0.74505805969E-08  0.10566000000E+00  0.10566000000E+00 0. -1.
     999900   -1    0    0    0    0 -0.00000000000E+00 -0.00000000000E+00 -0.74505805969E-08  0.93827000000E+00  0.93827000000E+00 0.  1.
     999902    2    1    2    0    0 -0.19437987694E-01  0.16014274483E-01 -0.78115612680E-03  0.10187327272E+01  0.10184210656E+01 0.  0.
         14    1    1    2    0    0  0.19437987694E-01 -0.16014274483E-01  0.78115612680E-03  0.25197272823E-01  0.00000000000E+00 0. -1.
     999901    1    3    3    0    0 -0.31466801129E-01  0.80978910732E-01 -0.14724382108E+00  0.85232240755E+00  0.83500000000E+00 0.  1.
        -11    1    3    3    0    0 -0.12692330664E-01 -0.40389862677E-01  0.62430562126E-01  0.75433894723E-01  0.51100000000E-03 0. -1.
         11    1    3    3    0    0  0.24721144099E-01 -0.24574773572E-01  0.84032102832E-01  0.90976424908E-01  0.51100000000E-03 0.  1.
</event>
<event>
 8    1  0.5716970E+005  0.1043930E+01  0.7957747E-01            NaN
         13   -1    0    0    0    0  0.00000000000E+00  0.00000000000E+00  0.74505805969E-08  0.10566000000E+00  0.10566000000E+00 0.  1.
     999900   -1    0    0    0    0 -0.00000000000E+00 -0.00000000000E+00 -0.74505805969E-08  0.93827000000E+00  0.93827000000E+00 0. -1.
     999902    2    1    2    0    0  0.43779324192E-02  0.19951921872E-02 -0.25547199085E-01  0.10179337221E+01  0.10176017178E+01 0.  0.
     999903    2    3    3    0    0 -0.56956421168E-01 -0.83782495824E-01  0.12577435903E+00  0.16280628793E+00  0.20570791957E-01 0.  0.
         14    1    1    2    0    0 -0.43779324192E-02 -0.19951921872E-02  0.25547199085E-01  0.25996277911E-01  0.00000000000E+00 0.  1.
     999901    1    3    3    0    0  0.61334353588E-01  0.85777688011E-01 -0.15132155812E+00  0.85512743415E+00  0.83500000000E+00 0. -1.
        -11    1    4    4    0    0 -0.20826321632E-01 -0.40846404231E-01  0.43409210426E-01  0.63140993674E-01  0.51100000000E-03 0.  1.
         11    1    4    4    0    0 -0.36130099537E-01 -0.42936091593E-01  0.82365148609E-01  0.99665294261E-01  0.51100000000E-03 0. -1.
</event>
<event>
 8    1  0.5716970E+005  0.1043930E+01  0.7957747E-01            NaN
         13   -1    0    0    0    0  0.00000000000E+00  0.00000000000E+00  0.74505805969E-08  0.10566000000E+00  0.10566000000E+00 0. -1.
     999900   -1    0    0    0    0 -0.00000000000E+00 -0.00000000000E+00 -0.74505805969E-08  0.93827000000E+00  0.93827000000E+00 0.  1.
     999902    2    1    2    0    0 -0.11618867215E-01 -0.87020357613E-03  0.20857087430E-01  0.10200391351E+01  0.10197593166E+01 0.  0.
     999903    2    3    3    0    0  0.10278008498E-01 -0.14968713524E+00  0.76833114730E-01  0.16975431932E+00  0.20033109959E-01 0.  0.
         14    1    1    2    0    0  0.11618867215E-01  0.87020357613E-03 -0.20857087430E-01  0.23890864900E-01  0.00000000000E+00 0.  1.
     999901    1    3    3    0    0 -0.21896875714E-01  0.14881693166E+00 -0.55976027301E-01  0.85028481578E+00  0.83500000000E+00 0.  1.
        -11    1    4    4    0    0  0.16173913750E-01 -0.10218286741E+00  0.50630168603E-01  0.11518076651E+00  0.51100000000E-03 0. -1.
         11    1    4    4    0    0 -0.58959052518E-02 -0.47504267822E-01  0.26202946127E-01  0.54573552814E-01  0.51100000000E-03 0.  1.
</event>
<event>
 8    1  0.5716970E+005  0.1043930E+01  0.7957747E-01            NaN
         13   -1    0    0    0    0  0.00000000000E+00  0.00000000000E+00  0.74505805969E-08  0.10566000000E+00  0.10566000000E+00 0.  1.
     999900   -1    0    0    0    0 -0.00000000000E+00 -0.00000000000E+00 -0.74505805969E-08  0.93827000000E+00  0.93827000000E+00 0. -1.
     999902    2    1    2    0    0  0.21172512653E-01 -0.33975092915E-02  0.11233935160E-01  0.10197221570E+01  0.10194347737E+01 0.  0.
     999903    2    3    3    0    0  0.12030445961E+00  0.32173686495E-01 -0.11258611513E+00  0.16904662681E+00  0.19819677418E-01 0.  0.
         14    1    1    2    0    0 -0.21172512653E-01  0.33975092915E-02 -0.11233935160E-01  0.24207842957E-01  0.00000000000E+00 0. -1.
     999901    1    3    3    0    0 -0.99131946955E-01 -0.35571195787E-01  0.12382005029E+00  0.85067553023E+00  0.83500000000E+00 0. -1.
        -11    1    4    4    0    0  0.20850370585E-01 -0.15588339151E-02 -0.22012537785E-01  0.30364137686E-01  0.51100000000E-03 0.  1.
         11    1    4    4    0    0  0.99454089023E-01  0.33732520410E-01 -0.90573577345E-01  0.13868248913E+00  0.51100000000E-03 0. -1.
</event>
<event>
 7    1  0.5716970E+005  0.1043930E+01  0.7957747E-01            NaN
         13   -1    0    0    0    0  0.00000000000E+00  0.00000000000E+00  0.74505805969E-08  0.10566000000E+00  0.10566000000E+00 0.  1.
     999900   -1    0    0    0    0 -0.00000000000E+00 -0.00000000000E+00 -0.74505805969E-08  0.93827000000E+00  0.93827000000E+00 0. -1.
     999903    2    1    2    0    0 -0.12467554901E+00  0.21827411405E-01 -0.32002971696E-01  0.13198794391E+00  0.19395843107E-01 0.  0.
         14    1    1    2    0    0  0.21929661766E-01  0.61385068412E-01  0.12142415098E-01  0.66305919294E-01  0.00000000000E+00 0. -1.
     999901    1    1    2    0    0  0.10274588725E+00 -0.83212479817E-01  0.19860556598E-01  0.84563613679E+00  0.83500000000E+00 0. -1.
        -11    1    3    3    0    0 -0.30420661525E-01  0.13427345138E-01 -0.54173216653E-02  0.33694491243E-01  0.51100000000E-03 0.  1.
         11    1    3    3    0    0 -0.94254887490E-01  0.84000662670E-02 -0.26585650030E-01  0.98293452669E-01  0.51100000000E-03 0. -1.
</event>
<event>
 8    1  0.5716970E+005  0.1043930E+01  0.7957747E-01            NaN
         13   -1    0    0    0    0  0.00000000000E+00  0.00000000000E+00  0.74505805969E-08  0.10566000000E+00  0.10566000000E+00 0.  1.
     999900   -1    0    0    0    0 -0.00000000000E+00 -0.00000000000E+00 -0.74505805969E-08  0.93827000000E+00  0.93827000000E+00 0.  1.
     999902    2    1    2    0    0 -0.23208886238E-01 -0.60396084789E-02 -0.48702025516E-02  0.10194586260E+01  0.10191648748E+01 0.  0.
     999903    2    3    3    0    0 -0.13285867771E+00 -0.93748039005E-01 -0.50871354022E-01  0.17148636735E+00  0.19482209021E-01 0.  0.
         14    1    1    2    0    0  0.23208886238E-01  0.60396084789E-02  0.48702025516E-02  0.24471373968E-01  0.00000000000E+00 0. -1.
     999901    1    3    3    0    0  0.10964979147E+00  0.87708430526E-01  0.46001151471E-01  0.84797225868E+00  0.83500000000E+00 0.  1.
        -11    1    4    4    0    0 -0.35804583984E-01 -0.24090897050E-01 -0.47137609401E-02  0.43414516215E-01  0.51100000000E-03 0. -1.
         11    1    4    4    0    0 -0.97054093722E-01 -0.69657141955E-01 -0.46157593082E-01  0.12807185114E+00  0.51100000000E-03 0.  1.
</event>
<event>
 8    1  0.5716970E+005  0.1043930E+01  0.7957747E-01            NaN
         13   -1    0    0    0    0  0.00000000000E+00  0.00000000000E+00  0.74505805969E-08  0.10566000000E+00  0.10566000000E+00 0.  1.
     999900   -1    0    0    0    0 -0.00000000000E+00 -0.00000000000E+00 -0.74505805969E-08  0.93827000000E+00  0.93827000000E+00 0. -1.
     999902    2    1    2    0    0 -0.18231366990E-01 -0.18680350011E-02 -0.15250212341E-01  0.10200879935E+01  0.10198093318E+01 0.  0.
     999903    2    3    3    0    0  0.11645192038E+00  0.25572387279E-01 -0.11633612660E+00  0.16783455307E+00  0.20477941809E-01 0.  0.
         14    1    1    2    0    0  0.18231366990E-01  0.18680350011E-02  0.15250212341E-01  0.23842006492E-01  0.00000000000E+00 0.  1.
     999901    1    3    3    0    0 -0.13468328737E+00 -0.27440422280E-01  0.10108591426E+00  0.85225344044E+00  0.83500000000E+00 0.  1.
        -11    1    4    4    0    0  0.86190723123E-01  0.16303020605E-01 -0.72721512536E-01  0.11394432298E+00  0.51100000000E-03 0. -1.
         11    1    4    4    0    0  0.30261197257E-01  0.92693666741E-02 -0.43614614068E-01  0.53890230091E-01  0.51100000000E-03 0.  1.
</event>
<event>
 8    1  0.5716970E+005  0.1043930E+01  0.7957747E-01            NaN
         13   -1    0    0    0    0  0.00000000000E+00  0.00000000000E+00  0.74505805969E-08  0.10566000000E+00  0.10566000000E+00 0.  1.
     999900   -1    0    0    0    0 -0.00000000000E+00 -0.00000000000E+00 -0.74505805969E-08  0.93827000000E+00  0.93827000000E+00 0. -1.
     999902    2    1    2    0    0 -0.20356711645E-01 -0.99824174559E-02 -0.64064314228E-02  0.10203697213E+01  0.10200976823E+01 0.  0.
     999903    2    3    3    0    0 -0.71652461566E-01 -0.14790438365E+00  0.43241375659E-01  0.17105021286E+00  0.19457050133E-01 0.  0.
         14    1    1    2    0    0  0.20356711645E-01  0.99824174559E-02  0.64064314228E-02  0.23560278666E-01  0.00000000000E+00 0.  1.
     999901    1    3    3    0    0  0.51295749921E-01  0.13792196620E+00 -0.49647807082E-01  0.84931950847E+00  0.83500000000E+00 0. -1.
        -11    1    4    4    0    0 -0.45083837207E-01 -0.11191820853E+00  0.34193162115E-01  0.12541001250E+00  0.51100000000E-03 0. -1.
         11    1    4    4    0    0 -0.26568624359E-01 -0.35986175122E-01  0.90482135444E-02  0.45640200367E-01  0.51100000000E-03 0.  1.
</event>
<event>
 8    1  0.5716970E+005  0.1043930E+01  0.7957747E-01            NaN
         13   -1    0    0    0    0  0.00000000000E+00  0.00000000000E+00  0.74505805969E-08  0.10566000000E+00  0.10566000000E+00 0. -1.
     999900   -1    0    0    0    0 -0.00000000000E+00 -0.00000000000E+00 -0.74505805969E-08  0.93827000000E+00  0.93827000000E+00 0.  1.
     999902    2    1    2    0    0 -0.10071712913E-01 -0.19044553931E-01  0.97578698855E-02  0.10202794089E+01  0.10200052557E+01 0.  0.
     999903    2    3    3    0    0 -0.43237342742E-01 -0.98096961041E-01  0.13284779849E+00  0.17191311264E+00  0.20324840997E-01 0.  0.
         14    1    1    2    0    0  0.10071712913E-01  0.19044553931E-01 -0.97578698855E-02  0.23650591116E-01  0.00000000000E+00 0.  1.
     999901    1    3    3    0    0  0.33165629829E-01  0.79052407109E-01 -0.12308992861E+00  0.84836629624E+00  0.83500000000E+00 0.  1.
        -11    1    4    4    0    0 -0.36417519241E-01 -0.89416498684E-01  0.10889039379E+00  0.14552980768E+00  0.51100000000E-03 0. -1.
         11    1    4    4    0    0 -0.68198235009E-02 -0.86804623561E-02  0.23957404706E-01  0.26383304959E-01  0.51100000000E-03 0.  1.
</event>
<event>
 8    1  0.5716970E+005  0.1043930E+01  0.7957747E-01            NaN
         13   -1    0    0    0    0  0.00000000000E+00  0.00000000000E+00  0.74505805969E-08  0.10566000000E+00  0.10566000000E+00 0. -1.
     999900   -1    0    0    0    0 -0.00000000000E+00 -0.00000000000E+00 -0.74505805969E-08  0.93827000000E+00  0.93827000000E+00 0. -1.
     999902    2    1    2    0    0 -0.28580960044E-02 -0.14874003455E-03 -0.23055361255E-01  0.10206976837E+01  0.10204332516E+01 0.  0.
     999903    2    3    3    0    0 -0.26529221738E-01  0.16123152325E+00 -0.40921327202E-01  0.16972876285E+00  0.20830127798E-01 0.  0.
         14    1    1    2    0    0  0.28580960044E-02  0.14874003455E-03  0.23055361255E-01  0.23232316263E-01  0.00000000000E+00 0. -1.
     999901    1    3    3    0    0  0.23671125734E-01 -0.16138026328E+00  0.17865965947E-01  0.85096892088E+00  0.83500000000E+00 0. -1.
        -11    1    4    4    0    0 -0.16520883770E-02  0.41468972556E-01 -0.27710962041E-02  0.41597417901E-01  0.51100000000E-03 0. -1.
         11    1    4    4    0    0 -0.24877133361E-01  0.11976255069E+00 -0.38150230998E-01  0.12813134495E+00  0.51100000000E-03 0.  1.
</event>
<event>
 8    1  0.5716970E+005  0.1043930E+01  0.7957747E-01            NaN
         13   -1    0    0    0    0  0.00000000000E+00  0.00000000000E+00  0.74505805969E-08  0.10566000000E+00  0.10566000000E+00 0.  1.
     999900   -1    0    0    0    0 -0.00000000000E+00 -0.00000000000E+00 -0.74505805969E-08  0.93827000000E+00  0.93827000000E+00 0. -1.
     999902    2    1    2    0    0 -0.12345917855E-01 -0.19795541790E-01 -0.10109088839E-01  0.10185040518E+01  0.10181866355E+01 0.  0.
     999903    2    3    3    0    0  0.99942584722E-01 -0.85947158425E-01 -0.10277715794E+00  0.16832929615E+00  0.19904106750E-01 0.  0.
         14    1    1    2    0    0  0.12345917855E-01  0.19795541790E-01  0.10109088839E-01  0.25425948155E-01  0.00000000000E+00 0.  1.
     999901    1    3    3    0    0 -0.11228850258E+00  0.66151616635E-01  0.92668069099E-01  0.85017475570E+00  0.83500000000E+00 0.  1.
        -11    1    4    4    0    0  0.41964915178E-01 -0.44957619174E-01 -0.56944225102E-01  0.83816153104E-01  0.51100000000E-03 0.  1.
         11    1    4    4    0    0  0.57977669544E-01 -0.40989539251E-01 -0.45832932836E-01  0.84513143044E-01  0.51100000000E-03 0. -1.
</event>
<event>
 8    1  0.5716970E+005  0.1043930E+01  0.7957747E-01            NaN
         13   -1    0    0    0    0  0.00000000000E+00  0.00000000000E+00  0.74505805969E-08  0.10566000000E+00  0.10566000000E+00 0.  1.
     999900   -1    0    0    0    0 -0.00000000000E+00 -0.00000000000E+00 -0.74505805969E-08  0.93827000000E+00  0.93827000000E+00 0.  1.
     999902    2    1    2    0    0 -0.18845611348E-01  0.66128800820E-02  0.12814407996E-01  0.10202003497E+01  0.10199243390E+01 0.  0.
     999903    2    3    3    0    0  0.12814708952E+00 -0.10048079899E+00 -0.17991083041E-01  0.16506884610E+00  0.20148880079E-01 0.  0.
         14    1    1    2    0    0  0.18845611348E-01 -0.66128800820E-02 -0.12814407996E-01  0.23729650279E-01  0.00000000000E+00 0.  1.
     999901    1    3    3    0    0 -0.14699270086E+00  0.10709367907E+00  0.30805491037E-01  0.85513150362E+00  0.83500000000E+00 0. -1.
        -11    1    4    4    0    0  0.92521303190E-01 -0.80745777481E-01 -0.76143804266E-02  0.12303784798E+00  0.51100000000E-03 0.  1.
         11    1    4    4    0    0  0.35625786326E-01 -0.19735021505E-01 -0.10376702614E-01  0.42030998124E-01  0.51100000000E-03 0. -1.
</event>
<event>
 8    1  0.5716970E+005  0.1043930E+01  0.7957747E-01            NaN
         13   -1    0    0    0    0  0.00000000000E+00  0.00000000000E+00  0.74505805969E-08  0.10566000000E+00  0.10566000000E+00 0. -1.
     999900   -1    0    0    0    0 -0.00000000000E+00 -0.00000000000E+00 -0.74505805969E-08  0.93827000000E+00  0.93827000000E+00 0.  1.
     999902    2    1    2    0    0  0.27362598220E-02 -0.22433103901E-01  0.26053901081E-02  0.10211809489E+01  0.10209275249E+01 0.  0.
     999903    2    3    3    0    0 -0.66925022711E-01 -0.30001077321E-01  0.15205910540E+00  0.17002210266E+00  0.20162354857E-01 0.  0.
         14    1    1    2    0    0 -0.27362598220E-02  0.22433103901E-01 -0.26053901081E-02  0.22749051102E-01  0.00000000000E+00 0.  1.
     999901    1    3    3    0    0  0.69661282533E-01  0.75679734202E-02 -0.14945371529E+00  0.85115884623E+00  0.83500000000E+00 0.  1.
        -11    1    4    4    0    0 -0.33705320852E-01 -0.26026787926E-01  0.83493392158E-01  0.93727530633E-01  0.51100000000E-03 0. -1.
         11    1    4    4    0    0 -0.33219701858E-01 -0.39742893953E-02  0.68565713245E-01  0.76294572032E-01  0.51100000000E-03 0.  1.
</event>
<event>
 8    1  0.5716970E+005  0.1043930E+01  0.7957747E-01            NaN
         13   -1    0    0    0    0  0.00000000000E+00  0.00000000000E+00  0.74505805969E-08  0.10566000000E+00  0.10566000000E+00 0.  1.
     999900   -1    0    0    0    0 -0.00000000000E+00 -0.00000000000E+00 -0.74505805969E-08  0.93827000000E+00  0.93827000000E+00 0.  1.
     999902    2    1    2    0    0 -0.74742977054E-02 -0.10513743046E-01  0.20947050362E-01  0.10193295358E+01  0.10190326392E+01 0.  0.
     999903    2    3    3    0    0 -0.12291836095E+00  0.58366693688E-01  0.99935886678E-01  0.16989673532E+00  0.19029577917E-01 0.  0.
         14    1    1    2    0    0  0.74742977054E-02  0.10513743046E-01 -0.20947050362E-01  0.24600464180E-01  0.00000000000E+00 0. -1.
     999901    1    3    3    0    0  0.11544406324E+00 -0.68880436734E-01 -0.78988836317E-01  0.84943280050E+00  0.83500000000E+00 0.  1.
        -11    1    4    4    0    0 -0.65076766839E-01  0.39595958186E-01  0.62015779196E-01  0.98229544829E-01  0.51100000000E-03 0. -1.
         11    1    4    4    0    0 -0.57841594110E-01  0.18770735502E-01  0.37920107482E-01  0.71667190491E-01  0.51100000000E-03 0.  1.
</event>
<event>
 8    1  0.5716970E+005  0.1043930E+01  0.7957747E-01            NaN
         13   -1    0    0    0    0  0.00000000000E+00  0.00000000000E+00  0.74505805969E-08  0.10566000000E+00  0.10566000000E+00 0. -1.
     999900   -1    0    0    0    0 -0.00000000000E+00 -0.00000000000E+00 -0.74505805969E-08  0.93827000000E+00  0.93827000000E+00 0.  1.
     999902    2    1    2    0    0  0.20801790304E-01 -0.46921753508E-02 -0.38003867823E-02  0.10222695769E+01  0.10220400745E+01 0.  0.
     999903    2    3    3    0    0  0.94798477127E-01  0.13213191349E-01  0.14082663479E+00  0.17142406378E+00  0.19817388495E-01 0.  0.
         14    1    1    2    0    0 -0.20801790304E-01  0.46921753508E-02  0.38003867823E-02  0.21660423105E-01  0.00000000000E+00 0.  1.
     999901    1    3    3    0    0 -0.73996686823E-01 -0.17905366700E-01 -0.14462702157E+00  0.85084551311E+00  0.83500000000E+00 0.  1.
        -11    1    4    4    0    0  0.44898223087E-01  0.16196121390E-01  0.67048006982E-01  0.82303469828E-01  0.51100000000E-03 0. -1.
         11    1    4    4    0    0  0.49900254040E-01 -0.29829300409E-02  0.73778627805E-01  0.89120593954E-01  0.51100000000E-03 0.  1.
</event>
<event>
 8    1  0.5716970E+005  0.1043930E+01  0.7957747E-01            NaN
         13   -1    0    0    0    0  0.00000000000E+00  0.00000000000E+00  0.74505805969E-08  0.10566000000E+00  0.10566000000E+00 0.  1.
     999900   -1    0    0    0    0 -0.00000000000E+00 -0.00000000000E+00 -0.74505805969E-08  0.93827000000E+00  0.93827000000E+00 0. -1.
     999902    2    1    2    0    0  0.13695897476E-01  0.91412580784E-02 -0.17396399630E-01  0.10199764005E+01  0.10196950930E+01 0.  0.
     999903    2    3    3    0    0  0.91244931089E-01  0.77899332483E-01 -0.12186533591E+00  0.17210831879E+00  0.19395098566E-01 0.  0.
         14    1    1    2    0    0 -0.13695897476E-01 -0.91412580784E-02  0.17396399630E-01  0.23953599458E-01  0.00000000000E+00 0. -1.
     999901    1    3    3    0    0 -0.77549033613E-01 -0.68758074405E-01  0.10446893628E+00  0.84786808175E+00  0.83500000000E+00 0.  1.
        -11    1    4    4    0    0  0.75721386242E-02  0.28243640647E-02 -0.33677440628E-02  0.87702415466E-02  0.51100000000E-03 0.  1.
         11    1    4    4    0    0  0.83672792465E-01  0.75074968418E-01 -0.11849759185E+00  0.16333807724E+00  0.51100000000E-03 0. -1.
</event>
<event>
 8    1  0.5716970E+005  0.1043930E+01  0.7957747E-01            NaN
         13   -1    0    0    0    0  0.00000000000E+00  0.00000000000E+00  0.74505805969E-08  0.10566000000E+00  0.10566000000E+00 0. -1.
     999900   -1    0    0    0    0 -0.00000000000E+00 -0.00000000000E+00 -0.74505805969E-08  0.93827000000E+00  0.93827000000E+00 0.  1.
     999902    2    1    2    0    0 -0.73605999657E-02  0.33205726484E-01  0.18019396827E-02  0.10098705565E+01  0.10092960394E+01 0.  0.
     999903    2    3    3    0    0  0.12029385329E+00  0.75999807308E-01  0.73033459632E-01  0.16109147913E+00  0.19235294933E-01 0.  0.
         14    1    1    2    0    0  0.73605999657E-02 -0.33205726484E-01 -0.18019396827E-02  0.34059443475E-01  0.00000000000E+00 0.  1.
     999901    1    3    3    0    0 -0.12765445326E+00 -0.42794080824E-01 -0.71231519949E-01  0.84877907740E+00  0.83500000000E+00 0.  1.
        -11    1    4    4    0    0  0.85864826580E-01  0.52764880239E-01  0.61161617971E-01  0.11788937893E+00  0.51100000000E-03 0.  1.
         11    1    4    4    0    0  0.34429026713E-01  0.23234927070E-01  0.11871841661E-01  0.43202100201E-01  0.51100000000E-03 0. -1.
</event>
<event>
 8    1  0.5716970E+005  0.1043930E+01  0.7957747E-01            NaN
         13   -1    0    0    0    0  0.00000000000E+00  0.00000000000E+00  0.74505805969E-08  0.10566000000E+00  0.10566000000E+00 0.  1.
     999900   -1    0    0    0    0 -0.00000000000E+00 -0.00000000000E+00 -0.74505805969E-08  0.93827000000E+00  0.93827000000E+00 0.  1.
     999902    2    1    2    0    0 -0.14853003230E-01  0.64721750184E-02 -0.18213493868E-01  0.10195531234E+01  0.10192616638E+01 0.  0.
     999903    2    3    3    0    0 -0.15589280609E+00  0.62860186751E-01  0.16650431683E-01  0.17013430610E+00  0.20358663257E-01 0.  0.
         14    1    1    2    0    0  0.14853003230E-01 -0.64721750184E-02  0.18213493868E-01  0.24376876611E-01  0.00000000000E+00 0.  1.
     999901    1    3    3    0    0  0.14103980286E+00 -0.56388011733E-01 -0.34863925551E-01  0.84941881729E+00  0.83500000000E+00 0.  1.
        -11    1    4    4    0    0 -0.70761264917E-01  0.17693610468E-01  0.77108934484E-02  0.73348070614E-01  0.51100000000E-03 0. -1.
         11    1    4    4    0    0 -0.85131541169E-01  0.45166576283E-01  0.89395382347E-02  0.96786235487E-01  0.51100000000E-03 0.  1.
</event>
<event>
 8    1  0.5716970E+005  0.1043930E+01  0.7957747E-01            NaN
         13   -1    0    0    0    0  0.00000000000E+00  0.00000000000E+00  0.74505805969E-08  0.10566000000E+00  0.10566000000E+00 0. -1.
     999900   -1    0    0    0    0 -0.00000000000E+00 -0.00000000000E+00 -0.74505805969E-08  0.93827000000E+00  0.93827000000E+00 0. -1.
     999902    2    1    2    0    0  0.13847762051E-01 -0.19486260968E-01 -0.82432052103E-03  0.10200102512E+01  0.10197297476E+01 0.  0.
     999903    2    3    3    0    0  0.13776493512E+00  0.85327291615E-01  0.41040557188E-01  0.16835362166E+00  0.19967236848E-01 0.  0.
         14    1    1    2    0    0 -0.13847762051E-01  0.19486260968E-01  0.82432052103E-03  0.23919748841E-01  0.00000000000E+00 0.  1.
     999901    1    3    3    0    0 -0.12391717307E+00 -0.10481355258E+00 -0.41864877709E-01  0.85165662950E+00  0.83500000000E+00 0. -1.
        -11    1    4    4    0    0  0.90905486043E-01  0.49543144761E-01  0.18180859480E-01  0.10511486744E+00  0.51100000000E-03 0.  1.
         11    1    4    4    0    0  0.46859449080E-01  0.35784146854E-01  0.22859697708E-01  0.63238754213E-01  0.51100000000E-03 0. -1.
</event>
<event>
 8    1  0.5716970E+005  0.1043930E+01  0.7957747E-01            NaN
         13   -1    0    0    0    0  0.00000000000E+00  0.00000000000E+00  0.74505805969E-08  0.10566000000E+00  0.10566000000E+00 0. -1.
     999900   -1    0    0    0    0 -0.00000000000E+00 -0.00000000000E+00 -0.74505805969E-08  0.93827000000E+00  0.93827000000E+00 0.  1.
     999902    2    1    2    0    0 -0.56164402094E-02 -0.91327633626E-02 -0.21712606410E-01  0.10197145288E+01  0.10194269622E+01 0.  0.
     999903    2    3    3    0    0  0.10054066401E+00 -0.10632600836E+00  0.77448825099E-01  0.16661790642E+00  0.18696551995E-01 0.  0.
         14    1    1    2    0    0  0.56164402094E-02  0.91327633626E-02  0.21712606410E-01  0.24215471178E-01  0.00000000000E+00 0. -1.
     999901    1    3    3    0    0 -0.10615710422E+00  0.97193245002E-01 -0.99161431509E-01  0.85309662240E+00  0.83500000000E+00 0.  1.
        -11    1    4    4    0    0  0.68024152495E-01 -0.68038288389E-01  0.60251875625E-01  0.11352111542E+00  0.51100000000E-03 0. -1.
         11    1    4    4    0    0  0.32516511518E-01 -0.38287719976E-01  0.17196949474E-01  0.53096791000E-01  0.51100000000E-03 0.  1.
</event>
<event>
 8    1  0.5716970E+005  0.1043930E+01  0.7957747E-01            NaN
         13   -1    0    0    0    0  0.00000000000E+00  0.00000000000E+00  0.74505805969E-08  0.10566000000E+00  0.10566000000E+00 0. -1.
     999900   -1    0    0    0    0 -0.00000000000E+00 -0.00000000000E+00 -0.74505805969E-08  0.93827000000E+00  0.93827000000E+00 0. -1.
     999902    2    1    2    0    0 -0.12896665017E-01  0.52544657155E-02 -0.19908257021E-01  0.10196344844E+01  0.10193449906E+01 0.  0.
     999903    2    3    3    0    0  0.62774904310E-01 -0.32352706919E-01  0.14669596514E+00  0.16399293994E+00  0.19661940509E-01 0.  0.
         14    1    1    2    0    0  0.12896665017E-01 -0.52544657155E-02  0.19908257021E-01  0.24295515556E-01  0.00000000000E+00 0. -1.
     999901    1    3    3    0    0 -0.75671569326E-01  0.37607172634E-01 -0.16660422217E+00  0.85564154450E+00  0.83500000000E+00 0. -1.
        -11    1    4    4    0    0  0.35102474917E-01 -0.21223222731E-01  0.63381261424E-01  0.75498704287E-01  0.51100000000E-03 0. -1.
         11    1    4    4    0    0  0.27672429393E-01 -0.11129484188E-01  0.83314703721E-01  0.88494235653E-01  0.51100000000E-03 0.  1.
</event>
<event>
 8    1  0.5716970E+005  0.1043930E+01  0.7957747E-01            NaN
         13   -1    0    0    0    0  0.00000000000E+00  0.00000000000E+00  0.74505805969E-08  0.10566000000E+00  0.10566000000E+00 0.  1.
     999900   -1    0    0    0    0 -0.00000000000E+00 -0.00000000000E+00 -0.74505805969E-08  0.93827000000E+00  0.93827000000E+00 0.  1.
     999902    2    1    2    0    0 -0.10600686012E-01 -0.25941647971E-02 -0.21264161362E-01  0.10200287700E+01  0.10197487058E+01 0.  0.
     999903    2    3    3    0    0  0.14832592384E+00 -0.51875401210E-01 -0.55705446561E-01  0.16791521558E+00  0.20019638188E-01 0.  0.
         14    1    1    2    0    0  0.10600686012E-01  0.25941647971E-02  0.21264161362E-01  0.23901229955E-01  0.00000000000E+00 0.  1.
     999901    1    3    3    0    0 -0.15892660985E+00  0.49281236413E-01  0.34441285199E-01  0.85211355447E+00  0.83500000000E+00 0.  1.
        -11    1    4    4    0    0  0.23163450163E-01 -0.57331161429E-02 -0.14687778169E-02  0.23913018911E-01  0.51100000000E-03 0.  1.
         11    1    4    4    0    0  0.12516247367E+00 -0.46142285067E-01 -0.54236668744E-01  0.14400219667E+00  0.51100000000E-03 0. -1.
</event>
<event>
 8    1  0.5716970E+005  0.1043930E+01  0.7957747E-01            NaN
         13   -1    0    0    0    0  0.00000000000E+00  0.00000000000E+00  0.74505805969E-08  0.10566000000E+00  0.10566000000E+00 0.  1.
     999900   -1    0    0    0    0 -0.00000000000E+00 -0.00000000000E+00 -0.74505805969E-08  0.93827000000E+00  0.93827000000E+00 0. -1.
     999902    2    1    2    0    0 -0.15645849071E-01  0.83821909035E-02 -0.16335747558E-01  0.10198071816E+01  0.10195218376E+01 0.  0.
     999903    2    3    3    0    0 -0.11208471436E+00 -0.80174156403E-01 -0.98807293830E-01  0.17059034400E+00  0.18636137038E-01 0.  0.
         14    1    1    2    0    0  0.15645849071E-01 -0.83821909035E-02  0.16335747558E-01  0.24122818363E-01  0.00000000000E+00 0.  1.
     999901    1    3    3    0    0  0.96438865286E-01  0.88556347307E-01  0.82471546273E-01  0.84921683764E+00  0.83500000000E+00 0. -1.
        -11    1    4    4    0    0 -0.91521680286E-01 -0.64294658714E-01 -0.88530929573E-01  0.14264644305E+00  0.51100000000E-03 0. -1.
         11    1    4    4    0    0 -0.20563034071E-01 -0.15879497689E-01 -0.10276364257E-01  0.27943900952E-01  0.51100000000E-03 0.  1.
</event>
<event>
 8    1  0.5716970E+005  0.1043930E+01  0.7957747E-01            NaN
         13   -1    0    0    0    0  0.00000000000E+00  0.00000000000E+00  0.74505805969E-08  0.10566000000E+00  0.10566000000E+00 0. -1.
     999900   -1    0    0    0    0 -0.00000000000E+00 -0.00000000000E+00 -0.74505805969E-08  0.93827000000E+00  0.93827000000E+00 0.  1.
     999902    2    1    2    0    0 -0.15959678299E-01 -0.16683273111E-01 -0.59879647761E-02  0.10200784035E+01  0.10197995149E+01 0.  0.
     999903    2    3    3    0    0 -0.15208287120E+00 -0.43663948484E-01 -0.63445584801E-01  0.17167763819E+00  0.20300963410E-01 0.  0.
         14    1    1    2    0    0  0.15959678299E-01  0.16683273111E-01  0.59879647761E-02  0.23851596493E-01  0.00000000000E+00 0. -1.
     999901    1    3    3    0    0  0.13612319290E+00  0.26980675373E-01  0.57457620025E-01  0.84840076532E+00  0.83500000000E+00 0.  1.
        -11    1    4    4    0    0 -0.66313083909E-01 -0.29458657063E-01 -0.27495630859E-01  0.77598378918E-01  0.51100000000E-03 0. -1.
         11    1    4    4    0    0 -0.85769787289E-01 -0.14205291421E-01 -0.35949953943E-01  0.94079259274E-01  0.51100000000E-03 0.  1.
</event>
<event>
 8    1  0.5716970E+005  0.1043930E+01  0.7957747E-01            NaN
         13   -1    0    0    0    0  0.00000000000E+00  0.00000000000E+00  0.74505805969E-08  0.10566000000E+00  0.10566000000E+00 0. -1.
     999900   -1    0    0    0    0 -0.00000000000E+00 -0.00000000000E+00 -0.74505805969E-08  0.93827000000E+00  0.93827000000E+00 0.  1.
     999902    2    1    2    0    0  0.21990350481E-01  0.15416521343E-02 -0.94774256891E-03  0.10218653128E+01  0.10216270685E+01 0.  0.
     999903    2    3    3    0    0  0.89853142196E-01  0.10215447021E+00 -0.10364502412E+00  0.17186529556E+00  0.16919392541E-01 0.  0.
         14    1    1    2    0    0 -0.21990350481E-01 -0.15416521343E-02  0.94774256891E-03  0.22064687207E-01  0.00000000000E+00 0. -1.
     999901    1    3    3    0    0 -0.67862791715E-01 -0.10061281808E+00  0.10269728156E+00  0.85000001724E+00  0.83500000000E+00 0. -1.
        -11    1    4    4    0    0  0.29192959300E-01  0.37177252906E-01 -0.45724216644E-01  0.65767333191E-01  0.51100000000E-03 0. -1.
         11    1    4    4    0    0  0.60660182895E-01  0.64977217309E-01 -0.57920807480E-01  0.10609796237E+00  0.51100000000E-03 0.  1.
</event>
<event>
 8    1  0.5716970E+005  0.1043930E+01  0.7957747E-01            NaN
         13   -1    0    0    0    0  0.00000000000E+00  0.00000000000E+00  0.74505805969E-08  0.10566000000E+00  0.10566000000E+00 0. -1.
     999900   -1    0    0    0    0 -0.00000000000E+00 -0.00000000000E+00 -0.74505805969E-08  0.93827000000E+00  0.93827000000E+00 0.  1.
     999902    2    1    2    0    0  0.16846087719E-01  0.11577615659E-01  0.11934951056E-01  0.10202598730E+01  0.10199852614E+01 0.  0.
     999903    2    3    3    0    0  0.54112020837E-01 -0.13913757725E+00 -0.71329690696E-01  0.16687729776E+00  0.21742390182E-01 0.  0.
         14    1    1    2    0    0 -0.16846087719E-01 -0.11577615659E-01 -0.11934951056E-01  0.23670127006E-01  0.00000000000E+00 0.  1.
     999901    1    3    3    0    0 -0.37265933118E-01  0.15071519291E+00  0.83264641752E-01  0.85338257523E+00  0.83500000000E+00 0. -1.
        -11    1    4    4    0    0  0.49152767841E-01 -0.10158735901E+00 -0.50370903881E-01  0.12358590201E+00  0.51100000000E-03 0.  1.
         11    1    4    4    0    0  0.49592529961E-02 -0.37550218240E-01 -0.20958786815E-01  0.43291395749E-01  0.51100000000E-03 0. -1.
</event>
<event>
 8    1  0.5716970E+005  0.1043930E+01  0.7957747E-01            NaN
         13   -1    0    0    0    0  0.00000000000E+00  0.00000000000E+00  0.74505805969E-08  0.10566000000E+00  0.10566000000E+00 0. -1.
     999900   -1    0    0    0    0 -0.00000000000E+00 -0.00000000000E+00 -0.74505805969E-08  0.93827000000E+00  0.93827000000E+00 0. -1.
     999902    2    1    2    0    0  0.19826421728E-01  0.11591732641E-01  0.61458487674E-02  0.10201555027E+01  0.10198784354E+01 0.  0.
     999903    2    3    3    0    0 -0.15545368279E+00  0.50300239346E-01  0.20929730149E-01  0.16595117898E+00  0.20143947709E-01 0.  0.
         14    1    1    2    0    0 -0.19826421728E-01 -0.11591732641E-01 -0.61458487674E-02  0.23774497287E-01  0.00000000000E+00 0. -1.
     999901    1    3    3    0    0  0.17528010452E+00 -0.38708506705E-01 -0.14783881382E-01  0.85420432373E+00  0.83500000000E+00 0. -1.
        -11    1    4    4    0    0 -0.98135657098E-01  0.24416147519E-01  0.59807439259E-02  0.10130540890E+00  0.51100000000E-03 0. -1.
         11    1    4    4    0    0 -0.57318025695E-01  0.25884091826E-01  0.14948986224E-01  0.64645770081E-01  0.51100000000E-03 0.  1.
</event>
<event>
 8    1  0.5716970E+005  0.1043930E+01  0.7957747E-01            NaN
         13   -1    0    0    0    0  0.00000000000E+00  0.00000000000E+00  0.74505805969E-08  0.10566000000E+00  0.10566000000E+00 0.  1.
     999900   -1    0    0    0    0 -0.00000000000E+00 -0.00000000000E+00 -0.74505805969E-08  0.93827000000E+00  0.93827000000E+00 0.  1.
     999902    2    1    2    0    0  0.97006910198E-02  0.15274509763E-01  0.15635304809E-01  0.10200160540E+01  0.10197356882E+01 0.  0.
     999903    2    3    3    0    0 -0.91847513736E-01 -0.61642512367E-01 -0.12032514726E+00  0.16448200404E+00  0.18450568533E-01 0.  0.
         14    1    1    2    0    0 -0.97006910198E-02 -0.15274509763E-01 -0.15635304809E-01  0.23913945957E-01  0.00000000000E+00 0. -1.
     999901    1    3    3    0    0  0.10154820476E+00  0.76917022130E-01  0.13596045207E+00  0.85553405000E+00  0.83500000000E+00 0. -1.
        -11    1    4    4    0    0 -0.64928772224E-01 -0.33533008497E-01 -0.74525126583E-01  0.10437654782E+00  0.51100000000E-03 0.  1.
         11    1    4    4    0    0 -0.26918741512E-01 -0.28109503870E-01 -0.45800020681E-01  0.60105456223E-01  0.51100000000E-03 0. -1.
</event>
<event>
 8    1  0.5716970E+005  0.1043930E+01  0.7957747E-01            NaN
         13   -1    0    0    0    0  0.00000000000E+00  0.00000000000E+00  0.74505805969E-08  0.10566000000E+00  0.10566000000E+00 0.  1.
     999900   -1    0    0    0    0 -0.00000000000E+00 -0.00000000000E+00 -0.74505805969E-08  0.93827000000E+00  0.93827000000E+00 0. -1.
     999902    2    1    2    0    0 -0.12473611468E-01 -0.17689086141E-01 -0.10228818432E-01  0.10199900025E+01  0.10197090182E+01 0.  0.
     999903    2    3    3    0    0 -0.36606790714E-01 -0.13818603294E+00 -0.93224117402E-01  0.17192447195E+00  0.20781028981E-01 0.  0.
         14    1    1    2    0    0  0.12473611468E-01  0.17689086141E-01  0.10228818432E-01  0.23939997453E-01  0.00000000000E+00 0.  1.
     999901    1    3    3    0    0  0.24133179246E-01  0.12049694680E+00  0.82995298970E-01  0.84806553059E+00  0.83500000000E+00 0.  1.
        -11    1    4    4    0    0 -0.77660314496E-02 -0.17266257452E-01 -0.53204821705E-02  0.19672405607E-01  0.51100000000E-03 0. -1.
         11    1    4    4    0    0 -0.28840759264E-01 -0.12091977549E+00 -0.87903635231E-01  0.15225206635E+00  0.51100000000E-03 0.  1.
</event>
<event>
 8    1  0.5716970E+005  0.1043930E+01  0.7957747E-01            NaN
         13   -1    0    0    0    0  0.00000000000E+00  0.00000000000E+00  0.74505805969E-08  0.10566000000E+00  0.10566000000E+00 0.  1.
     999900   -1    0    0    0    0 -0.00000000000E+00 -0.00000000000E+00 -0.74505805969E-08  0.93827000000E+00  0.93827000000E+00 0.  1.
     999902    2    1    2    0    0  0.15291575612E-01 -0.28331209921E-02 -0.17899717252E-01  0.10202180044E+01  0.10199424090E+01 0.  0.
     999903    2    3    3    0    0 -0.13873397882E-01  0.86473832517E-01  0.13884448555E+00  0.16545483674E+00  0.20671646150E-01 0.  0.
         14    1    1    2    0    0 -0.15291575612E-01  0.28331209921E-02  0.17899717252E-01  0.23711995634E-01  0.00000000000E+00 0.  1.
     999901    1    3    3    0    0  0.29164973494E-01 -0.89306953509E-01 -0.15674420280E+00  0.85476316763E+00  0.83500000000E+00 0.  1.
        -11    1    4    4    0    0  0.29125743062E-02  0.46861864937E-01  0.71479788343E-01  0.85522738128E-01  0.51100000000E-03 0. -1.
         11    1    4    4    0    0 -0.16785972189E-01  0.39611967580E-01  0.67364697202E-01  0.79932098609E-01  0.51100000000E-03 0.  1.
</event>
<event>
 8    1  0.5716970E+005  0.1043930E+01  0.7957747E-01            NaN
         13   -1    0    0    0    0  0.00000000000E+00  0.00000000000E+00  0.74505805969E-08  0.10566000000E+00  0.10566000000E+00 0. -1.
     999900   -1    0    0    0    0 -0.00000000000E+00 -0.00000000000E+00 -0.74505805969E-08  0.93827000000E+00  0.93827000000E+00 0.  1.
     999902    2    1    2    0    0  0.42133865305E-02 -0.45952924224E-02 -0.22617201936E-01  0.10204692421E+01  0.10201995231E+01 0.  0.
     999903    2    3    3    0    0 -0.45450093349E-01 -0.14145421981E+00  0.74394229415E-01  0.16733792450E+00  0.19810914115E-01 0.  0.
         14    1    1    2    0    0 -0.42133865305E-02  0.45952924224E-02  0.22617201936E-01  0.23460757914E-01  0.00000000000E+00 0. -1.
     999901    1    3    3    0    0  0.49663479880E-01  0.13685892738E+00 -0.97011431351E-01  0.85313131759E+00  0.83500000000E+00 0.  1.
        -11    1    4    4    0    0 -0.46416289084E-01 -0.13105666918E+00  0.65871564378E-01  0.15384942816E+00  0.51100000000E-03 0. -1.
         11    1    4    4    0    0  0.96619573434E-03 -0.10397550623E-01  0.85226650376E-02  0.13488496339E-01  0.51100000000E-03 0.  1.
</event>
<event>
 8    1  0.5716970E+005  0.1043930E+01  0.7957747E-01            NaN
         13   -1    0    0    0    0  0.00000000000E+00  0.00000000000E+00  0.74505805969E-08  0.10566000000E+00  0.10566000000E+00 0. -1.
     999900   -1    0    0    0    0 -0.00000000000E+00 -0.00000000000E+00 -0.74505805969E-08  0.93827000000E+00  0.93827000000E+00 0. -1.
     999902    2    1    2    0    0 -0.97099656742E-02 -0.29751464296E-02 -0.22916723706E-01  0.10188638644E+01  0.10185554786E+01 0.  0.
     999903    2    3    3    0    0  0.13684683242E+00 -0.84146894360E-01 -0.41095555471E-01  0.16702865869E+00  0.20049258578E-01 0.  0.
         14    1    1    2    0    0  0.97099656742E-02  0.29751464296E-02  0.22916723706E-01  0.25066135623E-01  0.00000000000E+00 0. -1.
     999901    1    3    3    0    0 -0.14655679809E+00  0.81171747930E-01  0.18178831765E-01  0.85183520569E+00  0.83500000000E+00 0. -1.
        -11    1    4    4    0    0  0.77557023695E-01 -0.56117251411E-01 -0.31295317470E-01  0.10071690944E+00  0.51100000000E-03 0. -1.
         11    1    4    4    0    0  0.59289808724E-01 -0.28029642948E-01 -0.98002380009E-02  0.66311749247E-01  0.51100000000E-03 0.  1.
</event>
<event>
 8    1  0.5716970E+005  0.1043930E+01  0.7957747E-01            NaN
         13   -1    0    0    0    0  0.00000000000E+00  0.00000000000E+00  0.74505805969E-08  0.10566000000E+00  0.10566000000E+00 0.  1.
     999900   -1    0    0    0    0 -0.00000000000E+00 -0.00000000000E+00 -0.74505805969E-08  0.93827000000E+00  0.93827000000E+00 0.  1.
     999902    2    1    2    0    0  0.35805349593E-02  0.18079529003E-01  0.14781004185E-01  0.10203044273E+01  0.10200308607E+01 0.  0.
     999903    2    3    3    0    0  0.15026693789E+00 -0.53229717468E-02 -0.71790204097E-01  0.16778806270E+00  0.19761425325E-01 0.  0.
         14    1    1    2    0    0 -0.35805349593E-02 -0.18079529003E-01 -0.14781004185E-01  0.23625572676E-01  0.00000000000E+00 0. -1.
     999901    1    3    3    0    0 -0.14668640293E+00  0.23402500750E-01  0.86571208281E-01  0.85251636462E+00  0.83500000000E+00 0. -1.
        -11    1    4    4    0    0  0.12859881267E+00 -0.85620457225E-02 -0.67376374369E-01  0.14543314681E+00  0.51100000000E-03 0. -1.
         11    1    4    4    0    0  0.21668125220E-01  0.32390739757E-02 -0.44138297279E-02  0.22354915894E-01  0.51100000000E-03 0.  1.
</event>
<event>
 8    1  0.5716970E+005  0.1043930E+01  0.7957747E-01            NaN
         13   -1    0    0    0    0  0.00000000000E+00  0.00000000000E+00  0.74505805969E-08  0.10566000000E+00  0.10566000000E+00 0.  1.
     999900   -1    0    0    0    0 -0.00000000000E+00 -0.00000000000E+00 -0.74505805969E-08  0.93827000000E+00  0.93827000000E+00 0.  1.
     999902    2    1    2    0    0 -0.18330842041E-01  0.49343650617E-02 -0.13475415868E-01  0.10206500824E+01  0.10203845531E+01 0.  0.
     999903    2    3    3    0    0  0.79215124805E-01 -0.48259750383E-01  0.13508246825E+00  0.16529093303E+00  0.21674404418E-01 0.  0.
         14    1    1    2    0    0  0.18330842041E-01 -0.49343650617E-02  0.13475415868E-01  0.23279917553E-01  0.00000000000E+00 0.  1.
     999901    1    3    3    0    0 -0.97545966845E-01  0.53194115445E-01 -0.14855788412E+00  0.85535914942E+00  0.83500000000E+00 0.  1.
        -11    1    4    4    0    0  0.33122130761E-01 -0.17939053650E-01  0.73607409991E-01  0.82687345577E-01  0.51100000000E-03 0. -1.
         11    1    4    4    0    0  0.46092994044E-01 -0.30320696733E-01  0.61475058259E-01  0.82603587448E-01  0.51100000000E-03 0.  1.
</event>
<event>
 8    1  0.5716970E+005  0.1043930E+01  0.7957747E-01            NaN
         13   -1    0    0    0    0  0.00000000000E+00  0.00000000000E+00  0.74505805969E-08  0.10566000000E+00  0.10566000000E+00 0. -1.
     999900   -1    0    0    0    0 -0.00000000000E+00 -0.00000000000E+00 -0.74505805969E-08  0.93827000000E+00  0.93827000000E+00 0. -1.
     999902    2    1    2    0    0  0.18729807125E-01 -0.14854627793E-01  0.89465417259E-02  0.10184053795E+01  0.10180854634E+01 0.  0.
     999903    2    3    3    0    0  0.12089174178E-02 -0.12163157522E+00 -0.11366793868E+00  0.16754251814E+00  0.18825342695E-01 0.  0.
         14    1    1    2    0    0 -0.18729807125E-01  0.14854627793E-01 -0.89465417259E-02  0.25524620480E-01  0.00000000000E+00 0.  1.
     999901    1    3    3    0    0  0.17520889708E-01  0.10677694743E+00  0.12261448041E+00  0.85086286138E+00  0.83500000000E+00 0.  1.
        -11    1    4    4    0    0  0.83555069068E-02 -0.52455890369E-01 -0.42419813098E-01  0.67978942286E-01  0.51100000000E-03 0. -1.
         11    1    4    4    0    0 -0.71465894890E-02 -0.69175684849E-01 -0.71248125583E-01  0.99563575849E-01  0.51100000000E-03 0.  1.
</event>
<event>
 8    1  0.5716970E+005  0.1043930E+01  0.7957747E-01            NaN
         13   -1    0    0    0    0  0.00000000000E+00  0.00000000000E+00  0.74505805969E-08  0.10566000000E+00  0.10566000000E+00 0. -1.
     999900   -1    0    0    0    0 -0.00000000000E+00 -0.00000000000E+00 -0.74505805969E-08  0.93827000000E+00  0.93827000000E+00 0. -1.
     999902    2    1    2    0    0  0.18838375997E-01 -0.18132227307E-01  0.23329590993E-01  0.10088881408E+01  0.10082794002E+01 0.  0.
     999903    2    3    3    0    0 -0.80486118849E-01 -0.71220807576E-01  0.11824863938E+00  0.16099759462E+00  0.19673992920E-01 0.  0.
         14    1    1    2    0    0 -0.18838375997E-01  0.18132227307E-01 -0.23329590993E-01  0.35041859157E-01  0.00000000000E+00 0.  1.
     999901    1    3    3    0    0  0.99324494846E-01  0.53088580269E-01 -0.94919048390E-01  0.84789054623E+00  0.83500000000E+00 0. -1.
        -11    1    4    4    0    0 -0.33872493085E-01 -0.21585719636E-01  0.33665455784E-01  0.52411001843E-01  0.51100000000E-03 0. -1.
         11    1    4    4    0    0 -0.46613625764E-01 -0.49635087940E-01  0.84583183598E-01  0.10858659277E+00  0.51100000000E-03 0.  1.
</event>
<event>
 8    1  0.5716970E+005  0.1043930E+01  0.7957747E-01            NaN
         13   -1    0    0    0    0  0.00000000000E+00  0.00000000000E+00  0.74505805969E-08  0.10566000000E+00  0.10566000000E+00 0.  1.
     999900   -1    0    0    0    0 -0.00000000000E+00 -0.00000000000E+00 -0.74505805969E-08  0.93827000000E+00  0.93827000000E+00 0.  1.
     999902    2    1    2    0    0 -0.69358949462E-02 -0.95291996671E-02 -0.20703539996E-01  0.10201067162E+01  0.10198284971E+01 0.  0.
     999903    2    3    3    0    0  0.88989192531E-01 -0.17446794174E-01 -0.14318458001E+00  0.17070050245E+00  0.20331516640E-01 0.  0.
         14    1    1    2    0    0  0.69358949462E-02  0.95291996671E-02  0.20703539996E-01  0.23823283849E-01  0.00000000000E+00 0. -1.
     999901    1    3    3    0    0 -0.95925087477E-01  0.79175945072E-02  0.12248104002E+00  0.84940621370E+00  0.83500000000E+00 0. -1.
        -11    1    4    4    0    0  0.21123337021E-01 -0.52529123815E-02 -0.20177681121E-01  0.29684817531E-01  0.51100000000E-03 0.  1.
         11    1    4    4    0    0  0.67865855509E-01 -0.12193881793E-01 -0.12300689889E+00  0.14101568492E+00  0.51100000000E-03 0. -1.
</event>
<event>
 8    1  0.5716970E+005  0.1043930E+01  0.7957747E-01            NaN
         13   -1    0    0    0    0  0.00000000000E+00  0.00000000000E+00  0.74505805969E-08  0.10566000000E+00  0.10566000000E+00 0.  1.
     999900   -1    0    0    0    0 -0.00000000000E+00 -0.00000000000E+00 -0.74505805969E-08  0.93827000000E+00  0.93827000000E+00 0. -1.
     999902    2    1    2    0    0 -0.15529814531E-01  0.16689989305E-01  0.84997900158E-02  0.10195994161E+01  0.10193090758E+01 0.  0.
     999903    2    3    3    0    0  0.41957300260E-01 -0.34384119984E-01 -0.15483957706E+00  0.16530550775E+00  0.20197364118E-01 0.  0.
         14    1    1    2    0    0  0.15529814531E-01 -0.16689989305E-01 -0.84997900158E-02  0.24330583895E-01  0.00000000000E+00 0. -1.
     999901    1    3    3    0    0 -0.57487114791E-01  0.51074109288E-01  0.16333936708E+00  0.85429390835E+00  0.83500000000E+00 0.  1.
        -11    1    4    4    0    0  0.68935339281E-02 -0.61542066183E-02 -0.55165996451E-01  0.55936958754E-01  0.51100000000E-03 0.  1.
         11    1    4    4    0    0  0.35063766332E-01 -0.28229913365E-01 -0.99673580610E-01  0.10936854900E+00  0.51100000000E-03 0. -1.
</event>
<event>
 8    1  0.1107489E+006  0.1043930E+01  0.7957747E-01            NaN
         13   -1    0    0    0    0  0.00000000000E+00  0.00000000000E+00  0.74505805969E-08  0.10566000000E+00  0.10566000000E+00 0.  1.
     999900   -1    0    0    0    0 -0.00000000000E+00 -0.00000000000E+00 -0.74505805969E-08  0.93827000000E+00  0.93827000000E+00 0.  1.
     999902    2    1    2    0    0 -0.12447342544E-01  0.17354772167E-01 -0.14625035500E-01  0.10180453305E+01  0.10177162074E+01 0.  0.
     999903    2    3    3    0    0  0.10441862136E+00  0.12412555030E+00 -0.38122130809E-01  0.16784843206E+00  0.20233599817E-01 0.  0.
         14    1    1    2    0    0  0.12447342544E-01 -0.17354772167E-01  0.14625035500E-01  0.25884669532E-01  0.00000000000E+00 0.  1.
     999901    1    3    3    0    0 -0.11686596391E+00 -0.10677077813E+00  0.23497095309E-01  0.85019689841E+00  0.83500000000E+00 0.  1.
        -11    1    4    4    0    0  0.60939127822E-01  0.60657351304E-01 -0.13283087989E-01  0.87003408637E-01  0.51100000000E-03 0. -1.
         11    1    4    4    0    0  0.43479493541E-01  0.63468198996E-01 -0.24839042820E-01  0.80845023418E-01  0.51100000000E-03 0.  1.
</event>
<event>
 7    1  0.5716970E+005  0.1043930E+01  0.7957747E-01            NaN
         13   -1    0    0    0    0  0.00000000000E+00  0.00000000000E+00  0.74505805969E-08  0.10566000000E+00  0.10566000000E+00 0. -1.
     999900   -1    0    0    0    0 -0.00000000000E+00 -0.00000000000E+00 -0.74505805969E-08  0.93827000000E+00  0.93827000000E+00 0.  1.
     999903    2    1    2    0    0  0.14146603930E+00 -0.52835500995E-01  0.11130749223E-01  0.15291172525E+00  0.21304264879E-01 0.  0.
         14    1    1    2    0    0 -0.94133233407E-02 -0.21749940501E-01 -0.34710372269E-01  0.42029519521E-01  0.00000000000E+00 0.  1.
     999901    1    1    2    0    0 -0.13205271596E+00  0.74585441495E-01  0.23579623046E-01  0.84898875522E+00  0.83500000000E+00 0. -1.
        -11    1    3    3    0    0  0.17616914022E-01 -0.98095579993E-02 -0.50857062152E-02  0.20801649370E-01  0.51100000000E-03 0.  1.
         11    1    3    3    0    0  0.12384912528E+00 -0.43025942995E-01  0.16216455438E-01  0.13211007588E+00  0.51100000000E-03 0. -1.
</event>
<event>
 8    1  0.5716970E+005  0.1043930E+01  0.7957747E-01            NaN
         13   -1    0    0    0    0  0.00000000000E+00  0.00000000000E+00  0.74505805969E-08  0.10566000000E+00  0.10566000000E+00 0.  1.
     999900   -1    0    0    0    0 -0.00000000000E+00 -0.00000000000E+00 -0.74505805969E-08  0.93827000000E+00  0.93827000000E+00 0.  1.
     999902    2    1    2    0    0  0.31268814618E-02  0.71422711830E-03  0.26770000301E-01  0.10169685382E+01  0.10166110796E+01 0.  0.
     999903    2    3    3    0    0  0.49734071465E-01  0.32411186127E-01  0.15780807129E+00  0.16987178843E+00  0.20714108424E-01 0.  0.
         14    1    1    2    0    0 -0.31268814618E-02 -0.71422711830E-03 -0.26770000301E-01  0.26961461833E-01  0.00000000000E+00 0. -1.
     999901    1    3    3    0    0 -0.46607190003E-01 -0.31696959009E-01 -0.13103807099E+00  0.84709674974E+00  0.83500000000E+00 0.  1.
        -11    1    4    4    0    0  0.39498308734E-01  0.26945317089E-01  0.99188711367E-01  0.11011279712E+00  0.51100000000E-03 0. -1.
         11    1    4    4    0    0  0.10235762731E-01  0.54658690379E-02  0.58619359926E-01  0.59758991308E-01  0.51100000000E-03 0.  1.
</event>
<event>
 8    1  0.5716970E+005  0.1043930E+01  0.7957747E-01            NaN
         13   -1    0    0    0    0  0.00000000000E+00  0.00000000000E+00  0.74505805969E-08  0.10566000000E+00  0.10566000000E+00 0.  1.
     999900   -1    0    0    0    0 -0.00000000000E+00 -0.00000000000E+00 -0.74505805969E-08  0.93827000000E+00  0.93827000000E+00 0.  1.
     999902    2    1    2    0    0 -0.21917087275E-01 -0.23832034811E-02  0.11835777245E-01  0.10189075302E+01  0.10186002312E+01 0.  0.
     999903    2    3    3    0    0 -0.32900779088E-01  0.14833538878E+00  0.69430427975E-01  0.16839069945E+00  0.21189490400E-01 0.  0.
         14    1    1    2    0    0  0.21917087275E-01  0.23832034811E-02 -0.11835777245E-01  0.25022469831E-01  0.00000000000E+00 0.  1.
     999901    1    3    3    0    0  0.10983691813E-01 -0.15071859226E+00 -0.57594650730E-01  0.85051683072E+00  0.83500000000E+00 0. -1.
        -11    1    4    4    0    0  0.11313502987E-02  0.25701790874E-01  0.16409644813E-01  0.30518839616E-01  0.51100000000E-03 0. -1.
         11    1    4    4    0    0 -0.34032129387E-01  0.12263359791E+00  0.53020783162E-01  0.13787185984E+00  0.51100000000E-03 0.  1.
</event>
<event>
 8    1  0.5716970E+005  0.1043930E+01  0.7957747E-01            NaN
         13   -1    0    0    0    0  0.00000000000E+00  0.00000000000E+00  0.74505805969E-08  0.10566000000E+00  0.10566000000E+00 0.  1.
     999900   -1    0    0    0    0 -0.00000000000E+00 -0.00000000000E+00 -0.74505805969E-08  0.93827000000E+00  0.93827000000E+00 0.  1.
     999902    2    1    2    0    0  0.19032349107E-01 -0.13734906593E-01 -0.54860298225E-02  0.10198265875E+01  0.10195417079E+01 0.  0.
     999903    2    3    3    0    0  0.10891561209E+00  0.11874954565E+00 -0.45205244697E-01  0.16868984931E+00  0.21182208627E-01 0.  0.
         14    1    1    2    0    0 -0.19032349107E-01  0.13734906593E-01  0.54860298225E-02  0.24103412515E-01  0.00000000000E+00 0.  1.
     999901    1    3    3    0    0 -0.89883262981E-01 -0.13248445224E+00  0.39719214874E-01  0.85113673818E+00  0.83500000000E+00 0. -1.
        -11    1    4    4    0    0  0.25868528343E-01  0.31361350280E-01 -0.22834508432E-02  0.40720883079E-01  0.51100000000E-03 0. -1.
         11    1    4    4    0    0  0.83047083745E-01  0.87388195368E-01 -0.42921793854E-01  0.12796896623E+00  0.51100000000E-03 0.  1.
</event>
<event>
 7    1  0.7193077E+005  0.1043930E+01  0.7957747E-01            NaN
         13   -1    0    0    0    0  0.00000000000E+00  0.00000000000E+00  0.74505805969E-08  0.10566000000E+00  0.10566000000E+00 0. -1.
     999900   -1    0    0    0    0 -0.00000000000E+00 -0.00000000000E+00 -0.74505805969E-08  0.93827000000E+00  0.93827000000E+00 0.  1.
     999903    2    1    2    0    0 -0.14647313169E+00 -0.13884256110E-01 -0.43584174034E-01  0.15476694683E+00  0.20151345610E-01 0.  0.
         14    1    1    2    0    0 -0.52231990461E-03 -0.34951354596E-02  0.40988915716E-01  0.41140977158E-01  0.00000000000E+00 0. -1.
     999901    1    1    2    0    0  0.14699545159E+00  0.17379391569E-01  0.25952583188E-02  0.84802207601E+00  0.83500000000E+00 0. -1.
        -11    1    3    3    0    0 -0.82186820440E-01 -0.17769878177E-01 -0.25577231963E-01  0.87891398558E-01  0.51100000000E-03 0. -1.
         11    1    3    3    0    0 -0.64286311249E-01  0.38856220667E-02 -0.18006942071E-01  0.66875548271E-01  0.51100000000E-03 0.  1.
</event>
<event>
 8    1  0.5716970E+005  0.1043930E+01  0.7957747E-01            NaN
         13   -1    0    0    0    0  0.00000000000E+00  0.00000000000E+00  0.74505805969E-08  0.10566000000E+00  0.10566000000E+00 0.  1.
     999900   -1    0    0    0    0 -0.00000000000E+00 -0.00000000000E+00 -0.74505805969E-08  0.93827000000E+00  0.93827000000E+00 0.  1.
     999902    2    1    2    0    0  0.11588133409E-01  0.19275371932E-01  0.10410296537E-01  0.10191469600E+01  0.10188455854E+01 0.  0.
     999903    2    3    3    0    0  0.10040191030E+00 -0.46383666022E-01 -0.12266142699E+00  0.16642656041E+00  0.20493566617E-01 0.  0.
         14    1    1    2    0    0 -0.11588133409E-01 -0.19275371932E-01 -0.10410296537E-01  0.24783040027E-01  0.00000000000E+00 0. -1.
     999901    1    3    3    0    0 -0.88813776896E-01  0.65659037953E-01  0.13307172352E+00  0.85272039956E+00  0.83500000000E+00 0. -1.
        -11    1    4    4    0    0  0.24352723285E-01 -0.19861993217E-01 -0.41784302388E-01  0.52285207784E-01  0.51100000000E-03 0.  1.
         11    1    4    4    0    0  0.76049187020E-01 -0.26521672804E-01 -0.80877124598E-01  0.11414135262E+00  0.51100000000E-03 0. -1.
</event>
<event>
 8    1  0.5716970E+005  0.1043930E+01  0.7957747E-01            NaN
         13   -1    0    0    0    0  0.00000000000E+00  0.00000000000E+00  0.74505805969E-08  0.10566000000E+00  0.10566000000E+00 0. -1.
     999900   -1    0    0    0    0 -0.00000000000E+00 -0.00000000000E+00 -0.74505805969E-08  0.93827000000E+00  0.93827000000E+00 0. -1.
     999902    2    1    2    0    0  0.86773011702E-02  0.21904219391E-01 -0.48248008880E-02  0.10198806947E+01  0.10195971078E+01 0.  0.
     999903    2    3    3    0    0  0.63741738370E-01 -0.11581819146E+00  0.97927889599E-01  0.16560751232E+00  0.18950300571E-01 0.  0.
         14    1    1    2    0    0 -0.86773011702E-02 -0.21904219391E-01  0.48248008880E-02  0.24049305319E-01  0.00000000000E+00 0. -1.
     999901    1    3    3    0    0 -0.55064437200E-01  0.13772241085E+00 -0.10275269049E+00  0.85427318236E+00  0.83500000000E+00 0.  1.
        -11    1    4    4    0    0  0.22756300618E-01 -0.37892806324E-01  0.43931140550E-01  0.62321105735E-01  0.51100000000E-03 0. -1.
         11    1    4    4    0    0  0.40985437752E-01 -0.77925385139E-01  0.53996749049E-01  0.10328640659E+00  0.51100000000E-03 0.  1.
</event>
<event>
 8    1  0.5716970E+005  0.1043930E+01  0.7957747E-01            NaN
         13   -1    0    0    0    0  0.00000000000E+00  0.00000000000E+00  0.74505805969E-08  0.10566000000E+00  0.10566000000E+00 0. -1.
     999900   -1    0    0    0    0 -0.00000000000E+00 -0.00000000000E+00 -0.74505805969E-08  0.93827000000E+00  0.93827000000E+00 0.  1.
     999902    2    1    2    0    0  0.16382587290E-01 -0.88994366743E-02 -0.15320163446E-01  0.10197991785E+01  0.10195136428E+01 0.  0.
     999903    2    3    3    0    0 -0.13599999445E+00  0.25216728515E-01 -0.91262030726E-01  0.16693545481E+00  0.20169430635E-01 0.  0.
         14    1    1    2    0    0 -0.16382587290E-01  0.88994366743E-02  0.15320163446E-01  0.24130821525E-01  0.00000000000E+00 0. -1.
     999901    1    3    3    0    0  0.15238258174E+00 -0.34116165190E-01  0.75941867280E-01  0.85286372367E+00  0.83500000000E+00 0. -1.
        -11    1    4    4    0    0 -0.10556184997E+00  0.11212935498E-01 -0.72219148827E-01  0.12839353827E+00  0.51100000000E-03 0.  1.
         11    1    4    4    0    0 -0.30438144482E-01  0.14003793017E-01 -0.19042881899E-01  0.38541916537E-01  0.51100000000E-03 0. -1.
</event>
<event>
 8    1  0.5716970E+005  0.1043930E+01  0.7957747E-01            NaN
         13   -1    0    0    0    0  0.00000000000E+00  0.00000000000E+00  0.74505805969E-08  0.10566000000E+00  0.10566000000E+00 0. -1.
     999900   -1    0    0    0    0 -0.00000000000E+00 -0.00000000000E+00 -0.74505805969E-08  0.93827000000E+00  0.93827000000E+00 0. -1.
     999902    2    1    2    0    0 -0.15916796384E-01 -0.14832472605E-01  0.81610303789E-02  0.10206931958E+01  0.10204286604E+01 0.  0.
     999903    2    3    3    0    0  0.97450811314E-01 -0.13670926736E+00 -0.39619872773E-02  0.16917799625E+00  0.20479566978E-01 0.  0.
         14    1    1    2    0    0  0.15916796384E-01  0.14832472605E-01 -0.81610303789E-02  0.23236804160E-01  0.00000000000E+00 0.  1.
     999901    1    3    3    0    0 -0.11336760770E+00  0.12187679476E+00  0.12123017656E-01  0.85151519959E+00  0.83500000000E+00 0.  1.
        -11    1    4    4    0    0  0.15180043606E-01 -0.14328395119E-01 -0.59088451452E-02  0.21700511572E-01  0.51100000000E-03 0.  1.
         11    1    4    4    0    0  0.82270767708E-01 -0.12238087224E+00  0.19468578679E-02  0.14747748468E+00  0.51100000000E-03 0. -1.
</event>
<event>
 8    1  0.5716970E+005  0.1043930E+01  0.7957747E-01            NaN
         13   -1    0    0    0    0  0.00000000000E+00  0.00000000000E+00  0.74505805969E-08  0.10566000000E+00  0.10566000000E+00 0. -1.
     999900   -1    0    0    0    0 -0.00000000000E+00 -0.00000000000E+00 -0.74505805969E-08  0.93827000000E+00  0.93827000000E+00 0. -1.
     999902    2    1    2    0    0  0.17843144049E-01  0.11434552027E-01 -0.13236558011E-01  0.10189433388E+01  0.10186369297E+01 0.  0.
     999903    2    3    3    0    0 -0.53176103051E-01  0.12301613913E+00 -0.10107417316E+00  0.16898179222E+00  0.19447087145E-01 0.  0.
         14    1    1    2    0    0 -0.17843144049E-01 -0.11434552027E-01  0.13236558011E-01  0.24986661193E-01  0.00000000000E+00 0. -1.
     999901    1    3    3    0    0  0.71019247100E-01 -0.11158158711E+00  0.87837615151E-01  0.84996154659E+00  0.83500000000E+00 0.  1.
        -11    1    4    4    0    0 -0.56273406017E-02  0.28442156646E-01 -0.15613041995E-01  0.32934046795E-01  0.51100000000E-03 0. -1.
         11    1    4    4    0    0 -0.47548762450E-01  0.94573982489E-01 -0.85461131166E-01  0.13604774543E+00  0.51100000000E-03 0.  1.
</event>
<event>
 8    1  0.5716970E+005  0.1043930E+01  0.7957747E-01            NaN
         13   -1    0    0    0    0  0.00000000000E+00  0.00000000000E+00  0.74505805969E-08  0.10566000000E+00  0.10566000000E+00 0. -1.
     999900   -1    0    0    0    0 -0.00000000000E+00 -0.00000000000E+00 -0.74505805969E-08  0.93827000000E+00  0.93827000000E+00 0. -1.
     999902    2    1    2    0    0  0.21709196836E-01 -0.94052324646E-03  0.37694205665E-02  0.10218759223E+01  0.10216379096E+01 0.  0.
     999903    2    3    3    0    0 -0.56083550038E-01 -0.11828687205E+00  0.10484148120E+00  0.16907908925E+00  0.21420867319E-01 0.  0.
         14    1    1    2    0    0 -0.21709196836E-01  0.94052324646E-03 -0.37694205665E-02  0.22054077687E-01  0.00000000000E+00 0. -1.
     999901    1    3    3    0    0  0.77792746874E-01  0.11734634880E+00 -0.10107206064E+00  0.85279683306E+00  0.83500000000E+00 0. -1.
        -11    1    4    4    0    0 -0.37536191446E-01 -0.56211733691E-01  0.58885648440E-01  0.89646558138E-01  0.51100000000E-03 0. -1.
         11    1    4    4    0    0 -0.18547358592E-01 -0.62075138355E-01  0.45955832765E-01  0.79432531111E-01  0.51100000000E-03 0.  1.
</event>
<event>
 8    1  0.5716970E+005  0.1043930E+01  0.7957747E-01            NaN
         13   -1    0    0    0    0  0.00000000000E+00  0.00000000000E+00  0.74505805969E-08  0.10566000000E+00  0.10566000000E+00 0. -1.
     999900   -1    0    0    0    0 -0.00000000000E+00 -0.00000000000E+00 -0.74505805969E-08  0.93827000000E+00  0.93827000000E+00 0. -1.
     999902    2    1    2    0    0 -0.10413055555E-01 -0.20590003694E-01 -0.30328575181E-02  0.10206581672E+01  0.10203928244E+01 0.  0.
     999903    2    3    3    0    0 -0.11527756987E+00 -0.34000478726E-01  0.11876483329E+00  0.17022528641E+00  0.20654583998E-01 0.  0.
         14    1    1    2    0    0  0.10413055555E-01  0.20590003694E-01  0.30328575181E-02  0.23271832821E-01  0.00000000000E+00 0.  1.
     999901    1    3    3    0    0  0.10486451431E+00  0.13410475032E-01 -0.12179769081E+00  0.85043288077E+00  0.83500000000E+00 0. -1.
        -11    1    4    4    0    0 -0.10469978715E+00 -0.33085170085E-01  0.99291118914E-01  0.14803939113E+00  0.51100000000E-03 0. -1.
         11    1    4    4    0    0 -0.10577782717E-01 -0.91530864136E-03  0.19473714375E-01  0.22185895286E-01  0.51100000000E-03 0.  1.
</event>
<event>
 8    1  0.5716970E+005  0.1043930E+01  0.7957747E-01            NaN
         13   -1    0    0    0    0  0.00000000000E+00  0.00000000000E+00  0.74505805969E-08  0.10566000000E+00  0.10566000000E+00 0.  1.
     999900   -1    0    0    0    0 -0.00000000000E+00 -0.00000000000E+00 -0.74505805969E-08  0.93827000000E+00  0.93827000000E+00 0.  1.
     999902    2    1    2    0    0 -0.78057312462E-02 -0.20229028272E-01  0.10060452926E-01  0.10200269513E+01  0.10197468439E+01 0.  0.
     999903    2    3    3    0    0 -0.11239545020E+00 -0.12814248666E+00  0.13699443162E-02  0.17156667009E+00  0.19493881767E-01 0.  0.
         14    1    1    2    0    0  0.78057312462E-02  0.20229028272E-01 -0.10060452926E-01  0.23903048721E-01  0.00000000000E+00 0.  1.
     999901    1    3    3    0    0  0.10458971895E+00  0.10791345839E+00  0.86905086094E-02  0.84846028119E+00  0.83500000000E+00 0.  1.
        -11    1    4    4    0    0 -0.10267154105E+00 -0.10716996620E+00  0.21470603071E-02  0.14843085254E+00  0.51100000000E-03 0. -1.
         11    1    4    4    0    0 -0.97239091499E-02 -0.20972520456E-01 -0.77711599088E-03  0.23135817549E-01  0.51100000000E-03 0.  1.
</event>
<event>
 8    1  0.5716970E+005  0.1043930E+01  0.7957747E-01            NaN
         13   -1    0    0    0    0  0.00000000000E+00  0.00000000000E+00  0.74505805969E-08  0.10566000000E+00  0.10566000000E+00 0. -1.
     999900   -1    0    0    0    0 -0.00000000000E+00 -0.00000000000E+00 -0.74505805969E-08  0.93827000000E+00  0.93827000000E+00 0.  1.
     999902    2    1    2    0    0  0.31469489093E-02 -0.29804050452E-02 -0.25077078269E-01  0.10184811109E+01  0.10181631143E+01 0.  0.
     999903    2    3    3    0    0 -0.22777320444E-01 -0.10575684175E+00 -0.13003797789E+00  0.17026129616E+00  0.19383430332E-01 0.  0.
         14    1    1    2    0    0 -0.31469489093E-02  0.29804050452E-02  0.25077078269E-01  0.25448889095E-01  0.00000000000E+00 0. -1.
     999901    1    3    3    0    0  0.25924269353E-01  0.10277643670E+00  0.10496089963E+00  0.84821981475E+00  0.83500000000E+00 0. -1.
        -11    1    4    4    0    0 -0.21177587608E-01 -0.67896434010E-01 -0.94781447277E-01  0.11849978834E+00  0.51100000000E-03 0. -1.
         11    1    4    4    0    0 -0.15997328357E-02 -0.37860407735E-01 -0.35256530617E-01  0.51761507814E-01  0.51100000000E-03 0.  1.
</event>
<event>
 8    1  0.5716970E+005  0.1043930E+01  0.7957747E-01            NaN
         13   -1    0    0    0    0  0.00000000000E+00  0.00000000000E+00  0.74505805969E-08  0.10566000000E+00  0.10566000000E+00 0. -1.
     999900   -1    0    0    0    0 -0.00000000000E+00 -0.00000000000E+00 -0.74505805969E-08  0.93827000000E+00  0.93827000000E+00 0.  1.
     999902    2    1    2    0    0 -0.21977375635E-01 -0.23230698981E-02 -0.96249493167E-02  0.10198252008E+01  0.10195402880E+01 0.  0.
     999903    2    3    3    0    0  0.49865252190E-01 -0.15629817124E+00 -0.29757974736E-01  0.16747548756E+00  0.15711147774E-01 0.  0.
         14    1    1    2    0    0  0.21977375635E-01  0.23230698981E-02  0.96249493167E-02  0.24104799168E-01  0.00000000000E+00 0. -1.
     999901    1    3    3    0    0 -0.71842627825E-01  0.15397510134E+00  0.20133025419E-01  0.85234971327E+00  0.83500000000E+00 0.  1.
        -11    1    4    4    0    0  0.11463793686E-01 -0.59700149044E-01 -0.87134236054E-02  0.61414259203E-01  0.51100000000E-03 0. -1.
         11    1    4    4    0    0  0.38401458504E-01 -0.96598022194E-01 -0.21044551131E-01  0.10606122836E+00  0.51100000000E-03 0.  1.
</event>
<event>
 8    1  0.5716970E+005  0.1043930E+01  0.7957747E-01            NaN
         13   -1    0    0    0    0  0.00000000000E+00  0.00000000000E+00  0.74505805969E-08  0.10566000000E+00  0.10566000000E+00 0. -1.
     999900   -1    0    0    0    0 -0.00000000000E+00 -0.00000000000E+00 -0.74505805969E-08  0.93827000000E+00  0.93827000000E+00 0.  1.
     999902    2    1    2    0    0 -0.13239861611E-01  0.56415696787E-04  0.18333881715E-01  0.10213152186E+01  0.10210648106E+01 0.  0.
     999903    2    3    3    0    0 -0.38717209986E-01 -0.16329262354E+00 -0.10912400698E-01  0.16960379511E+00  0.21974156964E-01 0.  0.
         14    1    1    2    0    0  0.13239861611E-01 -0.56415696787E-04 -0.18333881715E-01  0.22614781382E-01  0.00000000000E+00 0.  1.
     999901    1    3    3    0    0  0.25477348375E-01  0.16334903924E+00  0.29246282413E-01  0.85171142351E+00  0.83500000000E+00 0.  1.
        -11    1    4    4    0    0 -0.14024461547E-02 -0.73591816763E-02 -0.52587719863E-02  0.91673449791E-02  0.51100000000E-03 0.  1.
         11    1    4    4    0    0 -0.37314763831E-01 -0.15593344187E+00 -0.56536287116E-02  0.16043645013E+00  0.51100000000E-03 0. -1.
</event>
<event>
 8    1  0.5716970E+005  0.1043930E+01  0.7957747E-01            NaN
         13   -1    0    0    0    0  0.00000000000E+00  0.00000000000E+00  0.74505805969E-08  0.10566000000E+00  0.10566000000E+00 0. -1.
     999900   -1    0    0    0    0 -0.00000000000E+00 -0.00000000000E+00 -0.74505805969E-08  0.93827000000E+00  0.93827000000E+00 0. -1.
     999902    2    1    2    0    0  0.97012009015E-02 -0.19883833407E-01  0.89689230068E-02  0.10200569669E+01  0.10197775708E+01 0.  0.
     999903    2    3    3    0    0 -0.42946836649E-02  0.65860346446E-01  0.15335517531E+00  0.16822345087E+00  0.20622562531E-01 0.  0.
         14    1    1    2    0    0 -0.97012009015E-02  0.19883833407E-01 -0.89689230068E-02  0.23873033108E-01  0.00000000000E+00 0.  1.
     999901    1    3    3    0    0  0.13995884566E-01 -0.85744179853E-01 -0.14438625231E+00  0.85183351602E+00  0.83500000000E+00 0. -1.
        -11    1    4    4    0    0 -0.81244718780E-02  0.31802856310E-01  0.54829392703E-01  0.63905806763E-01  0.51100000000E-03 0. -1.
         11    1    4    4    0    0  0.38297882131E-02  0.34057490136E-01  0.98525782610E-01  0.10431764411E+00  0.51100000000E-03 0.  1.
</event>
<event>
 8    1  0.5716970E+005  0.1043930E+01  0.7957747E-01            NaN
         13   -1    0    0    0    0  0.00000000000E+00  0.00000000000E+00  0.74505805969E-08  0.10566000000E+00  0.10566000000E+00 0.  1.
     999900   -1    0    0    0    0 -0.00000000000E+00 -0.00000000000E+00 -0.74505805969E-08  0.93827000000E+00  0.93827000000E+00 0.  1.
     999902    2    1    2    0    0 -0.41547624119E-02 -0.11353670384E-01  0.11799032081E-01  0.10270366569E+01  0.10268977114E+01 0.  0.
     999903    2    3    3    0    0 -0.72279762236E-01  0.15468655239E+00  0.18481569627E-01  0.17294062751E+00  0.20361697089E-01 0.  0.
         14    1    1    2    0    0  0.41547624119E-02  0.11353670384E-01 -0.11799032081E-01  0.16893343066E-01  0.00000000000E+00 0. -1.
     999901    1    3    3    0    0  0.68124999824E-01 -0.16604022277E+00 -0.66825375453E-02  0.85409602943E+00  0.83500000000E+00 0. -1.
        -11    1    4    4    0    0 -0.59145801230E-01  0.10883098268E+00  0.81561595896E-02  0.12413376919E+00  0.51100000000E-03 0.  1.
         11    1    4    4    0    0 -0.13133961005E-01  0.45855569706E-01  0.10325410037E-01  0.48806858311E-01  0.51100000000E-03 0. -1.
</event>
<event>
 8    1  0.6021769E+005  0.1043930E+01  0.7957747E-01            NaN
         13   -1    0    0    0    0  0.00000000000E+00  0.00000000000E+00  0.74505805969E-08  0.10566000000E+00  0.10566000000E+00 0. -1.
     999900   -1    0    0    0    0 -0.00000000000E+00 -0.00000000000E+00 -0.74505805969E-08  0.93827000000E+00  0.93827000000E+00 0.  1.
     999902    2    1    2    0    0  0.13473043089E-01 -0.15551057426E-01  0.12256631876E-01  0.10199804008E+01  0.10196991883E+01 0.  0.
     999903    2    3    3    0    0 -0.67965102597E-01 -0.11565888629E+00  0.10274642185E+00  0.17023505596E+00  0.20661895522E-01 0.  0.
         14    1    1    2    0    0 -0.13473043089E-01  0.15551057426E-01 -0.12256631876E-01  0.23949599205E-01  0.00000000000E+00 0.  1.
     999901    1    3    3    0    0  0.81438145686E-01  0.10010782886E+00 -0.90489789976E-01  0.84974534483E+00  0.83500000000E+00 0.  1.
        -11    1    4    4    0    0 -0.55924815133E-01 -0.77822070157E-01  0.68503691256E-01  0.11780015445E+00  0.51100000000E-03 0. -1.
         11    1    4    4    0    0 -0.12040287464E-01 -0.37836816134E-01  0.34242730595E-01  0.52434901516E-01  0.51100000000E-03 0.  1.
</event>
<event>
 8    1  0.5716970E+005  0.1043930E+01  0.7957747E-01            NaN
         13   -1    0    0    0    0  0.00000000000E+00  0.00000000000E+00  0.74505805969E-08  0.10566000000E+00  0.10566000000E+00 0. -1.
     999900   -1    0    0    0    0 -0.00000000000E+00 -0.00000000000E+00 -0.74505805969E-08  0.93827000000E+00  0.93827000000E+00 0.  1.
     999902    2    1    2    0    0  0.86848318992E-02 -0.66825946097E-03  0.22624524051E-01  0.10196866099E+01  0.10193983718E+01 0.  0.
     999903    2    3    3    0    0 -0.12884049262E+00 -0.10398464813E+00 -0.45508346575E-02  0.16672061339E+00  0.19036103768E-01 0.  0.
         14    1    1    2    0    0 -0.86848318992E-02  0.66825946097E-03 -0.22624524051E-01  0.24243390116E-01  0.00000000000E+00 0.  1.
     999901    1    3    3    0    0  0.13752532452E+00  0.10331638867E+00  0.27175358708E-01  0.85296599649E+00  0.83500000000E+00 0.  1.
        -11    1    4    4    0    0 -0.12263838482E-01 -0.17627727649E-01 -0.25194467195E-02  0.21627465158E-01  0.51100000000E-03 0. -1.
         11    1    4    4    0    0 -0.11657665414E+00 -0.86356920481E-01 -0.20313879380E-02  0.14509314823E+00  0.51100000000E-03 0.  1.
</event>
<event>
 8    1  0.5716970E+005  0.1043930E+01  0.7957747E-01            NaN
         13   -1    0    0    0    0  0.00000000000E+00  0.00000000000E+00  0.74505805969E-08  0.10566000000E+00  0.10566000000E+00 0. -1.
     999900   -1    0    0    0    0 -0.00000000000E+00 -0.00000000000E+00 -0.74505805969E-08  0.93827000000E+00  0.93827000000E+00 0.  1.
     999902    2    1    2    0    0 -0.31544318386E-02 -0.23608676818E-01  0.76015978655E-02  0.10189279131E+01  0.10186211208E+01 0.  0.
     999903    2    3    3    0    0 -0.90827409846E-01  0.75091160888E-02 -0.13777486368E+00  0.16627664573E+00  0.18973788454E-01 0.  0.
         14    1    1    2    0    0  0.31544318386E-02  0.23608676818E-01 -0.76015978655E-02  0.25002086941E-01  0.00000000000E+00 0.  1.
     999901    1    3    3    0    0  0.87672978008E-01 -0.31117792907E-01  0.14537646155E+00  0.85265126733E+00  0.83500000000E+00 0. -1.
        -11    1    4    4    0    0 -0.26883284239E-01  0.29138183707E-02 -0.26561362157E-01  0.37907365902E-01  0.51100000000E-03 0. -1.
         11    1    4    4    0    0 -0.63944125608E-01  0.45952977180E-02 -0.11121350152E+00  0.12836927983E+00  0.51100000000E-03 0.  1.
</event>
<event>
 8    1  0.5716970E+005  0.1043930E+01  0.7957747E-01            NaN
         13   -1    0    0    0    0  0.00000000000E+00  0.00000000000E+00  0.74505805969E-08  0.10566000000E+00  0.10566000000E+00 0. -1.
     999900   -1    0    0    0    0 -0.00000000000E+00 -0.00000000000E+00 -0.74505805969E-08  0.93827000000E+00  0.93827000000E+00 0.  1.
     999902    2    1    2    0    0 -0.20100472496E-01  0.10803123815E-01  0.58246025031E-02  0.10203787267E+01  0.10201068981E+01 0.  0.
     999903    2    3    3    0    0  0.38641915132E-01 -0.37447845890E-01  0.15812723783E+00  0.16820508426E+00  0.19828975234E-01 0.  0.
         14    1    1    2    0    0  0.20100472496E-01 -0.10803123815E-01 -0.58246025031E-02  0.23551273279E-01  0.00000000000E+00 0.  1.
     999901    1    3    3    0    0 -0.58742387628E-01  0.48250969705E-01 -0.15230263533E+00  0.85217364246E+00  0.83500000000E+00 0.  1.
        -11    1    4    4    0    0  0.54749145315E-02 -0.69164426602E-02  0.54274769956E-01  0.54989304806E-01  0.51100000000E-03 0.  1.
         11    1    4    4    0    0  0.33167000600E-01 -0.30531403230E-01  0.10385246788E+00  0.11321577945E+00  0.51100000000E-03 0. -1.
</event>
<event>
 8    1  0.5716970E+005  0.1043930E+01  0.7957747E-01            NaN
         13   -1    0    0    0    0  0.00000000000E+00  0.00000000000E+00  0.74505805969E-08  0.10566000000E+00  0.10566000000E+00 0.  1.
     999900   -1    0    0    0    0 -0.00000000000E+00 -0.00000000000E+00 -0.74505805969E-08  0.93827000000E+00  0.93827000000E+00 0.  1.
     999902    2    1    2    0    0  0.22243949912E-01 -0.74703981825E-03 -0.60531833798E-02  0.10208650394E+01  0.10206044466E+01 0.  0.
     999903    2    3    3    0    0  0.65178453917E-01  0.32542713822E-01 -0.15364373134E+00  0.17118301117E+00  0.19747608821E-01 0.  0.
         14    1    1    2    0    0 -0.22243949912E-01  0.74703981825E-03  0.60531833798E-02  0.23064960551E-01  0.00000000000E+00 0.  1.
     999901    1    3    3    0    0 -0.42934504005E-01 -0.33289753640E-01  0.14759054796E+00  0.84968202828E+00  0.83500000000E+00 0. -1.
        -11    1    4    4    0    0  0.54798468832E-01  0.21433699289E-01 -0.13389466102E+00  0.14625428890E+00  0.51100000000E-03 0. -1.
         11    1    4    4    0    0  0.10379985085E-01  0.11109014533E-01 -0.19749070321E-01  0.24928722266E-01  0.51100000000E-03 0.  1.
</event>
<event>
 8    1  0.5716970E+005  0.1043930E+01  0.7957747E-01            NaN
         13   -1    0    0    0    0  0.00000000000E+00  0.00000000000E+00  0.74505805969E-08  0.10566000000E+00  0.10566000000E+00 0.  1.
     999900   -1    0    0    0    0 -0.00000000000E+00 -0.00000000000E+00 -0.74505805969E-08  0.93827000000E+00  0.93827000000E+00 0.  1.
     999902    2    1    2    0    0  0.16557783215E-01  0.46138275060E-02  0.16428716275E-01  0.10201529037E+01  0.10198757751E+01 0.  0.
     999903    2    3    3    0    0 -0.95225934765E-01 -0.47589809346E-01 -0.12388191771E+00  0.16450525818E+00  0.19557142578E-01 0.  0.
         14    1    1    2    0    0 -0.16557783215E-01 -0.46138275060E-02 -0.16428716275E-01  0.23777096284E-01  0.00000000000E+00 0.  1.
     999901    1    3    3    0    0  0.11178371798E+00  0.52203636852E-01  0.14031063399E+00  0.85564764554E+00  0.83500000000E+00 0. -1.
        -11    1    4    4    0    0 -0.54560695805E-01 -0.27400085489E-01 -0.56067083059E-01  0.82893987329E-01  0.51100000000E-03 0.  1.
         11    1    4    4    0    0 -0.40665238960E-01 -0.20189723857E-01 -0.67814834656E-01  0.81611270848E-01  0.51100000000E-03 0. -1.
</event>
<event>
 8    1  0.5716970E+005  0.1043930E+01  0.7957747E-01            NaN
         13   -1    0    0    0    0  0.00000000000E+00  0.00000000000E+00  0.74505805969E-08  0.10566000000E+00  0.10566000000E+00 0.  1.
     999900   -1    0    0    0    0 -0.00000000000E+00 -0.00000000000E+00 -0.74505805969E-08  0.93827000000E+00  0.93827000000E+00 0.  1.
     999902    2    1    2    0    0 -0.24350311671E-01  0.23342129719E-02  0.22289328106E-02  0.10193667272E+01  0.10190707386E+01 0.  0.
     999903    2    3    3    0    0 -0.14572312033E+00 -0.84246385180E-01  0.22469097345E-01  0.17091977959E+00  0.19391480255E-01 0.  0.
         14    1    1    2    0    0  0.24350311671E-01 -0.23342129719E-02 -0.22289328106E-02  0.24563272790E-01  0.00000000000E+00 0. -1.
     999901    1    3    3    0    0  0.12137280866E+00  0.86580598152E-01 -0.20240164534E-01  0.84844694762E+00  0.83500000000E+00 0.  1.
        -11    1    4    4    0    0 -0.55912091370E-01 -0.23076622668E-01  0.12774408683E-01  0.61823451161E-01  0.51100000000E-03 0.  1.
         11    1    4    4    0    0 -0.89811028960E-01 -0.61169762512E-01  0.96946886618E-02  0.10909632843E+00  0.51100000000E-03 0. -1.
</event>
<event>
 8    1  0.5716970E+005  0.1043930E+01  0.7957747E-01            NaN
         13   -1    0    0    0    0  0.00000000000E+00  0.00000000000E+00  0.74505805969E-08  0.10566000000E+00  0.10566000000E+00 0. -1.
     999900   -1    0    0    0    0 -0.00000000000E+00 -0.00000000000E+00 -0.74505805969E-08  0.93827000000E+00  0.93827000000E+00 0.  1.
     999902    2    1    2    0    0 -0.10573057183E-01  0.19669468551E-01 -0.20333741057E-02  0.10215065270E+01  0.10212603843E+01 0.  0.
     999903    2    3    3    0    0 -0.46326548447E-01 -0.10197223501E+00 -0.12382064848E+00  0.16819992537E+00  0.20375870505E-01 0.  0.
         14    1    1    2    0    0  0.10573057183E-01 -0.19669468551E-01  0.20333741057E-02  0.22423473003E-01  0.00000000000E+00 0.  1.
     999901    1    3    3    0    0  0.35753491264E-01  0.12164170356E+00  0.12178727438E+00  0.85330660163E+00  0.83500000000E+00 0. -1.
        -11    1    4    4    0    0 -0.12163640413E-01 -0.38128234573E-01 -0.31889752527E-01  0.51175520095E-01  0.51100000000E-03 0. -1.
         11    1    4    4    0    0 -0.34162908034E-01 -0.63844000440E-01 -0.91930895955E-01  0.11702440527E+00  0.51100000000E-03 0.  1.
</event>
<event>
 8    1  0.5716970E+005  0.1043930E+01  0.7957747E-01            NaN
         13   -1    0    0    0    0  0.00000000000E+00  0.00000000000E+00  0.74505805969E-08  0.10566000000E+00  0.10566000000E+00 0. -1.
     999900   -1    0    0    0    0 -0.00000000000E+00 -0.00000000000E+00 -0.74505805969E-08  0.93827000000E+00  0.93827000000E+00 0.  1.
     999902    2    1    2    0    0 -0.18359795611E-01 -0.21909370397E-02  0.16328185817E-01  0.10192623704E+01  0.10189638304E+01 0.  0.
     999903    2    3    3    0    0 -0.38820525494E-01 -0.79764434840E-01  0.14452611656E+00  0.17067766718E+00  0.19330531319E-01 0.  0.
         14    1    1    2    0    0  0.18359795611E-01  0.21909370397E-02 -0.16328185817E-01  0.24667629640E-01  0.00000000000E+00 0.  1.
     999901    1    3    3    0    0  0.20460729883E-01  0.77573497801E-01 -0.12819793074E+00  0.84858470318E+00  0.83500000000E+00 0. -1.
        -11    1    4    4    0    0 -0.18391309580E-01 -0.56378647485E-01  0.86755514970E-01  0.10508840402E+00  0.51100000000E-03 0.  1.
         11    1    4    4    0    0 -0.20429215914E-01 -0.23385787355E-01  0.57770601588E-01  0.65589263160E-01  0.51100000000E-03 0. -1.
</event>
<event>
 8    1  0.5716970E+005  0.1043930E+01  0.7957747E-01            NaN
         13   -1    0    0    0    0  0.00000000000E+00  0.00000000000E+00  0.74505805969E-08  0.10566000000E+00  0.10566000000E+00 0. -1.
     999900   -1    0    0    0    0 -0.00000000000E+00 -0.00000000000E+00 -0.74505805969E-08  0.93827000000E+00  0.93827000000E+00 0. -1.
     999902    2    1    2    0    0  0.14374502958E-01 -0.19812800899E-02  0.24955799906E-01  0.10150623060E+01  0.10146517340E+01 0.  0.
     999903    2    3    3    0    0  0.51753779843E-01 -0.10478580474E+00 -0.11040410956E+00  0.16211841238E+00  0.20851705526E-01 0.  0.
         14    1    1    2    0    0 -0.14374502958E-01  0.19812800899E-02 -0.24955799906E-01  0.28867693968E-01  0.00000000000E+00 0.  1.
     999901    1    3    3    0    0 -0.37379276885E-01  0.10280452465E+00  0.13535990946E+00  0.85294389365E+00  0.83500000000E+00 0.  1.
        -11    1    4    4    0    0  0.35041503217E-01 -0.51778685730E-01 -0.66606437019E-01  0.91354353027E-01  0.51100000000E-03 0. -1.
         11    1    4    4    0    0  0.16712276626E-01 -0.53007119007E-01 -0.43797672538E-01  0.70764059353E-01  0.51100000000E-03 0.  1.
</event>
<event>
 8    1  0.5716970E+005  0.1043930E+01  0.7957747E-01            NaN
         13   -1    0    0    0    0  0.00000000000E+00  0.00000000000E+00  0.74505805969E-08  0.10566000000E+00  0.10566000000E+00 0.  1.
     999900   -1    0    0    0    0 -0.00000000000E+00 -0.00000000000E+00 -0.74505805969E-08  0.93827000000E+00  0.93827000000E+00 0. -1.
     999902    2    1    2    0    0  0.99517874803E-02  0.16955600402E-01  0.11476221970E-01  0.10211652437E+01  0.10209114657E+01 0.  0.
     999903    2    3    3    0    0 -0.79569390332E-01 -0.12986596466E+00  0.65452057219E-01  0.16693517864E+00  0.19670419883E-01 0.  0.
         14    1    1    2    0    0 -0.99517874803E-02 -0.16955600402E-01 -0.11476221970E-01  0.22764756308E-01  0.00000000000E+00 0. -1.
     999901    1    3    3    0    0  0.89521177812E-01  0.14682156506E+00 -0.53975835249E-01  0.85423006505E+00  0.83500000000E+00 0. -1.
        -11    1    4    4    0    0 -0.45009255408E-01 -0.55112459432E-01  0.28148272392E-01  0.76523216194E-01  0.51100000000E-03 0. -1.
         11    1    4    4    0    0 -0.34560134924E-01 -0.74753505231E-01  0.37303784827E-01  0.90411962448E-01  0.51100000000E-03 0.  1.
</event>
<event>
 8    1  0.5716970E+005  0.1043930E+01  0.7957747E-01            NaN
         13   -1    0    0    0    0  0.00000000000E+00  0.00000000000E+00  0.74505805969E-08  0.10566000000E+00  0.10566000000E+00 0. -1.
     999900   -1    0    0    0    0 -0.00000000000E+00 -0.00000000000E+00 -0.74505805969E-08  0.93827000000E+00  0.93827000000E+00 0. -1.
     999902    2    1    2    0    0 -0.15291706162E-01  0.97445581388E-02  0.14773923214E-01  0.10205406542E+01  0.10202725936E+01 0.  0.
     999903    2    3    3    0    0 -0.51950425782E-01  0.24827558926E-01  0.16079706680E+00  0.17194232924E+00  0.19829610973E-01 0.  0.
         14    1    1    2    0    0  0.15291706162E-01 -0.97445581388E-02 -0.14773923214E-01  0.23389345818E-01  0.00000000000E+00 0.  1.
     999901    1    3    3    0    0  0.36658719620E-01 -0.15083000787E-01 -0.14602314358E+00  0.84859832494E+00  0.83500000000E+00 0. -1.
        -11    1    4    4    0    0 -0.42166055114E-01  0.12395511146E-01  0.10232330708E+00  0.11136402109E+00  0.51100000000E-03 0. -1.
         11    1    4    4    0    0 -0.97843706676E-02  0.12432047780E-01  0.58473759722E-01  0.60578308151E-01  0.51100000000E-03 0.  1.
</event>
<event>
 7    1  0.5716970E+005  0.1043930E+01  0.7957747E-01            NaN
         13   -1    0    0    0    0  0.00000000000E+00  0.00000000000E+00  0.74505805969E-08  0.10566000000E+00  0.10566000000E+00 0.  1.
     999900   -1    0    0    0    0 -0.00000000000E+00 -0.00000000000E+00 -0.74505805969E-08  0.93827000000E+00  0.93827000000E+00 0.  1.
     999903    2    1    2    0    0 -0.35254964572E-01  0.32193395644E-01  0.14014269215E+00  0.14987523454E+00  0.23308464407E-01 0.  0.
         14    1    1    2    0    0  0.62400195140E-02  0.34602416330E-01  0.20397568310E-01  0.40648811205E-01  0.00000000000E+00 0.  1.
     999901    1    1    2    0    0  0.29014945058E-01 -0.66795811974E-01 -0.16054026046E+00  0.85340595426E+00  0.83500000000E+00 0.  1.
        -11    1    3    3    0    0 -0.20797575344E-01  0.25964793669E-01  0.64120000390E-01  0.72238114742E-01  0.51100000000E-03 0. -1.
         11    1    3    3    0    0 -0.14457389228E-01  0.62286019746E-02  0.76022691764E-01  0.77637119794E-01  0.51100000000E-03 0.  1.
</event>
<event>
 8    1  0.5716970E+005  0.1043930E+01  0.7957747E-01            NaN
         13   -1    0    0    0    0  0.00000000000E+00  0.00000000000E+00  0.74505805969E-08  0.10566000000E+00  0.10566000000E+00 0. -1.
     999900   -1    0    0    0    0 -0.00000000000E+00 -0.00000000000E+00 -0.74505805969E-08  0.93827000000E+00  0.93827000000E+00 0. -1.
     999902    2    1    2    0    0 -0.45695362670E-02 -0.18861162734E-01  0.13526548719E-01  0.10202743106E+01  0.10200000378E+01 0.  0.
     999903    2    3    3    0    0  0.28312878764E-01 -0.12130887370E+00 -0.11244132389E+00  0.16899897814E+00  0.20003533533E-01 0.  0.
         14    1    1    2    0    0  0.45695362670E-02  0.18861162734E-01 -0.13526548719E-01  0.23655689413E-01  0.00000000000E+00 0.  1.
     999901    1    3    3    0    0 -0.32882415031E-01  0.10244771096E+00  0.12596787261E+00  0.85127533244E+00  0.83500000000E+00 0. -1.
        -11    1    4    4    0    0  0.91987743963E-02 -0.79868964227E-01 -0.75350760055E-01  0.11018923295E+00  0.51100000000E-03 0. -1.
         11    1    4    4    0    0  0.19114104367E-01 -0.41439909468E-01 -0.37090563834E-01  0.58809745188E-01  0.51100000000E-03 0.  1.
</event>
<event>
 8    1  0.5716970E+005  0.1043930E+01  0.7957747E-01            NaN
         13   -1    0    0    0    0  0.00000000000E+00  0.00000000000E+00  0.74505805969E-08  0.10566000000E+00  0.10566000000E+00 0.  1.
     999900   -1    0    0    0    0 -0.00000000000E+00 -0.00000000000E+00 -0.74505805969E-08  0.93827000000E+00  0.93827000000E+00 0. -1.
     999902    2    1    2    0    0  0.10380717808E-02  0.21003057780E-01  0.11244724778E-01  0.10200836195E+01  0.10198048543E+01 0.  0.
     999903    2    3    3    0    0  0.47933867470E-01 -0.13265056524E+00  0.86081597628E-01  0.16648288783E+00  0.20314585390E-01 0.  0.
         14    1    1    2    0    0 -0.10380717808E-02 -0.21003057780E-01 -0.11244724778E-01  0.23846380532E-01  0.00000000000E+00 0. -1.
     999901    1    3    3    0    0 -0.46895795689E-01  0.15365362302E+00 -0.74836872849E-01  0.85360073164E+00  0.83500000000E+00 0. -1.
        -11    1    4    4    0    0  0.19943310483E-01 -0.84237311860E-01  0.53196102784E-01  0.10160584046E+00  0.51100000000E-03 0.  1.
         11    1    4    4    0    0  0.27990556987E-01 -0.48413253381E-01  0.32885494844E-01  0.64877047370E-01  0.51100000000E-03 0. -1.
</event>
<event>
 7    1  0.5716970E+005  0.1043930E+01  0.7957747E-01            NaN
         13   -1    0    0    0    0  0.00000000000E+00  0.00000000000E+00  0.74505805969E-08  0.10566000000E+00  0.10566000000E+00 0. -1.
     999900   -1    0    0    0    0 -0.00000000000E+00 -0.00000000000E+00 -0.74505805969E-08  0.93827000000E+00  0.93827000000E+00 0. -1.
     999903    2    1    2    0    0 -0.98609814805E-01  0.58324909777E-01 -0.25238266204E-01  0.11886125778E+00  0.19113812869E-01 0.  0.
         14    1    1    2    0    0  0.31365726942E-01 -0.76093502406E-01  0.28714983812E-01  0.87169835553E-01  0.00000000000E+00 0. -1.
     999901    1    1    2    0    0  0.67244087863E-01  0.17768592629E-01 -0.34767176075E-02  0.83789890667E+00  0.83500000000E+00 0.  1.
        -11    1    3    3    0    0 -0.86989523877E-01  0.47316780181E-01 -0.15820485790E-01  0.10028261984E+00  0.51100000000E-03 0.  1.
         11    1    3    3    0    0 -0.11620290929E-01  0.11008129596E-01 -0.94177804141E-02  0.18578637932E-01  0.51100000000E-03 0. -1.
</event>
<event>
 8    1  0.5716970E+005  0.1043930E+01  0.7957747E-01            NaN
         13   -1    0    0    0    0  0.00000000000E+00  0.00000000000E+00  0.74505805969E-08  0.10566000000E+00  0.10566000000E+00 0. -1.
     999900   -1    0    0    0    0 -0.00000000000E+00 -0.00000000000E+00 -0.74505805969E-08  0.93827000000E+00  0.93827000000E+00 0.  1.
     999902    2    1    2    0    0  0.14823161285E-01 -0.18920144377E-01  0.16729436656E-02  0.10198365006E+01  0.10195518580E+01 0.  0.
     999903    2    3    3    0    0  0.15916938035E+00 -0.76991269547E-02 -0.56784067531E-01  0.17036374390E+00  0.20129746923E-01 0.  0.
         14    1    1    2    0    0 -0.14823161285E-01  0.18920144377E-01 -0.16729436656E-02  0.24093499419E-01  0.00000000000E+00 0. -1.
     999901    1    3    3    0    0 -0.14434621907E+00 -0.11221017423E-01  0.58457011196E-01  0.84947275668E+00  0.83500000000E+00 0. -1.
        -11    1    4    4    0    0  0.10477489164E+00 -0.13103811250E-01 -0.31932469133E-01  0.11031514626E+00  0.51100000000E-03 0.  1.
         11    1    4    4    0    0  0.54394488712E-01  0.54046842955E-02 -0.24851598398E-01  0.60048597640E-01  0.51100000000E-03 0. -1.
</event>
<event>
 8    1  0.5716970E+005  0.1043930E+01  0.7957747E-01            NaN
         13   -1    0    0    0    0  0.00000000000E+00  0.00000000000E+00  0.74505805969E-08  0.10566000000E+00  0.10566000000E+00 0. -1.
     999900   -1    0    0    0    0 -0.00000000000E+00 -0.00000000000E+00 -0.74505805969E-08  0.93827000000E+00  0.93827000000E+00 0.  1.
     999902    2    1    2    0    0 -0.11121144069E-01  0.20908084210E-02 -0.21401052550E-01  0.10197213987E+01  0.10194339972E+01 0.  0.
     999903    2    3    3    0    0 -0.13507371451E+00 -0.95539161749E-01 -0.33167857878E-01  0.16986299376E+00  0.19511280645E-01 0.  0.
         14    1    1    2    0    0  0.11121144069E-01 -0.20908084210E-02  0.21401052550E-01  0.24208601271E-01  0.00000000000E+00 0.  1.
     999901    1    3    3    0    0  0.12395257044E+00  0.97629970170E-01  0.11766805327E-01  0.84985840497E+00  0.83500000000E+00 0.  1.
        -11    1    4    4    0    0 -0.10462768271E+00 -0.76798628808E-01 -0.33740842681E-01  0.13410326976E+00  0.51100000000E-03 0. -1.
         11    1    4    4    0    0 -0.30446031802E-01 -0.18740532941E-01  0.57298480325E-03  0.35759723992E-01  0.51100000000E-03 0.  1.
</event>
<event>
 8    1  0.5716970E+005  0.1043930E+01  0.7957747E-01            NaN
         13   -1    0    0    0    0  0.00000000000E+00  0.00000000000E+00  0.74505805969E-08  0.10566000000E+00  0.10566000000E+00 0.  1.
     999900   -1    0    0    0    0 -0.00000000000E+00 -0.00000000000E+00 -0.74505805969E-08  0.93827000000E+00  0.93827000000E+00 0.  1.
     999902    2    1    2    0    0  0.12430581924E-01  0.13451741265E-01  0.15335906555E-01  0.10200415354E+01  0.10197617738E+01 0.  0.
     999903    2    3    3    0    0  0.11875325050E+00  0.72120305067E-01 -0.94455120800E-01  0.16914460869E+00  0.19607546929E-01 0.  0.
         14    1    1    2    0    0 -0.12430581924E-01 -0.13451741265E-01 -0.15335906555E-01  0.23888464578E-01  0.00000000000E+00 0. -1.
     999901    1    3    3    0    0 -0.10632266858E+00 -0.58668563801E-01  0.10979102735E+00  0.85089692673E+00  0.83500000000E+00 0. -1.
        -11    1    4    4    0    0  0.93535413526E-01  0.47067679621E-01 -0.72508766612E-01  0.12736570341E+00  0.51100000000E-03 0.  1.
         11    1    4    4    0    0  0.25217836975E-01  0.25052625445E-01 -0.21946354188E-01  0.41778905282E-01  0.51100000000E-03 0. -1.
</event>
<event>
 8    1  0.5716970E+005  0.1043930E+01  0.7957747E-01            NaN
         13   -1    0    0    0    0  0.00000000000E+00  0.00000000000E+00  0.74505805969E-08  0.10566000000E+00  0.10566000000E+00 0. -1.
     999900   -1    0    0    0    0 -0.00000000000E+00 -0.00000000000E+00 -0.74505805969E-08  0.93827000000E+00  0.93827000000E+00 0. -1.
     999902    2    1    2    0    0 -0.20827615709E-02  0.16893406106E-02  0.33789052133E-01  0.10100346934E+01  0.10094657944E+01 0.  0.
     999903    2    3    3    0    0 -0.58637355934E-01 -0.14169114483E+00 -0.32758649664E-01  0.15832465917E+00  0.21882608090E-01 0.  0.
         14    1    1    2    0    0  0.20827615709E-02 -0.16893406106E-02 -0.33789052133E-01  0.33895306630E-01  0.00000000000E+00 0.  1.
     999901    1    3    3    0    0  0.56554594363E-01  0.14338048545E+00  0.66547701797E-01  0.85171003420E+00  0.83500000000E+00 0.  1.
        -11    1    4    4    0    0 -0.51264274978E-01 -0.98382950625E-01 -0.24749108719E-01  0.11366622351E+00  0.51100000000E-03 0. -1.
         11    1    4    4    0    0 -0.73730809558E-02 -0.43308194209E-01 -0.80095409453E-02  0.44658435660E-01  0.51100000000E-03 0.  1.
</event>
<event>
 8    1  0.5716970E+005  0.1043930E+01  0.7957747E-01            NaN
         13   -1    0    0    0    0  0.00000000000E+00  0.00000000000E+00  0.74505805969E-08  0.10566000000E+00  0.10566000000E+00 0. -1.
     999900   -1    0    0    0    0 -0.00000000000E+00 -0.00000000000E+00 -0.74505805969E-08  0.93827000000E+00  0.93827000000E+00 0. -1.
     999902    2    1    2    0    0  0.44349474860E-02 -0.59285364695E-02  0.22701875150E-01  0.10200513183E+01  0.10197717885E+01 0.  0.
     999903    2    3    3    0    0  0.26621921816E-01  0.59457998251E-01 -0.14983612886E+00  0.16462041895E+00  0.20125519765E-01 0.  0.
         14    1    1    2    0    0 -0.44349474860E-02  0.59285364695E-02 -0.22701875150E-01  0.23878681689E-01  0.00000000000E+00 0.  1.
     999901    1    3    3    0    0 -0.22186974330E-01 -0.65386534720E-01  0.17253800401E+00  0.85543089936E+00  0.83500000000E+00 0.  1.
        -11    1    4    4    0    0  0.16761085632E-01  0.19635431958E-01 -0.42742889265E-01  0.49936959094E-01  0.51100000000E-03 0. -1.
         11    1    4    4    0    0  0.98608361834E-02  0.39822566292E-01 -0.10709323960E+00  0.11468345986E+00  0.51100000000E-03 0.  1.
</event>
<event>
 8    1  0.5716970E+005  0.1043930E+01  0.7957747E-01            NaN
         13   -1    0    0    0    0  0.00000000000E+00  0.00000000000E+00  0.74505805969E-08  0.10566000000E+00  0.10566000000E+00 0.  1.
     999900   -1    0    0    0    0 -0.00000000000E+00 -0.00000000000E+00 -0.74505805969E-08  0.93827000000E+00  0.93827000000E+00 0.  1.
     999902    2    1    2    0    0  0.11574861506E-01  0.18572018384E-01  0.78109914568E-02  0.10206940607E+01  0.10204295452E+01 0.  0.
     999903    2    3    3    0    0 -0.92203936204E-01  0.94519294498E-01 -0.10307670423E+00  0.16860303939E+00  0.19149805575E-01 0.  0.
         14    1    1    2    0    0 -0.11574861506E-01 -0.18572018384E-01 -0.78109914568E-02  0.23235939259E-01  0.00000000000E+00 0. -1.
     999901    1    3    3    0    0  0.10377879771E+00 -0.75947276115E-01  0.11088769569E+00  0.85209102135E+00  0.83500000000E+00 0. -1.
        -11    1    4    4    0    0 -0.27924779447E-01  0.18350043522E-01 -0.31217636238E-01  0.45730945078E-01  0.51100000000E-03 0.  1.
         11    1    4    4    0    0 -0.64279156757E-01  0.76169250976E-01 -0.71859067995E-01  0.12287209432E+00  0.51100000000E-03 0. -1.
</event>
<event>
 8    1  0.5716970E+005  0.1043930E+01  0.7957747E-01            NaN
         13   -1    0    0    0    0  0.00000000000E+00  0.00000000000E+00  0.74505805969E-08  0.10566000000E+00  0.10566000000E+00 0.  1.
     999900   -1    0    0    0    0 -0.00000000000E+00 -0.00000000000E+00 -0.74505805969E-08  0.93827000000E+00  0.93827000000E+00 0.  1.
     999902    2    1    2    0    0  0.53189636968E-02 -0.21088177424E-01 -0.61709954699E-02  0.10213228377E+01  0.10210726003E+01 0.  0.
     999903    2    3    3    0    0 -0.11235116161E+00  0.10257571834E+00  0.63863913669E-01  0.16618021451E+00  0.19816728245E-01 0.  0.
         14    1    1    2    0    0 -0.53189636968E-02  0.21088177424E-01  0.61709954699E-02  0.22607162294E-01  0.00000000000E+00 0. -1.
     999901    1    3    3    0    0  0.11767012531E+00 -0.12366389576E+00 -0.70034909139E-01  0.85514262319E+00  0.83500000000E+00 0. -1.
        -11    1    4    4    0    0 -0.87410559383E-01  0.68868744492E-01  0.42542240074E-01  0.11913695133E+00  0.51100000000E-03 0.  1.
         11    1    4    4    0    0 -0.24940602226E-01  0.33706973848E-01  0.21321673595E-01  0.47043263187E-01  0.51100000000E-03 0. -1.
</event>
<event>
 8    1  0.5716970E+005  0.1043930E+01  0.7957747E-01            NaN
         13   -1    0    0    0    0  0.00000000000E+00  0.00000000000E+00  0.74505805969E-08  0.10566000000E+00  0.10566000000E+00 0. -1.
     999900   -1    0    0    0    0 -0.00000000000E+00 -0.00000000000E+00 -0.74505805969E-08  0.93827000000E+00  0.93827000000E+00 0.  1.
     999902    2    1    2    0    0  0.87900032443E-02  0.14556517976E-01 -0.17693105023E-01  0.10193901887E+01  0.10190947721E+01 0.  0.
     999903    2    3    3    0    0 -0.39192800169E-01 -0.38347732122E-01  0.15333155557E+00  0.16406823551E+00  0.20029873311E-01 0.  0.
         14    1    1    2    0    0 -0.87900032443E-02 -0.14556517976E-01  0.17693105023E-01  0.24539811286E-01  0.00000000000E+00 0. -1.
     999901    1    3    3    0    0  0.47982803413E-01  0.52904250098E-01 -0.17102466060E+00  0.85532195320E+00  0.83500000000E+00 0.  1.
        -11    1    4    4    0    0 -0.30149204424E-01 -0.24467360851E-01  0.12829233066E+00  0.13404032789E+00  0.51100000000E-03 0. -1.
         11    1    4    4    0    0 -0.90435957451E-02 -0.13880371271E-01  0.25039224914E-01  0.30027907618E-01  0.51100000000E-03 0.  1.
</event>
<event>
 8    1  0.5716970E+005  0.1043930E+01  0.7957747E-01            NaN
         13   -1    0    0    0    0  0.00000000000E+00  0.00000000000E+00  0.74505805969E-08  0.10566000000E+00  0.10566000000E+00 0. -1.
     999900   -1    0    0    0    0 -0.00000000000E+00 -0.00000000000E+00 -0.74505805969E-08  0.93827000000E+00  0.93827000000E+00 0.  1.
     999902    2    1    2    0    0 -0.76718037679E-02  0.16040482243E-01  0.16208999779E-01  0.10198699643E+01  0.10195861213E+01 0.  0.
     999903    2    3    3    0    0  0.13087216887E+00 -0.84690335988E-01 -0.45386980545E-01  0.16525882766E+00  0.30830577724E-01 0.  0.
         14    1    1    2    0    0  0.76718037679E-02 -0.16040482243E-01 -0.16208999779E-01  0.24060035691E-01  0.00000000000E+00 0.  1.
     999901    1    3    3    0    0 -0.13854397263E+00  0.10073081823E+00  0.61595980324E-01  0.85461113665E+00  0.83500000000E+00 0. -1.
        -11    1    4    4    0    0  0.70604593071E-01 -0.63391740194E-01 -0.24334680230E-01  0.97958966259E-01  0.51100000000E-03 0.  1.
         11    1    4    4    0    0  0.60267575794E-01 -0.21298595795E-01 -0.21052300315E-01  0.67299861400E-01  0.51100000000E-03 0. -1.
</event>
<event>
 8    1  0.5716970E+005  0.1043930E+01  0.7957747E-01            NaN
         13   -1    0    0    0    0  0.00000000000E+00  0.00000000000E+00  0.74505805969E-08  0.10566000000E+00  0.10566000000E+00 0.  1.
     999900   -1    0    0    0    0 -0.00000000000E+00 -0.00000000000E+00 -0.74505805969E-08  0.93827000000E+00  0.93827000000E+00 0.  1.
     999902    2    1    2    0    0 -0.12825974882E-01 -0.40431142356E-02  0.25836622005E-02  0.10302359241E+01  0.10301449081E+01 0.  0.
     999903    2    3    3    0    0  0.21701581601E-01  0.71568486511E-01  0.15883037452E+00  0.17668610046E+00  0.19947012790E-01 0.  0.
         14    1    1    2    0    0  0.12825974882E-01  0.40431142356E-02 -0.25836622005E-02  0.13694075901E-01  0.00000000000E+00 0. -1.
     999901    1    3    3    0    0 -0.34527556483E-01 -0.75611600746E-01 -0.15624671232E+00  0.85354982364E+00  0.83500000000E+00 0.  1.
        -11    1    4    4    0    0  0.38939514071E-02  0.72063039470E-02  0.68853289660E-02  0.10712728416E-01  0.51100000000E-03 0. -1.
         11    1    4    4    0    0  0.17807630194E-01  0.64362182564E-01  0.15194504556E+00  0.16597337204E+00  0.51100000000E-03 0.  1.
</event>
<event>
 8    1  0.5716970E+005  0.1043930E+01  0.7957747E-01            NaN
         13   -1    0    0    0    0  0.00000000000E+00  0.00000000000E+00  0.74505805969E-08  0.10566000000E+00  0.10566000000E+00 0.  1.
     999900   -1    0    0    0    0 -0.00000000000E+00 -0.00000000000E+00 -0.74505805969E-08  0.93827000000E+00  0.93827000000E+00 0. -1.
     999902    2    1    2    0    0 -0.71310436489E-02 -0.21943174242E-01  0.41016826349E-02  0.10204954426E+01  0.10202263327E+01 0.  0.
     999903    2    3    3    0    0 -0.34317637404E-01 -0.84986322016E-01 -0.14171991877E+00  0.17008231431E+00  0.21049539168E-01 0.  0.
         14    1    1    2    0    0  0.71310436489E-02  0.21943174242E-01 -0.41016826349E-02  0.23434557384E-01  0.00000000000E+00 0. -1.
     999901    1    3    3    0    0  0.27186593755E-01  0.63043147774E-01  0.14582160140E+00  0.85041312831E+00  0.83500000000E+00 0.  1.
        -11    1    4    4    0    0 -0.15763610268E-02 -0.25083011574E-01 -0.47331763392E-01  0.53592903733E-01  0.51100000000E-03 0.  1.
         11    1    4    4    0    0 -0.32741276377E-01 -0.59903310442E-01 -0.94388155374E-01  0.11648941058E+00  0.51100000000E-03 0. -1.
</event>
<event>
 7    1  0.5716970E+005  0.1043930E+01  0.7957747E-01            NaN
         13   -1    0    0    0    0  0.00000000000E+00  0.00000000000E+00  0.74505805969E-08  0.10566000000E+00  0.10566000000E+00 0.  1.
     999900   -1    0    0    0    0 -0.00000000000E+00 -0.00000000000E+00 -0.74505805969E-08  0.93827000000E+00  0.93827000000E+00 0.  1.
     999903    2    1    2    0    0 -0.20955681379E-01  0.14049340287E+00 -0.13146924825E-02  0.14340482113E+00  0.19638672906E-01 0.  0.
         14    1    1    2    0    0 -0.32008223751E-02  0.43948426284E-01 -0.90909403520E-02  0.44992828686E-01  0.00000000000E+00 0. -1.
     999901    1    1    2    0    0  0.24156503754E-01 -0.18444182916E+00  0.10405632835E-01  0.85553235018E+00  0.83500000000E+00 0.  1.
        -11    1    3    3    0    0 -0.91194340466E-02  0.10885904959E+00  0.34171570742E-02  0.10929499000E+00  0.51100000000E-03 0.  1.
         11    1    3    3    0    0 -0.11836247332E-01  0.31634353282E-01 -0.47318495568E-02  0.34109831130E-01  0.51100000000E-03 0. -1.
</event>
<event>
 8    1  0.5716970E+005  0.1043930E+01  0.7957747E-01            NaN
         13   -1    0    0    0    0  0.00000000000E+00  0.00000000000E+00  0.74505805969E-08  0.10566000000E+00  0.10566000000E+00 0.  1.
     999900   -1    0    0    0    0 -0.00000000000E+00 -0.00000000000E+00 -0.74505805969E-08  0.93827000000E+00  0.93827000000E+00 0. -1.
     999902    2    1    2    0    0  0.64964925403E-03 -0.25300944204E-01  0.51508715853E-02  0.10181018893E+01  0.10177742214E+01 0.  0.
     999903    2    3    3    0    0 -0.17375906135E-01  0.51945367236E-01  0.15534291553E+00  0.16600179937E+00  0.20613895720E-01 0.  0.
         14    1    1    2    0    0 -0.64964925403E-03  0.25300944204E-01 -0.51508715853E-02  0.25828110652E-01  0.00000000000E+00 0. -1.
     999901    1    3    3    0    0  0.18025555389E-01 -0.77246311440E-01 -0.15019204395E+00  0.85210008998E+00  0.83500000000E+00 0. -1.
        -11    1    4    4    0    0 -0.26062517168E-02  0.20183882524E-01  0.85189034866E-01  0.87587752821E-01  0.51100000000E-03 0. -1.
         11    1    4    4    0    0 -0.14769654418E-01  0.31761484712E-01  0.70153880664E-01  0.78414046548E-01  0.51100000000E-03 0.  1.
</event>
<event>
 8    1  0.5716970E+005  0.1043930E+01  0.7957747E-01            NaN
         13   -1    0    0    0    0  0.00000000000E+00  0.00000000000E+00  0.74505805969E-08  0.10566000000E+00  0.10566000000E+00 0. -1.
     999900   -1    0    0    0    0 -0.00000000000E+00 -0.00000000000E+00 -0.74505805969E-08  0.93827000000E+00  0.93827000000E+00 0.  1.
     999902    2    1    2    0    0 -0.14447034730E-01 -0.12209874199E-02 -0.18628271773E-01  0.10203244894E+01  0.10200513926E+01 0.  0.
     999903    2    3    3    0    0 -0.10027521711E+00 -0.22730157341E-01  0.13076720237E+00  0.16746276026E+00  0.19285633001E-01 0.  0.
         14    1    1    2    0    0  0.14447034730E-01  0.12209874199E-02  0.18628271773E-01  0.23605510628E-01  0.00000000000E+00 0. -1.
     999901    1    3    3    0    0  0.85828182376E-01  0.21509169922E-01 -0.14939547415E+00  0.85286172911E+00  0.83500000000E+00 0.  1.
        -11    1    4    4    0    0 -0.54282640179E-01 -0.12472458992E-01  0.55290687247E-01  0.78482408700E-01  0.51100000000E-03 0. -1.
         11    1    4    4    0    0 -0.45992576927E-01 -0.10257698350E-01  0.75476515127E-01  0.88980351565E-01  0.51100000000E-03 0.  1.
</event>
<event>
 8    1  0.5716970E+005  0.1043930E+01  0.7957747E-01            NaN
         13   -1    0    0    0    0  0.00000000000E+00  0.00000000000E+00  0.74505805969E-08  0.10566000000E+00  0.10566000000E+00 0. -1.
     999900   -1    0    0    0    0 -0.00000000000E+00 -0.00000000000E+00 -0.74505805969E-08  0.93827000000E+00  0.93827000000E+00 0.  1.
     999902    2    1    2    0    0 -0.64945389966E-02  0.15059033420E-01  0.19083621098E-01  0.10187677640E+01  0.10184569794E+01 0.  0.
     999903    2    3    3    0    0  0.63352596890E-01  0.81774378445E-01  0.13387309679E+00  0.17039804311E+00  0.20319609982E-01 0.  0.
         14    1    1    2    0    0  0.64945389966E-02 -0.15059033420E-01 -0.19083621098E-01  0.25162235960E-01  0.00000000000E+00 0.  1.
     999901    1    3    3    0    0 -0.69847135887E-01 -0.66715345025E-01 -0.11478947569E+00  0.84836972093E+00  0.83500000000E+00 0.  1.
        -11    1    4    4    0    0  0.46274657092E-01  0.71310178182E-01  0.10239252093E+00  0.13308258663E+00  0.51100000000E-03 0.  1.
         11    1    4    4    0    0  0.17077939799E-01  0.10464200263E-01  0.31480575860E-01  0.37315456481E-01  0.51100000000E-03 0. -1.
</event>
<event>
 8    1  0.5716970E+005  0.1043930E+01  0.7957747E-01            NaN
         13   -1    0    0    0    0  0.00000000000E+00  0.00000000000E+00  0.74505805969E-08  0.10566000000E+00  0.10566000000E+00 0.  1.
     999900   -1    0    0    0    0 -0.00000000000E+00 -0.00000000000E+00 -0.74505805969E-08  0.93827000000E+00  0.93827000000E+00 0.  1.
     999902    2    1    2    0    0 -0.61508239440E-02 -0.48038680406E-02  0.22527537277E-01  0.10200888650E+01  0.10198102239E+01 0.  0.
     999903    2    3    3    0    0  0.49962583343E-01 -0.15763149472E+00 -0.22969481155E-01  0.16814991374E+00  0.20071087744E-01 0.  0.
         14    1    1    2    0    0  0.61508239440E-02  0.48038680406E-02 -0.22527537277E-01  0.23841135021E-01  0.00000000000E+00 0. -1.
     999901    1    3    3    0    0 -0.56113407287E-01  0.15282762668E+00  0.45497018432E-01  0.85193895124E+00  0.83500000000E+00 0. -1.
        -11    1    4    4    0    0  0.33852792333E-01 -0.83590673819E-01 -0.19647858682E-01  0.92302284750E-01  0.51100000000E-03 0. -1.
         11    1    4    4    0    0  0.16109791009E-01 -0.74040820903E-01 -0.33216224733E-02  0.75847628989E-01  0.51100000000E-03 0.  1.
</event>
<event>
 8    1  0.5716970E+005  0.1043930E+01  0.7957747E-01            NaN
         13   -1    0    0    0    0  0.00000000000E+00  0.00000000000E+00  0.74505805969E-08  0.10566000000E+00  0.10566000000E+00 0. -1.
     999900   -1    0    0    0    0 -0.00000000000E+00 -0.00000000000E+00 -0.74505805969E-08  0.93827000000E+00  0.93827000000E+00 0.  1.
     999902    2    1    2    0    0  0.52451713607E-02 -0.98112572810E-02 -0.20597293115E-01  0.10205201500E+01  0.10202516138E+01 0.  0.
     999903    2    3    3    0    0  0.10652792816E+00 -0.31239711627E-01  0.12313265372E+00  0.16693906244E+00  0.19567347661E-01 0.  0.
         14    1    1    2    0    0 -0.52451713607E-02  0.98112572810E-02  0.20597293115E-01  0.23409849972E-01  0.00000000000E+00 0. -1.
     999901    1    3    3    0    0 -0.10128275680E+00  0.21428454346E-01 -0.14372994683E+00  0.85358108759E+00  0.83500000000E+00 0.  1.
        -11    1    4    4    0    0  0.62156143476E-01 -0.21508972759E-01  0.59083848186E-01  0.88414842185E-01  0.51100000000E-03 0. -1.
         11    1    4    4    0    0  0.44371784683E-01 -0.97307388679E-02  0.64048805532E-01  0.78524220250E-01  0.51100000000E-03 0.  1.
</event>
<event>
 8    1  0.5716970E+005  0.1043930E+01  0.7957747E-01            NaN
         13   -1    0    0    0    0  0.00000000000E+00  0.00000000000E+00  0.74505805969E-08  0.10566000000E+00  0.10566000000E+00 0.  1.
     999900   -1    0    0    0    0 -0.00000000000E+00 -0.00000000000E+00 -0.74505805969E-08  0.93827000000E+00  0.93827000000E+00 0. -1.
     999902    2    1    2    0    0  0.26241672676E-01  0.10042661278E-01  0.39224605707E-02  0.10155598374E+01  0.10151634928E+01 0.  0.
     999903    2    3    3    0    0  0.80687294817E-01  0.94567180013E-01  0.11081354114E+00  0.16776303204E+00  0.20283070205E-01 0.  0.
         14    1    1    2    0    0 -0.26241672676E-01 -0.10042661278E-01 -0.39224605707E-02  0.28370162624E-01  0.00000000000E+00 0. -1.
     999901    1    3    3    0    0 -0.54445622141E-01 -0.84524518736E-01 -0.10689108057E+00  0.84779680534E+00  0.83500000000E+00 0. -1.
        -11    1    4    4    0    0  0.37991660070E-01  0.58244213909E-01  0.67584703609E-01  0.96972717667E-01  0.51100000000E-03 0.  1.
         11    1    4    4    0    0  0.42695634747E-01  0.36322966104E-01  0.43228837534E-01  0.70790314370E-01  0.51100000000E-03 0. -1.
</event>
<event>
 8    1  0.5716970E+005  0.1043930E+01  0.7957747E-01            NaN
         13   -1    0    0    0    0  0.00000000000E+00  0.00000000000E+00  0.74505805969E-08  0.10566000000E+00  0.10566000000E+00 0.  1.
     999900   -1    0    0    0    0 -0.00000000000E+00 -0.00000000000E+00 -0.74505805969E-08  0.93827000000E+00  0.93827000000E+00 0. -1.
     999902    2    1    2    0    0 -0.18028263663E-01  0.75357975057E-02  0.13850803091E-01  0.10199789816E+01  0.10196977355E+01 0.  0.
     999903    2    3    3    0    0  0.80625730445E-01 -0.14067988732E+00  0.23602971355E-01  0.16615194729E+00  0.27532348717E-01 0.  0.
         14    1    1    2    0    0  0.18028263663E-01 -0.75357975057E-02 -0.13850803091E-01  0.23951018371E-01  0.00000000000E+00 0.  1.
     999901    1    3    3    0    0 -0.98653994108E-01  0.14821568482E+00 -0.97521682640E-02  0.85382703434E+00  0.83500000000E+00 0. -1.
        -11    1    4    4    0    0  0.23961817712E-01 -0.68313902393E-01  0.14019892709E-01  0.73741280710E-01  0.51100000000E-03 0.  1.
         11    1    4    4    0    0  0.56663912733E-01 -0.72365984925E-01  0.95830786462E-02  0.92410666580E-01  0.51100000000E-03 0. -1.
</event>
<event>
 8    1  0.5716970E+005  0.1043930E+01  0.7957747E-01            NaN
         13   -1    0    0    0    0  0.00000000000E+00  0.00000000000E+00  0.74505805969E-08  0.10566000000E+00  0.10566000000E+00 0.  1.
     999900   -1    0    0    0    0 -0.00000000000E+00 -0.00000000000E+00 -0.74505805969E-08  0.93827000000E+00  0.93827000000E+00 0. -1.
     999902    2    1    2    0    0 -0.12728079315E-01  0.12755186260E-01  0.13387683995E-01  0.10214816401E+01  0.10212349447E+01 0.  0.
     999903    2    3    3    0    0  0.48413680879E-01  0.97983000798E-01 -0.12645499607E+00  0.16837961198E+00  0.20402812507E-01 0.  0.
         14    1    1    2    0    0  0.12728079315E-01 -0.12755186260E-01 -0.13387683995E-01  0.22448359902E-01  0.00000000000E+00 0. -1.
     999901    1    3    3    0    0 -0.61141760194E-01 -0.85227814538E-01  0.13984268006E+00  0.85310202812E+00  0.83500000000E+00 0.  1.
        -11    1    4    4    0    0  0.22950632147E-02  0.95473401609E-02 -0.44468643692E-02  0.10791419880E-01  0.51100000000E-03 0. -1.
         11    1    4    4    0    0  0.46118617664E-01  0.88435660637E-01 -0.12200813170E+00  0.15758819210E+00  0.51100000000E-03 0.  1.
</event>
<event>
 8    1  0.5716970E+005  0.1043930E+01  0.7957747E-01            NaN
         13   -1    0    0    0    0  0.00000000000E+00  0.00000000000E+00  0.74505805969E-08  0.10566000000E+00  0.10566000000E+00 0.  1.
     999900   -1    0    0    0    0 -0.00000000000E+00 -0.00000000000E+00 -0.74505805969E-08  0.93827000000E+00  0.93827000000E+00 0. -1.
     999902    2    1    2    0    0 -0.56932067854E-02  0.22464690558E-01  0.60430699374E-02  0.10199801854E+01  0.10196989678E+01 0.  0.
     999903    2    3    3    0    0 -0.13916933240E+00 -0.55281390367E-01  0.73750127470E-01  0.16811776995E+00  0.20009199595E-01 0.  0.
         14    1    1    2    0    0  0.56932067854E-02 -0.22464690558E-01 -0.60430699374E-02  0.23949814605E-01  0.00000000000E+00 0. -1.
     999901    1    3    3    0    0  0.13347612562E+00  0.77746080925E-01 -0.67707057533E-01  0.85186241545E+00  0.83500000000E+00 0. -1.
        -11    1    4    4    0    0 -0.62562901993E-01 -0.33131116251E-01  0.41759493458E-01  0.82194306279E-01  0.51100000000E-03 0.  1.
         11    1    4    4    0    0 -0.76606430410E-01 -0.22150274116E-01  0.31990634012E-01  0.85923463670E-01  0.51100000000E-03 0. -1.
</event>
<event>
 8    1  0.5716970E+005  0.1043930E+01  0.7957747E-01            NaN
         13   -1    0    0    0    0  0.00000000000E+00  0.00000000000E+00  0.74505805969E-08  0.10566000000E+00  0.10566000000E+00 0. -1.
     999900   -1    0    0    0    0 -0.00000000000E+00 -0.00000000000E+00 -0.74505805969E-08  0.93827000000E+00  0.93827000000E+00 0. -1.
     999902    2    1    2    0    0 -0.44544205877E-02 -0.15658895038E-01  0.19728688338E-01  0.10183514152E+01  0.10180301277E+01 0.  0.
     999903    2    3    3    0    0  0.10847619758E+00 -0.32633585802E-01  0.12394085804E+00  0.16915965773E+00  0.20533318023E-01 0.  0.
         14    1    1    2    0    0  0.44544205877E-02  0.15658895038E-01 -0.19728688338E-01  0.25578584795E-01  0.00000000000E+00 0.  1.
     999901    1    3    3    0    0 -0.11293061817E+00  0.16974690763E-01 -0.10421216970E+00  0.84919175747E+00  0.83500000000E+00 0. -1.
        -11    1    4    4    0    0  0.95344221638E-01 -0.21129918073E-01  0.10504838320E+00  0.14343088221E+00  0.51100000000E-03 0.  1.
         11    1    4    4    0    0  0.13131975941E-01 -0.11503667729E-01  0.18892474841E-01  0.25728775524E-01  0.51100000000E-03 0. -1.
</event>
<event>
 8    1  0.5871992E+005  0.1043930E+01  0.7957747E-01            NaN
         13   -1    0    0    0    0  0.00000000000E+00  0.00000000000E+00  0.74505805969E-08  0.10566000000E+00  0.10566000000E+00 0. -1.
     999900   -1    0    0    0    0 -0.00000000000E+00 -0.00000000000E+00 -0.74505805969E-08  0.93827000000E+00  0.93827000000E+00 0. -1.
     999902    2    1    2    0    0 -0.16257381949E-02  0.23554351084E-01 -0.28509385247E-02  0.10201481092E+01  0.10198708675E+01 0.  0.
     999903    2    3    3    0    0  0.22932801808E-01  0.27768062105E-01  0.16326508708E+00  0.16842021180E+00  0.20319951046E-01 0.  0.
         14    1    1    2    0    0  0.16257381949E-02 -0.23554351084E-01  0.28509385247E-02  0.23781890803E-01  0.00000000000E+00 0. -1.
     999901    1    3    3    0    0 -0.24558540003E-01 -0.42137110210E-02 -0.16611602560E+00  0.85172789740E+00  0.83500000000E+00 0. -1.
        -11    1    4    4    0    0  0.77687233641E-02  0.11276641813E-01  0.10672530790E+00  0.10760143206E+00  0.51100000000E-03 0.  1.
         11    1    4    4    0    0  0.15164078444E-01  0.16491420292E-01  0.56539779177E-01  0.60818779737E-01  0.51100000000E-03 0. -1.
</event>
<event>
 8    1  0.5716970E+005  0.1043930E+01  0.7957747E-01            NaN
         13   -1    0    0    0    0  0.00000000000E+00  0.00000000000E+00  0.74505805969E-08  0.10566000000E+00  0.10566000000E+00 0. -1.
     999900   -1    0    0    0    0 -0.00000000000E+00 -0.00000000000E+00 -0.74505805969E-08  0.93827000000E+00  0.93827000000E+00 0. -1.
     999902    2    1    2    0    0 -0.15638727699E-01  0.81158573449E-02 -0.15604641851E-01  0.10203940320E+01  0.10201225606E+01 0.  0.
     999903    2    3    3    0    0 -0.12322957766E+00  0.21699278687E-01  0.11130465153E+00  0.16887112030E+00  0.21733437622E-01 0.  0.
         14    1    1    2    0    0  0.15638727699E-01 -0.81158573449E-02  0.15604641851E-01  0.23535968045E-01  0.00000000000E+00 0. -1.
     999901    1    3    3    0    0  0.10759084997E+00 -0.13583421342E-01 -0.12690929338E+00  0.85152291166E+00  0.83500000000E+00 0. -1.
        -11    1    4    4    0    0 -0.71002152490E-01  0.23240570524E-01  0.67457425094E-01  0.10065880537E+00  0.51100000000E-03 0. -1.
         11    1    4    4    0    0 -0.52227425175E-01 -0.15412918377E-02  0.43847226438E-01  0.68212314931E-01  0.51100000000E-03 0.  1.
</event>
<event>
 8    1  0.5716970E+005  0.1043930E+01  0.7957747E-01            NaN
         13   -1    0    0    0    0  0.00000000000E+00  0.00000000000E+00  0.74505805969E-08  0.10566000000E+00  0.10566000000E+00 0. -1.
     999900   -1    0    0    0    0 -0.00000000000E+00 -0.00000000000E+00 -0.74505805969E-08  0.93827000000E+00  0.93827000000E+00 0. -1.
     999902    2    1    2    0    0 -0.83908009319E-02 -0.20108243932E-01  0.11533093975E-01  0.10192772259E+01  0.10189790498E+01 0.  0.
     999903    2    3    3    0    0  0.13116225222E+00  0.44034841814E-01  0.90528430327E-01  0.16660222729E+00  0.20452426238E-01 0.  0.
         14    1    1    2    0    0  0.83908009319E-02  0.20108243932E-01 -0.11533093975E-01  0.24652774102E-01  0.00000000000E+00 0.  1.
     999901    1    3    3    0    0 -0.13955305315E+00 -0.64143085746E-01 -0.78995336352E-01  0.85267499861E+00  0.83500000000E+00 0.  1.
        -11    1    4    4    0    0  0.34714967039E-01  0.11145856262E-01  0.35045304441E-01  0.50574633293E-01  0.51100000000E-03 0.  1.
         11    1    4    4    0    0  0.96447285177E-01  0.32888985552E-01  0.55483125886E-01  0.11602759399E+00  0.51100000000E-03 0. -1.
</event>
<event>
 8    1  0.5716970E+005  0.1043930E+01  0.7957747E-01            NaN
         13   -1    0    0    0    0  0.00000000000E+00  0.00000000000E+00  0.74505805969E-08  0.10566000000E+00  0.10566000000E+00 0.  1.
     999900   -1    0    0    0    0 -0.00000000000E+00 -0.00000000000E+00 -0.74505805969E-08  0.93827000000E+00  0.93827000000E+00 0.  1.
     999902    2    1    2    0    0  0.15919712308E-01  0.14073267276E-01  0.10304512574E-01  0.10203148127E+01  0.10200414893E+01 0.  0.
     999903    2    3    3    0    0 -0.10730917340E+00 -0.11920391769E+00  0.35416664361E-01  0.16544418712E+00  0.19814294069E-01 0.  0.
         14    1    1    2    0    0 -0.15919712308E-01 -0.14073267276E-01 -0.10304512574E-01  0.23615187299E-01  0.00000000000E+00 0. -1.
     999901    1    3    3    0    0  0.12322888571E+00  0.13327718497E+00 -0.25112151788E-01  0.85487062558E+00  0.83500000000E+00 0. -1.
        -11    1    4    4    0    0 -0.25209180696E-01 -0.39737508426E-01  0.58852391873E-02  0.47428572913E-01  0.51100000000E-03 0. -1.
         11    1    4    4    0    0 -0.82099992703E-01 -0.79466409269E-01  0.29531425174E-01  0.11801561421E+00  0.51100000000E-03 0.  1.
</event>
<event>
 8    1  0.5716970E+005  0.1043930E+01  0.7957747E-01            NaN
         13   -1    0    0    0    0  0.00000000000E+00  0.00000000000E+00  0.74505805969E-08  0.10566000000E+00  0.10566000000E+00 0.  1.
     999900   -1    0    0    0    0 -0.00000000000E+00 -0.00000000000E+00 -0.74505805969E-08  0.93827000000E+00  0.93827000000E+00 0.  1.
     999902    2    1    2    0    0  0.12329824888E-01 -0.76813642493E-02  0.18771406780E-01  0.10201940852E+01  0.10199179270E+01 0.  0.
     999903    2    3    3    0    0 -0.77008261844E-01  0.13241441788E+00  0.64871836586E-01  0.16757554709E+00  0.20232606040E-01 0.  0.
         14    1    1    2    0    0 -0.12329824888E-01  0.76813642493E-02 -0.18771406780E-01  0.23735914791E-01  0.00000000000E+00 0. -1.
     999901    1    3    3    0    0  0.89338086732E-01 -0.14009578213E+00 -0.46100429806E-01  0.85261853812E+00  0.83500000000E+00 0.  1.
        -11    1    4    4    0    0 -0.74807910951E-01  0.11739315802E+00  0.56515469516E-01  0.15023859859E+00  0.51100000000E-03 0. -1.
         11    1    4    4    0    0 -0.22003508932E-02  0.15021259856E-01  0.83563670700E-02  0.17336948501E-01  0.51100000000E-03 0.  1.
</event>
<event>
 8    1  0.5716970E+005  0.1043930E+01  0.7957747E-01            NaN
         13   -1    0    0    0    0  0.00000000000E+00  0.00000000000E+00  0.74505805969E-08  0.10566000000E+00  0.10566000000E+00 0.  1.
     999900   -1    0    0    0    0 -0.00000000000E+00 -0.00000000000E+00 -0.74505805969E-08  0.93827000000E+00  0.93827000000E+00 0.  1.
     999902    2    1    2    0    0  0.11448612689E-01 -0.17503568280E-01 -0.12536567293E-01  0.10195453500E+01  0.10192537023E+01 0.  0.
     999903    2    3    3    0    0 -0.14903535869E+00 -0.85060311120E-02  0.68426344426E-01  0.16536969255E+00  0.19521267787E-01 0.  0.
         14    1    1    2    0    0 -0.11448612689E-01  0.17503568280E-01  0.12536567293E-01  0.24384649977E-01  0.00000000000E+00 0. -1.
     999901    1    3    3    0    0  0.16048397138E+00 -0.89975371675E-02 -0.80962911719E-01  0.85417565747E+00  0.83500000000E+00 0.  1.
        -11    1    4    4    0    0 -0.41355762832E-01 -0.10146811908E-01  0.23907943024E-01  0.48837565172E-01  0.51100000000E-03 0. -1.
         11    1    4    4    0    0 -0.10767959586E+00  0.16407807962E-02  0.44518401403E-01  0.11653212738E+00  0.51100000000E-03 0.  1.
</event>
<event>
 8    1  0.5716970E+005  0.1043930E+01  0.7957747E-01            NaN
         13   -1    0    0    0    0  0.00000000000E+00  0.00000000000E+00  0.74505805969E-08  0.10566000000E+00  0.10566000000E+00 0. -1.
     999900   -1    0    0    0    0 -0.00000000000E+00 -0.00000000000E+00 -0.74505805969E-08  0.93827000000E+00  0.93827000000E+00 0.  1.
     999902    2    1    2    0    0  0.16996674326E-01  0.67278684583E-02  0.15113677234E-01  0.10202113493E+01  0.10199355974E+01 0.  0.
     999903    2    3    3    0    0  0.12886727419E+00 -0.93251334983E-01  0.58490881781E-01  0.17073065256E+00  0.20620054261E-01 0.  0.
         14    1    1    2    0    0 -0.16996674326E-01 -0.67278684583E-02 -0.15113677234E-01  0.23718650713E-01  0.00000000000E+00 0.  1.
     999901    1    3    3    0    0 -0.11187059987E+00  0.99979203441E-01 -0.43377204548E-01  0.84948069673E+00  0.83500000000E+00 0.  1.
        -11    1    4    4    0    0  0.19264760594E-01 -0.21838987586E-01  0.57767233104E-02  0.29693501523E-01  0.51100000000E-03 0.  1.
         11    1    4    4    0    0  0.10960251360E+00 -0.71412347397E-01  0.52714158471E-01  0.14103715104E+00  0.51100000000E-03 0. -1.
</event>
<event>
 8    1  0.5716970E+005  0.1043930E+01  0.7957747E-01            NaN
         13   -1    0    0    0    0  0.00000000000E+00  0.00000000000E+00  0.74505805969E-08  0.10566000000E+00  0.10566000000E+00 0. -1.
     999900   -1    0    0    0    0 -0.00000000000E+00 -0.00000000000E+00 -0.74505805969E-08  0.93827000000E+00  0.93827000000E+00 0. -1.
     999902    2    1    2    0    0  0.63562597410E-02  0.12246599185E-01  0.17334939761E-01  0.10217741573E+01  0.10215339187E+01 0.  0.
     999903    2    3    3    0    0 -0.93345187746E-01  0.86639813804E-01  0.11370986187E+00  0.17207547269E+00  0.21453535883E-01 0.  0.
         14    1    1    2    0    0 -0.63562597410E-02 -0.12246599185E-01 -0.17334939761E-01  0.22155842706E-01  0.00000000000E+00 0.  1.
     999901    1    3    3    0    0  0.99701447487E-01 -0.74393214620E-01 -0.96374922112E-01  0.84969868461E+00  0.83500000000E+00 0. -1.
        -11    1    4    4    0    0 -0.54344229452E-01  0.61412756525E-01  0.63865190556E-01  0.10394154908E+00  0.51100000000E-03 0. -1.
         11    1    4    4    0    0 -0.39000958294E-01  0.25227057279E-01  0.49844671316E-01  0.68133923610E-01  0.51100000000E-03 0.  1.
</event>
<event>
 8    1  0.5716970E+005  0.1043930E+01  0.7957747E-01            NaN
         13   -1    0    0    0    0  0.00000000000E+00  0.00000000000E+00  0.74505805969E-08  0.10566000000E+00  0.10566000000E+00 0.  1.
     999900   -1    0    0    0    0 -0.00000000000E+00 -0.00000000000E+00 -0.74505805969E-08  0.93827000000E+00  0.93827000000E+00 0. -1.
     999902    2    1    2    0    0 -0.19919707532E-01 -0.16469454990E-02 -0.11540851000E-01  0.10208497396E+01  0.10205887969E+01 0.  0.
     999903    2    3    3    0    0  0.81995271739E-01 -0.13649937898E+00  0.46329370329E-01  0.16694939161E+00  0.19245356665E-01 0.  0.
         14    1    1    2    0    0  0.19919707532E-01  0.16469454990E-02  0.11540851000E-01  0.23080260385E-01  0.00000000000E+00 0.  1.
     999901    1    3    3    0    0 -0.10191497927E+00  0.13485243348E+00 -0.57870221329E-01  0.85390034801E+00  0.83500000000E+00 0. -1.
        -11    1    4    4    0    0  0.61834786952E-01 -0.85982404927E-01  0.33238959824E-01  0.11100272251E+00  0.51100000000E-03 0. -1.
         11    1    4    4    0    0  0.20160484787E-01 -0.50516974051E-01  0.13090410506E-01  0.55946669091E-01  0.51100000000E-03 0.  1.
</event>
<event>
 8    1  0.5716970E+005  0.1043930E+01  0.7957747E-01            NaN
         13   -1    0    0    0    0  0.00000000000E+00  0.00000000000E+00  0.74505805969E-08  0.10566000000E+00  0.10566000000E+00 0.  1.
     999900   -1    0    0    0    0 -0.00000000000E+00 -0.00000000000E+00 -0.74505805969E-08  0.93827000000E+00  0.93827000000E+00 0.  1.
     999902    2    1    2    0    0 -0.23096685569E-01 -0.22878843675E-02 -0.34617218889E-03  0.10207176943E+01  0.10204537228E+01 0.  0.
     999903    2    3    3    0    0 -0.81398103773E-01 -0.10637898964E+00 -0.10407379315E+00  0.17088333817E+00  0.20678977460E-01 0.  0.
         14    1    1    2    0    0  0.23096685569E-01  0.22878843675E-02  0.34617218889E-03  0.23212305666E-01  0.00000000000E+00 0. -1.
     999901    1    3    3    0    0  0.58301418203E-01  0.10409110527E+00  0.10372762096E+00  0.84983435616E+00  0.83500000000E+00 0. -1.
        -11    1    4    4    0    0 -0.13004322620E-01 -0.82233655394E-02 -0.16876643661E-01  0.22843344104E-01  0.51100000000E-03 0. -1.
         11    1    4    4    0    0 -0.68393781152E-01 -0.98155624102E-01 -0.87197149491E-01  0.14803999407E+00  0.51100000000E-03 0.  1.
</event>
<event>
 8    1  0.5716970E+005  0.1043930E+01  0.7957747E-01            NaN
         13   -1    0    0    0    0  0.00000000000E+00  0.00000000000E+00  0.74505805969E-08  0.10566000000E+00  0.10566000000E+00 0. -1.
     999900   -1    0    0    0    0 -0.00000000000E+00 -0.00000000000E+00 -0.74505805969E-08  0.93827000000E+00  0.93827000000E+00 0. -1.
     999902    2    1    2    0    0 -0.58903895437E-03 -0.17641459580E-01 -0.15990891776E-01  0.10201124291E+01  0.10198343451E+01 0.  0.
     999903    2    3    3    0    0  0.64167478283E-02 -0.87186709167E-02 -0.16955816277E+00  0.17103257190E+00  0.19620912712E-01 0.  0.
         14    1    1    2    0    0  0.58903895437E-03  0.17641459580E-01  0.15990891776E-01  0.23817570884E-01  0.00000000000E+00 0. -1.
     999901    1    3    3    0    0 -0.70057867826E-02 -0.89227886635E-02  0.15356727099E+00  0.84907985721E+00  0.83500000000E+00 0.  1.
        -11    1    4    4    0    0  0.11759429986E-01 -0.13418340790E-02 -0.64488695275E-01  0.65567809568E-01  0.51100000000E-03 0.  1.
         11    1    4    4    0    0 -0.53426821573E-02 -0.73768368376E-02 -0.10506946749E+00  0.10546476233E+00  0.51100000000E-03 0. -1.
</event>
<event>
 8    1  0.5716970E+005  0.1043930E+01  0.7957747E-01            NaN
         13   -1    0    0    0    0  0.00000000000E+00  0.00000000000E+00  0.74505805969E-08  0.10566000000E+00  0.10566000000E+00 0.  1.
     999900   -1    0    0    0    0 -0.00000000000E+00 -0.00000000000E+00 -0.74505805969E-08  0.93827000000E+00  0.93827000000E+00 0.  1.
     999902    2    1    2    0    0 -0.10430315822E-01  0.14315330439E-02 -0.22536071900E-01  0.10190560113E+01  0.10187523933E+01 0.  0.
     999903    2    3    3    0    0 -0.85303310964E-01  0.13538877957E+00 -0.51562879299E-01  0.16957495514E+00  0.22139521132E-01 0.  0.
         14    1    1    2    0    0  0.10430315822E-01 -0.14315330439E-02  0.22536071900E-01  0.24873988657E-01  0.00000000000E+00 0.  1.
     999901    1    3    3    0    0  0.74872995142E-01 -0.13395724652E+00  0.29026807399E-01  0.84948105620E+00  0.83500000000E+00 0. -1.
        -11    1    4    4    0    0 -0.27966475693E-01  0.61727988376E-01 -0.27804979711E-01  0.73251937376E-01  0.51100000000E-03 0. -1.
         11    1    4    4    0    0 -0.57336835272E-01  0.73660791190E-01 -0.23757899588E-01  0.96323017766E-01  0.51100000000E-03 0.  1.
</event>
<event>
 8    1  0.5716970E+005  0.1043930E+01  0.7957747E-01            NaN
         13   -1    0    0    0    0  0.00000000000E+00  0.00000000000E+00  0.74505805969E-08  0.10566000000E+00  0.10566000000E+00 0.  1.
     999900   -1    0    0    0    0 -0.00000000000E+00 -0.00000000000E+00 -0.74505805969E-08  0.93827000000E+00  0.93827000000E+00 0. -1.
     999902    2    1    2    0    0 -0.58425681857E-02  0.17945953769E-01 -0.13437215784E-01  0.10207620992E+01  0.10204991482E+01 0.  0.
     999903    2    3    3    0    0 -0.53285398495E-01  0.16220406754E+00 -0.65868627585E-02  0.17203767226E+00  0.20101758532E-01 0.  0.
         14    1    1    2    0    0  0.58425681857E-02 -0.17945953769E-01  0.13437215784E-01  0.23167900805E-01  0.00000000000E+00 0.  1.
     999901    1    3    3    0    0  0.47442830310E-01 -0.14425811377E+00 -0.68503530255E-02  0.84872442693E+00  0.83500000000E+00 0.  1.
        -11    1    4    4    0    0 -0.21532636002E-01  0.63908266607E-01  0.71992029578E-02  0.67823377962E-01  0.51100000000E-03 0.  1.
         11    1    4    4    0    0 -0.31752762493E-01  0.98295800935E-01 -0.13786065716E-01  0.10421429430E+00  0.51100000000E-03 0. -1.
</event>
<event>
 8    1  0.5716970E+005  0.1043930E+01  0.7957747E-01            NaN
         13   -1    0    0    0    0  0.00000000000E+00  0.00000000000E+00  0.74505805969E-08  0.10566000000E+00  0.10566000000E+00 0. -1.
     999900   -1    0    0    0    0 -0.00000000000E+00 -0.00000000000E+00 -0.74505805969E-08  0.93827000000E+00  0.93827000000E+00 0. -1.
     999902    2    1    2    0    0  0.65987846271E-02  0.19729974712E-01  0.11826388363E-01  0.10199992808E+01  0.10197185168E+01 0.  0.
     999903    2    3    3    0    0 -0.12405653172E+00 -0.10266520899E+00 -0.26883402673E-01  0.16514558534E+00  0.24903389718E-01 0.  0.
         14    1    1    2    0    0 -0.65987846271E-02 -0.19729974712E-01 -0.11826388363E-01  0.23930719220E-01  0.00000000000E+00 0.  1.
     999901    1    3    3    0    0  0.13065531635E+00  0.12239518370E+00  0.38709791036E-01  0.85485369544E+00  0.83500000000E+00 0.  1.
        -11    1    4    4    0    0 -0.48221912220E-01 -0.52123740536E-01 -0.19885318663E-01  0.73742282071E-01  0.51100000000E-03 0. -1.
         11    1    4    4    0    0 -0.75834619500E-01 -0.50541468452E-01 -0.69980840102E-02  0.91403303270E-01  0.51100000000E-03 0.  1.
</event>
<event>
 8    1  0.5716970E+005  0.1043930E+01  0.7957747E-01            NaN
         13   -1    0    0    0    0  0.00000000000E+00  0.00000000000E+00  0.74505805969E-08  0.10566000000E+00  0.10566000000E+00 0. -1.
     999900   -1    0    0    0    0 -0.00000000000E+00 -0.00000000000E+00 -0.74505805969E-08  0.93827000000E+00  0.93827000000E+00 0. -1.
     999902    2    1    2    0    0  0.20720131952E-01  0.23707744632E-02 -0.14337459790E-01  0.10186217564E+01  0.10183073090E+01 0.  0.
     999903    2    3    3    0    0  0.29514206292E-02 -0.57900438958E-01 -0.15758615964E+00  0.16909627930E+00  0.19974539985E-01 0.  0.
         14    1    1    2    0    0 -0.20720131952E-01 -0.23707744632E-02  0.14337459790E-01  0.25308243576E-01  0.00000000000E+00 0.  1.
     999901    1    3    3    0    0  0.17768711323E-01  0.60271213422E-01  0.14324869985E+00  0.84952547712E+00  0.83500000000E+00 0. -1.
        -11    1    4    4    0    0 -0.58070578865E-02 -0.30557841488E-01 -0.10033784164E+00  0.10504973672E+00  0.51100000000E-03 0. -1.
         11    1    4    4    0    0  0.87584785158E-02 -0.27342597471E-01 -0.57248317999E-01  0.64046542585E-01  0.51100000000E-03 0.  1.
</event>
<event>
 8    1  0.5716970E+005  0.1043930E+01  0.7957747E-01            NaN
         13   -1    0    0    0    0  0.00000000000E+00  0.00000000000E+00  0.74505805969E-08  0.10566000000E+00  0.10566000000E+00 0.  1.
     999900   -1    0    0    0    0 -0.00000000000E+00 -0.00000000000E+00 -0.74505805969E-08  0.93827000000E+00  0.93827000000E+00 0. -1.
     999902    2    1    2    0    0 -0.28604056775E-02 -0.23375918795E-01  0.60154850237E-02  0.10196235901E+01  0.10193338334E+01 0.  0.
     999903    2    3    3    0    0  0.83225904806E-01 -0.70981478088E-01  0.12854348124E+00  0.16996762919E+00  0.20016166940E-01 0.  0.
         14    1    1    2    0    0  0.28604056775E-02  0.23375918795E-01 -0.60154850237E-02  0.24306409859E-01  0.00000000000E+00 0.  1.
     999901    1    3    3    0    0 -0.86086310484E-01  0.47605559293E-01 -0.12252799622E+00  0.84965596095E+00  0.83500000000E+00 0. -1.
        -11    1    4    4    0    0  0.33207768961E-01 -0.22789990075E-01  0.60886760899E-01  0.73004098110E-01  0.51100000000E-03 0.  1.
         11    1    4    4    0    0  0.50018135845E-01 -0.48191488013E-01  0.67656720344E-01  0.96963531077E-01  0.51100000000E-03 0. -1.
</event>
<event>
 8    1  0.5716970E+005  0.1043930E+01  0.7957747E-01            NaN
         13   -1    0    0    0    0  0.00000000000E+00  0.00000000000E+00  0.74505805969E-08  0.10566000000E+00  0.10566000000E+00 0. -1.
     999900   -1    0    0    0    0 -0.00000000000E+00 -0.00000000000E+00 -0.74505805969E-08  0.93827000000E+00  0.93827000000E+00 0.  1.
     999902    2    1    2    0    0 -0.17998944476E-01 -0.11122907383E-01 -0.10328876734E-01  0.10203850055E+01  0.10201133235E+01 0.  0.
     999903    2    3    3    0    0 -0.15755273491E+00  0.61336686687E-01  0.92577832046E-02  0.17048248731E+00  0.19837301141E-01 0.  0.
         14    1    1    2    0    0  0.17998944476E-01  0.11122907383E-01  0.10328876734E-01  0.23544994489E-01  0.00000000000E+00 0. -1.
     999901    1    3    3    0    0  0.13955379044E+00 -0.72459594069E-01 -0.19586659938E-01  0.84990251820E+00  0.83500000000E+00 0.  1.
        -11    1    4    4    0    0 -0.40218231032E-01  0.23278076729E-01 -0.27027498967E-02  0.46550412904E-01  0.51100000000E-03 0. -1.
         11    1    4    4    0    0 -0.11733450388E+00  0.38058609957E-01  0.11960533101E-01  0.12393207441E+00  0.51100000000E-03 0.  1.
</event>
<event>
 8    1  0.5716970E+005  0.1043930E+01  0.7957747E-01            NaN
         13   -1    0    0    0    0  0.00000000000E+00  0.00000000000E+00  0.74505805969E-08  0.10566000000E+00  0.10566000000E+00 0.  1.
     999900   -1    0    0    0    0 -0.00000000000E+00 -0.00000000000E+00 -0.74505805969E-08  0.93827000000E+00  0.93827000000E+00 0. -1.
     999902    2    1    2    0    0 -0.13690120168E-01  0.17333482904E-01  0.85326272835E-02  0.10202514285E+01  0.10199766187E+01 0.  0.
     999903    2    3    3    0    0 -0.10030210446E+00 -0.11534411011E+00 -0.64656899565E-01  0.16720589258E+00  0.20310587327E-01 0.  0.
         14    1    1    2    0    0  0.13690120168E-01 -0.17333482904E-01 -0.85326272835E-02  0.23678571497E-01  0.00000000000E+00 0. -1.
     999901    1    3    3    0    0  0.86611984293E-01  0.13267759301E+00  0.73189526848E-01  0.85304553592E+00  0.83500000000E+00 0.  1.
        -11    1    4    4    0    0 -0.27387834743E-01 -0.19613467816E-01 -0.17438778327E-01  0.37936179595E-01  0.51100000000E-03 0. -1.
         11    1    4    4    0    0 -0.72914269717E-01 -0.95730642293E-01 -0.47218121237E-01  0.12926971299E+00  0.51100000000E-03 0.  1.
</event>
<event>
 8    1  0.5716970E+005  0.1043930E+01  0.7957747E-01            NaN
         13   -1    0    0    0    0  0.00000000000E+00  0.00000000000E+00  0.74505805969E-08  0.10566000000E+00  0.10566000000E+00 0.  1.
     999900   -1    0    0    0    0 -0.00000000000E+00 -0.00000000000E+00 -0.74505805969E-08  0.93827000000E+00  0.93827000000E+00 0.  1.
     999902    2    1    2    0    0 -0.18302861188E-01  0.12609178456E-01  0.11287580227E-01  0.10190021927E+01  0.10186972431E+01 0.  0.
     999903    2    3    3    0    0 -0.10235648997E+00  0.11956885894E+00  0.64526369114E-01  0.17132020375E+00  0.20332162602E-01 0.  0.
         14    1    1    2    0    0  0.18302861188E-01 -0.12609178456E-01 -0.11287580227E-01  0.24927807291E-01  0.00000000000E+00 0. -1.
     999901    1    3    3    0    0  0.84053628783E-01 -0.10695968048E+00 -0.53238788887E-01  0.84768198896E+00  0.83500000000E+00 0.  1.
        -11    1    4    4    0    0 -0.33504021835E-01  0.40349324032E-01  0.31981386719E-01  0.61430103748E-01  0.51100000000E-03 0. -1.
         11    1    4    4    0    0 -0.68852468135E-01  0.79219534905E-01  0.32544982394E-01  0.10989010000E+00  0.51100000000E-03 0.  1.
</event>
<event>
 8    1  0.5716970E+005  0.1043930E+01  0.7957747E-01            NaN
         13   -1    0    0    0    0  0.00000000000E+00  0.00000000000E+00  0.74505805969E-08  0.10566000000E+00  0.10566000000E+00 0. -1.
     999900   -1    0    0    0    0 -0.00000000000E+00 -0.00000000000E+00 -0.74505805969E-08  0.93827000000E+00  0.93827000000E+00 0.  1.
     999902    2    1    2    0    0  0.10900628644E-01 -0.23392073037E-01  0.13779648991E-01  0.10146743764E+01  0.10142525320E+01 0.  0.
     999903    2    3    3    0    0 -0.84946991479E-01 -0.73402337095E-01  0.12037679116E+00  0.16598377111E+00  0.21357574056E-01 0.  0.
         14    1    1    2    0    0 -0.10900628644E-01  0.23392073037E-01 -0.13779648991E-01  0.29255623598E-01  0.00000000000E+00 0.  1.
     999901    1    3    3    0    0  0.95847620123E-01  0.50010264058E-01 -0.10659714217E+00  0.84869060529E+00  0.83500000000E+00 0.  1.
        -11    1    4    4    0    0 -0.14833428209E-01 -0.17099953358E-01  0.36863107919E-01  0.43261863618E-01  0.51100000000E-03 0. -1.
         11    1    4    4    0    0 -0.70113563270E-01 -0.56302383738E-01  0.83513683239E-01  0.12272190749E+00  0.51100000000E-03 0.  1.
</event>
<event>
 8    1  0.5716970E+005  0.1043930E+01  0.7957747E-01            NaN
         13   -1    0    0    0    0  0.00000000000E+00  0.00000000000E+00  0.74505805969E-08  0.10566000000E+00  0.10566000000E+00 0. -1.
     999900   -1    0    0    0    0 -0.00000000000E+00 -0.00000000000E+00 -0.74505805969E-08  0.93827000000E+00  0.93827000000E+00 0. -1.
     999902    2    1    2    0    0 -0.16488943994E-01  0.13600034487E-01  0.13342605122E-01  0.10187333470E+01  0.10184217009E+01 0.  0.
     999903    2    3    3    0    0  0.46013857490E-01  0.16085277880E+00  0.49495246123E-02  0.16850666267E+00  0.19470645642E-01 0.  0.
         14    1    1    2    0    0  0.16488943994E-01 -0.13600034487E-01 -0.13342605122E-01  0.25196653022E-01  0.00000000000E+00 0.  1.
     999901    1    3    3    0    0 -0.62502801484E-01 -0.14725274432E+00  0.83930805092E-02  0.85022668430E+00  0.83500000000E+00 0.  1.
        -11    1    4    4    0    0  0.47420194826E-01  0.14740377354E+00  0.33523950159E-02  0.15488075092E+00  0.51100000000E-03 0.  1.
         11    1    4    4    0    0 -0.14063373355E-02  0.13449005260E-01  0.15971295964E-02  0.13625911754E-01  0.51100000000E-03 0. -1.
</event>
<event>
 8    1  0.5716970E+005  0.1043930E+01  0.7957747E-01            NaN
         13   -1    0    0    0    0  0.00000000000E+00  0.00000000000E+00  0.74505805969E-08  0.10566000000E+00  0.10566000000E+00 0.  1.
     999900   -1    0    0    0    0 -0.00000000000E+00 -0.00000000000E+00 -0.74505805969E-08  0.93827000000E+00  0.93827000000E+00 0.  1.
     999902    2    1    2    0    0  0.82878449220E-02  0.17271233931E-01  0.12279306488E-01  0.10211755441E+01  0.10209219983E+01 0.  0.
     999903    2    3    3    0    0  0.14251821322E+00 -0.56652102737E-01  0.71070739271E-01  0.17019735165E+00  0.19879302904E-01 0.  0.
         14    1    1    2    0    0 -0.82878449220E-02 -0.17271233931E-01 -0.12279306488E-01  0.22754455888E-01  0.00000000000E+00 0.  1.
     999901    1    3    3    0    0 -0.13423036830E+00  0.73923336668E-01 -0.58791432783E-01  0.85097819246E+00  0.83500000000E+00 0.  1.
        -11    1    4    4    0    0  0.52961007300E-01 -0.17854097863E-01  0.36019248795E-01  0.66492740277E-01  0.51100000000E-03 0. -1.
         11    1    4    4    0    0  0.89557205920E-01 -0.38798004874E-01  0.35051490476E-01  0.10370461137E+00  0.51100000000E-03 0.  1.
</event>
<event>
 8    1  0.5716970E+005  0.1043930E+01  0.7957747E-01            NaN
         13   -1    0    0    0    0  0.00000000000E+00  0.00000000000E+00  0.74505805969E-08  0.10566000000E+00  0.10566000000E+00 0.  1.
     999900   -1    0    0    0    0 -0.00000000000E+00 -0.00000000000E+00 -0.74505805969E-08  0.93827000000E+00  0.93827000000E+00 0. -1.
     999902    2    1    2    0    0 -0.13340523128E-01 -0.95874554748E-02  0.17280339578E-01  0.10200867830E+01  0.10198080927E+01 0.  0.
     999903    2    3    3    0    0  0.14592479728E+00 -0.18504340669E-01  0.78240866680E-01  0.16780388457E+00  0.20001334322E-01 0.  0.
         14    1    1    2    0    0  0.13340523128E-01  0.95874554748E-02 -0.17280339578E-01  0.23843216975E-01  0.00000000000E+00 0. -1.
     999901    1    3    3    0    0 -0.15926532041E+00  0.89168851940E-02 -0.60960527102E-01  0.85228289845E+00  0.83500000000E+00 0. -1.
        -11    1    4    4    0    0  0.11932701723E+00 -0.17548903047E-01  0.55393766406E-01  0.13272389204E+00  0.51100000000E-03 0.  1.
         11    1    4    4    0    0  0.26597780046E-01 -0.95543762161E-03  0.22847100274E-01  0.35079992536E-01  0.51100000000E-03 0. -1.
</event>
<event>
 8    1  0.5716970E+005  0.1043930E+01  0.7957747E-01            NaN
         13   -1    0    0    0    0  0.00000000000E+00  0.00000000000E+00  0.74505805969E-08  0.10566000000E+00  0.10566000000E+00 0. -1.
     999900   -1    0    0    0    0 -0.00000000000E+00 -0.00000000000E+00 -0.74505805969E-08  0.93827000000E+00  0.93827000000E+00 0. -1.
     999902    2    1    2    0    0 -0.15577887526E-01  0.76931223075E-02  0.16599351770E-01  0.10199009927E+01  0.10196178901E+01 0.  0.
     999903    2    3    3    0    0 -0.67106192042E-01  0.10491424876E+00 -0.11106890685E+00  0.16806104425E+00  0.19949233611E-01 0.  0.
         14    1    1    2    0    0  0.15577887526E-01 -0.76931223075E-02 -0.16599351770E-01  0.24029007258E-01  0.00000000000E+00 0.  1.
     999901    1    3    3    0    0  0.51528304516E-01 -0.97221126448E-01  0.12766825862E+00  0.85183994850E+00  0.83500000000E+00 0.  1.
        -11    1    4    4    0    0 -0.29430368164E-02  0.16859731686E-01 -0.16778148544E-01  0.23972471875E-01  0.51100000000E-03 0.  1.
         11    1    4    4    0    0 -0.64163155226E-01  0.88054517070E-01 -0.94290758308E-01  0.14408857237E+00  0.51100000000E-03 0. -1.
</event>
<event>
 8    1  0.5716970E+005  0.1043930E+01  0.7957747E-01            NaN
         13   -1    0    0    0    0  0.00000000000E+00  0.00000000000E+00  0.74505805969E-08  0.10566000000E+00  0.10566000000E+00 0.  1.
     999900   -1    0    0    0    0 -0.00000000000E+00 -0.00000000000E+00 -0.74505805969E-08  0.93827000000E+00  0.93827000000E+00 0. -1.
     999902    2    1    2    0    0  0.21138990179E-01 -0.30181057567E-02  0.87342802862E-02  0.10208593797E+01  0.10205986575E+01 0.  0.
     999903    2    3    3    0    0  0.21806147856E-01  0.32368956713E-01  0.16491193131E+00  0.17064226158E+00  0.19989469873E-01 0.  0.
         14    1    1    2    0    0 -0.21138990179E-01  0.30181057567E-02 -0.87342802862E-02  0.23070620284E-01  0.00000000000E+00 0. -1.
     999901    1    3    3    0    0 -0.66715767643E-03 -0.35387062470E-01 -0.15617765103E+00  0.85021711813E+00  0.83500000000E+00 0. -1.
        -11    1    4    4    0    0  0.94195502354E-02  0.93198806738E-02  0.96292270457E-01  0.97201083189E-01  0.51100000000E-03 0. -1.
         11    1    4    4    0    0  0.12386597620E-01  0.23049076039E-01  0.68619660855E-01  0.73441178392E-01  0.51100000000E-03 0.  1.
</event>
<event>
 8    1  0.5716970E+005  0.1043930E+01  0.7957747E-01            NaN
         13   -1    0    0    0    0  0.00000000000E+00  0.00000000000E+00  0.74505805969E-08  0.10566000000E+00  0.10566000000E+00 0. -1.
     999900   -1    0    0    0    0 -0.00000000000E+00 -0.00000000000E+00 -0.74505805969E-08  0.93827000000E+00  0.93827000000E+00 0.  1.
     999902    2    1    2    0    0  0.87097399520E-02  0.15199830058E-01 -0.91453986405E-02  0.10241680993E+01  0.10239774230E+01 0.  0.
     999903    2    3    3    0    0 -0.14950623136E+00  0.51920747959E-01 -0.63750546425E-01  0.17176711292E+00  0.19797263117E-01 0.  0.
         14    1    1    2    0    0 -0.87097399520E-02 -0.15199830058E-01  0.91453986405E-02  0.19761900721E-01  0.00000000000E+00 0. -1.
     999901    1    3    3    0    0  0.15821597131E+00 -0.36720917902E-01  0.54605147784E-01  0.85240098636E+00  0.83500000000E+00 0.  1.
        -11    1    4    4    0    0 -0.90147934652E-01  0.40192271848E-01 -0.44497403028E-01  0.10826979651E+00  0.51100000000E-03 0. -1.
         11    1    4    4    0    0 -0.59358296704E-01  0.11728476112E-01 -0.19253143397E-01  0.63497316410E-01  0.51100000000E-03 0.  1.
</event>
<event>
 8    1  0.5716970E+005  0.1043930E+01  0.7957747E-01            NaN
         13   -1    0    0    0    0  0.00000000000E+00  0.00000000000E+00  0.74505805969E-08  0.10566000000E+00  0.10566000000E+00 0.  1.
     999900   -1    0    0    0    0 -0.00000000000E+00 -0.00000000000E+00 -0.74505805969E-08  0.93827000000E+00  0.93827000000E+00 0.  1.
     999902    2    1    2    0    0  0.67111388673E-02  0.18630908136E-01 -0.18010689592E-01  0.10171618274E+01  0.10168095437E+01 0.  0.
     999903    2    3    3    0    0  0.11060679816E+00 -0.25788765858E-01  0.11647559318E+00  0.16388638790E+00  0.19830786385E-01 0.  0.
         14    1    1    2    0    0 -0.67111388673E-02 -0.18630908136E-01  0.18010689592E-01  0.26768172564E-01  0.00000000000E+00 0.  1.
     999901    1    3    3    0    0 -0.10389565930E+00  0.44419673994E-01 -0.13448628277E+00  0.85327543953E+00  0.83500000000E+00 0.  1.
        -11    1    4    4    0    0  0.44126911646E-01 -0.11342632702E-01  0.33326862284E-01  0.56451576760E-01  0.51100000000E-03 0.  1.
         11    1    4    4    0    0  0.66479886517E-01 -0.14446133156E-01  0.83148730895E-01  0.10743481114E+00  0.51100000000E-03 0. -1.
</event>
<event>
 8    1  0.5716970E+005  0.1043930E+01  0.7957747E-01            NaN
         13   -1    0    0    0    0  0.00000000000E+00  0.00000000000E+00  0.74505805969E-08  0.10566000000E+00  0.10566000000E+00 0. -1.
     999900   -1    0    0    0    0 -0.00000000000E+00 -0.00000000000E+00 -0.74505805969E-08  0.93827000000E+00  0.93827000000E+00 0.  1.
     999902    2    1    2    0    0 -0.19763466341E-01 -0.13038973674E-01 -0.14661636931E-03  0.10202523537E+01  0.10199775656E+01 0.  0.
     999903    2    3    3    0    0  0.56042868883E-01  0.15860412902E-01 -0.15518984289E+00  0.16711392587E+00  0.21232546581E-01 0.  0.
         14    1    1    2    0    0  0.19763466341E-01  0.13038973674E-01  0.14661636931E-03  0.23677646265E-01  0.00000000000E+00 0.  1.
     999901    1    3    3    0    0 -0.75806335224E-01 -0.28899386576E-01  0.15504322652E+00  0.85313842786E+00  0.83500000000E+00 0. -1.
        -11    1    4    4    0    0  0.24169550748E-01  0.13138259215E-01 -0.48851941761E-01  0.56067409191E-01  0.51100000000E-03 0. -1.
         11    1    4    4    0    0  0.31873318135E-01  0.27221536873E-02 -0.10633790113E+00  0.11104651668E+00  0.51100000000E-03 0.  1.
</event>
<event>
 8    1  0.5716970E+005  0.1043930E+01  0.7957747E-01            NaN
         13   -1    0    0    0    0  0.00000000000E+00  0.00000000000E+00  0.74505805969E-08  0.10566000000E+00  0.10566000000E+00 0. -1.
     999900   -1    0    0    0    0 -0.00000000000E+00 -0.00000000000E+00 -0.74505805969E-08  0.93827000000E+00  0.93827000000E+00 0.  1.
     999902    2    1    2    0    0  0.48504710131E-02  0.10338374487E-01 -0.20524594565E-01  0.10204423854E+01  0.10201720413E+01 0.  0.
     999903    2    3    3    0    0 -0.52600744004E-01  0.15544495122E+00  0.35862518060E-01  0.16911338487E+00  0.19576659863E-01 0.  0.
         14    1    1    2    0    0 -0.48504710131E-02 -0.10338374487E-01  0.20524594565E-01  0.23487614568E-01  0.00000000000E+00 0. -1.
     999901    1    3    3    0    0  0.57451215017E-01 -0.14510657674E+00 -0.56387112625E-01  0.85132900056E+00  0.83500000000E+00 0.  1.
        -11    1    4    4    0    0 -0.16051023649E-01  0.31570649409E-01  0.14381920506E-02  0.35449552630E-01  0.51100000000E-03 0.  1.
         11    1    4    4    0    0 -0.36549720355E-01  0.12387430181E+00  0.34424326009E-01  0.13366383224E+00  0.51100000000E-03 0. -1.
</event>
<event>
 8    1  0.5716970E+005  0.1043930E+01  0.7957747E-01            NaN
         13   -1    0    0    0    0  0.00000000000E+00  0.00000000000E+00  0.74505805969E-08  0.10566000000E+00  0.10566000000E+00 0. -1.
     999900   -1    0    0    0    0 -0.00000000000E+00 -0.00000000000E+00 -0.74505805969E-08  0.93827000000E+00  0.93827000000E+00 0.  1.
     999902    2    1    2    0    0 -0.27515705786E-02 -0.23642621079E-01  0.32636768191E-02  0.10199050909E+01  0.10196220859E+01 0.  0.
     999903    2    3    3    0    0  0.38627427370E-02  0.12203962195E+00 -0.10896425978E+00  0.16486873210E+00  0.19997470014E-01 0.  0.
         14    1    1    2    0    0  0.27515705786E-02  0.23642621079E-01 -0.32636768191E-02  0.24024909126E-01  0.00000000000E+00 0. -1.
     999901    1    3    3    0    0 -0.66143133156E-02 -0.14568224303E+00  0.11222793660E+00  0.85503635878E+00  0.83500000000E+00 0. -1.
        -11    1    4    4    0    0 -0.58945606305E-02  0.88887269134E-01 -0.75791903116E-01  0.11696309742E+00  0.51100000000E-03 0.  1.
         11    1    4    4    0    0  0.97573033675E-02  0.33152352816E-01 -0.33172356665E-01  0.47905634679E-01  0.51100000000E-03 0. -1.
</event>
<event>
 8    1  0.5716970E+005  0.1043930E+01  0.7957747E-01            NaN
         13   -1    0    0    0    0  0.00000000000E+00  0.00000000000E+00  0.74505805969E-08  0.10566000000E+00  0.10566000000E+00 0. -1.
     999900   -1    0    0    0    0 -0.00000000000E+00 -0.00000000000E+00 -0.74505805969E-08  0.93827000000E+00  0.93827000000E+00 0. -1.
     999902    2    1    2    0    0  0.10163123300E-01 -0.21350129351E-01 -0.11990915998E-02  0.10202539590E+01  0.10199792085E+01 0.  0.
     999903    2    3    3    0    0  0.29203740950E-01  0.86060036088E-01 -0.13895421240E+00  0.16696563602E+00  0.17608582318E-01 0.  0.
         14    1    1    2    0    0 -0.10163123300E-01  0.21350129351E-01  0.11990915998E-02  0.23676041037E-01  0.00000000000E+00 0.  1.
     999901    1    3    3    0    0 -0.19040617650E-01 -0.10741016544E+00  0.13775512080E+00  0.85328832294E+00  0.83500000000E+00 0.  1.
        -11    1    4    4    0    0  0.10464943755E-03  0.10670652744E-02 -0.84254889014E-02  0.85087933359E-02  0.51100000000E-03 0.  1.
         11    1    4    4    0    0  0.29099091513E-01  0.84992970814E-01 -0.13052872350E+00  0.15845684269E+00  0.51100000000E-03 0. -1.
</event>
<event>
 8    1  0.5716970E+005  0.1043930E+01  0.7957747E-01            NaN
         13   -1    0    0    0    0  0.00000000000E+00  0.00000000000E+00  0.74505805969E-08  0.10566000000E+00  0.10566000000E+00 0. -1.
     999900   -1    0    0    0    0 -0.00000000000E+00 -0.00000000000E+00 -0.74505805969E-08  0.93827000000E+00  0.93827000000E+00 0.  1.
     999902    2    1    2    0    0  0.11032684714E-02  0.12193924785E-01 -0.20913962450E-01  0.10196956684E+01  0.10194076483E+01 0.  0.
     999903    2    3    3    0    0  0.24045984578E-01 -0.12209959142E+00 -0.11211314856E+00  0.16875300977E+00  0.20535350690E-01 0.  0.
         14    1    1    2    0    0 -0.11032684714E-02 -0.12193924785E-01  0.20913962450E-01  0.24234331605E-01  0.00000000000E+00 0. -1.
     999901    1    3    3    0    0 -0.22942716107E-01  0.13429351621E+00  0.91199186110E-01  0.85094265862E+00  0.83500000000E+00 0. -1.
        -11    1    4    4    0    0 -0.31562092482E-02 -0.26586803904E-01 -0.22151967874E-01  0.34753281864E-01  0.51100000000E-03 0.  1.
         11    1    4    4    0    0  0.27202193826E-01 -0.95512787516E-01 -0.89961180686E-01  0.13399972791E+00  0.51100000000E-03 0. -1.
</event>
<event>
 8    1  0.5716970E+005  0.1043930E+01  0.7957747E-01            NaN
         13   -1    0    0    0    0  0.00000000000E+00  0.00000000000E+00  0.74505805969E-08  0.10566000000E+00  0.10566000000E+00 0.  1.
     999900   -1    0    0    0    0 -0.00000000000E+00 -0.00000000000E+00 -0.74505805969E-08  0.93827000000E+00  0.93827000000E+00 0. -1.
     999902    2    1    2    0    0  0.57720939611E-03 -0.19948768859E-01  0.20626573799E-01  0.10152290924E+01  0.10148233186E+01 0.  0.
     999903    2    3    3    0    0  0.12866719661E+00 -0.79110917674E-02 -0.96543421868E-01  0.16228961133E+00  0.19986314910E-01 0.  0.
         14    1    1    2    0    0 -0.57720939611E-03  0.19948768859E-01 -0.20626573799E-01  0.28700907588E-01  0.00000000000E+00 0. -1.
     999901    1    3    3    0    0 -0.12808998722E+00 -0.12037677092E-01  0.11716999567E+00  0.85293948108E+00  0.83500000000E+00 0.  1.
        -11    1    4    4    0    0  0.54498451013E-01 -0.14526358235E-02 -0.53021215376E-01  0.76050652295E-01  0.51100000000E-03 0. -1.
         11    1    4    4    0    0  0.74168745601E-01 -0.64584559440E-02 -0.43522206493E-01  0.86238959039E-01  0.51100000000E-03 0.  1.
</event>
<event>
 7    1  0.5716970E+005  0.1043930E+01  0.7957747E-01            NaN
         13   -1    0    0    0    0  0.00000000000E+00  0.00000000000E+00  0.74505805969E-08  0.10566000000E+00  0.10566000000E+00 0. -1.
     999900   -1    0    0    0    0 -0.00000000000E+00 -0.00000000000E+00 -0.74505805969E-08  0.93827000000E+00  0.93827000000E+00 0.  1.
     999902    2    1    2    0    0 -0.22271217964E-01 -0.74225357826E-02  0.56067670618E-02  0.10197941962E+01  0.10195085412E+01 0.  0.
         14    1    1    2    0    0  0.22271217964E-01  0.74225357826E-02 -0.56067670618E-02  0.24135803776E-01  0.00000000000E+00 0.  1.
     999901    1    3    3    0    0  0.68308849305E-01 -0.75121237883E-01  0.10376963286E+00  0.84752724793E+00  0.83500000000E+00 0. -1.
        -11    1    3    3    0    0  0.13938686611E-01  0.19955067433E-01 -0.62891830826E-02  0.25145708293E-01  0.51100000000E-03 0.  1.
         11    1    3    3    0    0 -0.10451875388E+00  0.47743634667E-01 -0.91873682715E-01  0.14712124000E+00  0.51100000000E-03 0. -1.
</event>
<event>
 8    1  0.5716970E+005  0.1043930E+01  0.7957747E-01            NaN
         13   -1    0    0    0    0  0.00000000000E+00  0.00000000000E+00  0.74505805969E-08  0.10566000000E+00  0.10566000000E+00 0. -1.
     999900   -1    0    0    0    0 -0.00000000000E+00 -0.00000000000E+00 -0.74505805969E-08  0.93827000000E+00  0.93827000000E+00 0.  1.
     999902    2    1    2    0    0 -0.21795286176E-01  0.74146759277E-02  0.54682870908E-02  0.10202674963E+01  0.10199930636E+01 0.  0.
     999903    2    3    3    0    0  0.14843909791E-01 -0.26579454676E-01  0.16472635188E+00  0.16874758295E+00  0.20351085449E-01 0.  0.
         14    1    1    2    0    0  0.21795286176E-01 -0.74146759277E-02 -0.54682870908E-02  0.23662503720E-01  0.00000000000E+00 0.  1.
     999901    1    3    3    0    0 -0.36639195967E-01  0.33994130603E-01 -0.15925806479E+00  0.85151991333E+00  0.83500000000E+00 0.  1.
        -11    1    4    4    0    0  0.18066691013E-02 -0.23855278526E-03  0.58458025939E-01  0.58488655980E-01  0.51100000000E-03 0. -1.
         11    1    4    4    0    0  0.13037240690E-01 -0.26340901890E-01  0.10626832594E+00  0.11025892697E+00  0.51100000000E-03 0.  1.
</event>
<event>
 8    1  0.5716970E+005  0.1043930E+01  0.7957747E-01            NaN
         13   -1    0    0    0    0  0.00000000000E+00  0.00000000000E+00  0.74505805969E-08  0.10566000000E+00  0.10566000000E+00 0. -1.
     999900   -1    0    0    0    0 -0.00000000000E+00 -0.00000000000E+00 -0.74505805969E-08  0.93827000000E+00  0.93827000000E+00 0.  1.
     999902    2    1    2    0    0 -0.33026705398E-01 -0.10633286435E-01  0.70525168142E-02  0.10085242371E+01  0.10079025592E+01 0.  0.
     999903    2    3    3    0    0 -0.12284893206E+00  0.36618447270E-01 -0.95715508450E-01  0.16112408034E+00  0.19150454810E-01 0.  0.
         14    1    1    2    0    0  0.33026705398E-01  0.10633286435E-01 -0.70525168142E-02  0.35405762854E-01  0.00000000000E+00 0.  1.
     999901    1    3    3    0    0  0.89822226657E-01 -0.47251733705E-01  0.10276802526E+00  0.84740015681E+00  0.83500000000E+00 0.  1.
        -11    1    4    4    0    0 -0.10752013217E+00  0.33064791449E-01 -0.90999099764E-01  0.14468917214E+00  0.51100000000E-03 0. -1.
         11    1    4    4    0    0 -0.15328799887E-01  0.35536558206E-02 -0.47164086864E-02  0.16434908201E-01  0.51100000000E-03 0.  1.
</event>
<event>
 8    1  0.5716970E+005  0.1043930E+01  0.7957747E-01            NaN
         13   -1    0    0    0    0  0.00000000000E+00  0.00000000000E+00  0.74505805969E-08  0.10566000000E+00  0.10566000000E+00 0.  1.
     999900   -1    0    0    0    0 -0.00000000000E+00 -0.00000000000E+00 -0.74505805969E-08  0.93827000000E+00  0.93827000000E+00 0. -1.
     999902    2    1    2    0    0  0.28057395220E-02 -0.15103125382E-01  0.16257022113E-01  0.10215633432E+01  0.10213184600E+01 0.  0.
     999903    2    3    3    0    0 -0.31992423934E-02 -0.11090628324E+00  0.13167247427E+00  0.17317662033E+00  0.18494932725E-01 0.  0.
         14    1    1    2    0    0 -0.28057395220E-02  0.15103125382E-01 -0.16257022113E-01  0.22366656848E-01  0.00000000000E+00 0. -1.
     999901    1    3    3    0    0  0.60049819154E-02  0.95803157857E-01 -0.11541545215E+00  0.84838672282E+00  0.83500000000E+00 0. -1.
        -11    1    4    4    0    0 -0.30371273884E-02 -0.76912389702E-01  0.77579407179E-01  0.10928662028E+00  0.51100000000E-03 0. -1.
         11    1    4    4    0    0 -0.16211500494E-03 -0.33993893537E-01  0.54093067087E-01  0.63890000054E-01  0.51100000000E-03 0.  1.
</event>
<event>
 8    1  0.5716970E+005  0.1043930E+01  0.7957747E-01            NaN
         13   -1    0    0    0    0  0.00000000000E+00  0.00000000000E+00  0.74505805969E-08  0.10566000000E+00  0.10566000000E+00 0. -1.
     999900   -1    0    0    0    0 -0.00000000000E+00 -0.00000000000E+00 -0.74505805969E-08  0.93827000000E+00  0.93827000000E+00 0.  1.
     999902    2    1    2    0    0  0.73710081284E-02  0.23147592712E-01  0.42660827295E-02  0.10192654045E+01  0.10189669389E+01 0.  0.
     999903    2    3    3    0    0  0.31842875934E-01  0.13702251960E+00 -0.94701361147E-01  0.17039207695E+00  0.16612418769E-01 0.  0.
         14    1    1    2    0    0 -0.73710081284E-02 -0.23147592712E-01 -0.42660827295E-02  0.24664595497E-01  0.00000000000E+00 0. -1.
     999901    1    3    3    0    0 -0.24471867806E-01 -0.11387492689E+00  0.98967443876E-01  0.84887332756E+00  0.83500000000E+00 0. -1.
        -11    1    4    4    0    0  0.12496445905E-01  0.60744345624E-01 -0.51532356994E-01  0.80634245974E-01  0.51100000000E-03 0. -1.
         11    1    4    4    0    0  0.19346430029E-01  0.76278173979E-01 -0.43169004153E-01  0.89757830973E-01  0.51100000000E-03 0.  1.
</event>
<event>
 8    1  0.5716970E+005  0.1043930E+01  0.7957747E-01            NaN
         13   -1    0    0    0    0  0.00000000000E+00  0.00000000000E+00  0.74505805969E-08  0.10566000000E+00  0.10566000000E+00 0.  1.
     999900   -1    0    0    0    0 -0.00000000000E+00 -0.00000000000E+00 -0.74505805969E-08  0.93827000000E+00  0.93827000000E+00 0. -1.
     999902    2    1    2    0    0  0.41846040118E-02  0.51038721244E-02  0.21357415896E-01  0.10215760376E+01  0.10213314354E+01 0.  0.
     999903    2    3    3    0    0 -0.48832028400E-01 -0.13283910929E+00 -0.85931982467E-01  0.16683921001E+00  0.20499278785E-01 0.  0.
         14    1    1    2    0    0 -0.41846040118E-02 -0.51038721244E-02 -0.21357415896E-01  0.22353962404E-01  0.00000000000E+00 0. -1.
     999901    1    3    3    0    0  0.53016632412E-01  0.13794298141E+00  0.10728939836E+00  0.85473682759E+00  0.83500000000E+00 0. -1.
        -11    1    4    4    0    0 -0.46518054017E-01 -0.10949223574E+00 -0.65980552007E-01  0.13603739706E+00  0.51100000000E-03 0.  1.
         11    1    4    4    0    0 -0.23139743834E-02 -0.23346873555E-01 -0.19951430460E-01  0.30801812944E-01  0.51100000000E-03 0. -1.
</event>
<event>
 8    1  0.5716970E+005  0.1043930E+01  0.7957747E-01            NaN
         13   -1    0    0    0    0  0.00000000000E+00  0.00000000000E+00  0.74505805969E-08  0.10566000000E+00  0.10566000000E+00 0. -1.
     999900   -1    0    0    0    0 -0.00000000000E+00 -0.00000000000E+00 -0.74505805969E-08  0.93827000000E+00  0.93827000000E+00 0.  1.
     999902    2    1    2    0    0 -0.67282607237E-02 -0.15362915226E-01 -0.13533594806E-01  0.10223789711E+01  0.10221518056E+01 0.  0.
     999903    2    3    3    0    0 -0.98819652590E-01  0.47953895757E-02  0.13549163678E+00  0.16896189763E+00  0.20045441267E-01 0.  0.
         14    1    1    2    0    0  0.67282607237E-02  0.15362915226E-01  0.13533594806E-01  0.21551028861E-01  0.00000000000E+00 0. -1.
     999901    1    3    3    0    0  0.92091391866E-01 -0.20158304801E-01 -0.14902523158E+00  0.85341707351E+00  0.83500000000E+00 0.  1.
        -11    1    4    4    0    0 -0.70649804650E-01 -0.32124159236E-02  0.84856628003E-01  0.11046548307E+00  0.51100000000E-03 0. -1.
         11    1    4    4    0    0 -0.28169847940E-01  0.80078054993E-02  0.50635008773E-01  0.58496414559E-01  0.51100000000E-03 0.  1.
</event>
<event>
 8    1  0.5716970E+005  0.1043930E+01  0.7957747E-01            NaN
         13   -1    0    0    0    0  0.00000000000E+00  0.00000000000E+00  0.74505805969E-08  0.10566000000E+00  0.10566000000E+00 0. -1.
     999900   -1    0    0    0    0 -0.00000000000E+00 -0.00000000000E+00 -0.74505805969E-08  0.93827000000E+00  0.93827000000E+00 0.  1.
     999902    2    1    2    0    0 -0.23182007755E-03  0.21353156556E-01  0.91724084609E-02  0.10206889993E+01  0.10204243672E+01 0.  0.
     999903    2    3    3    0    0  0.12202762826E+00 -0.85567762561E-01 -0.71106908982E-01  0.16625981884E+00  0.19327462494E-01 0.  0.
         14    1    1    2    0    0  0.23182007755E-03 -0.21353156556E-01 -0.91724084609E-02  0.23241000676E-01  0.00000000000E+00 0.  1.
     999901    1    3    3    0    0 -0.12225944834E+00  0.10692091912E+00  0.80279317443E-01  0.85442918048E+00  0.83500000000E+00 0. -1.
        -11    1    4    4    0    0  0.88562947283E-02 -0.13295649062E-01 -0.84664740397E-02  0.18087303391E-01  0.51100000000E-03 0. -1.
         11    1    4    4    0    0  0.11317133353E+00 -0.72272113499E-01 -0.62640434943E-01  0.14817251545E+00  0.51100000000E-03 0.  1.
</event>
<event>
 8    1  0.5716970E+005  0.1043930E+01  0.7957747E-01            NaN
         13   -1    0    0    0    0  0.00000000000E+00  0.00000000000E+00  0.74505805969E-08  0.10566000000E+00  0.10566000000E+00 0.  1.
     999900   -1    0    0    0    0 -0.00000000000E+00 -0.00000000000E+00 -0.74505805969E-08  0.93827000000E+00  0.93827000000E+00 0. -1.
     999902    2    1    2    0    0 -0.37274614434E-02 -0.19284574900E-01 -0.13275437100E-01  0.10202229119E+01  0.10199474319E+01 0.  0.
     999903    2    3    3    0    0 -0.11781990117E+00 -0.64414200628E-01  0.10029359467E+00  0.16864984224E+00  0.18794834473E-01 0.  0.
         14    1    1    2    0    0  0.37274614434E-02  0.19284574900E-01  0.13275437100E-01  0.23707088140E-01  0.00000000000E+00 0. -1.
     999901    1    3    3    0    0  0.11409243973E+00  0.45129625729E-01 -0.11356903177E+00  0.85157306962E+00  0.83500000000E+00 0. -1.
        -11    1    4    4    0    0 -0.65524220059E-01 -0.29707395555E-01  0.43978065614E-01  0.84322500800E-01  0.51100000000E-03 0.  1.
         11    1    4    4    0    0 -0.52295681112E-01 -0.34706805073E-01  0.56315529053E-01  0.84327341443E-01  0.51100000000E-03 0. -1.
</event>
<event>
 8    1  0.5716970E+005  0.1043930E+01  0.7957747E-01            NaN
         13   -1    0    0    0    0  0.00000000000E+00  0.00000000000E+00  0.74505805969E-08  0.10566000000E+00  0.10566000000E+00 0. -1.
     999900   -1    0    0    0    0 -0.00000000000E+00 -0.00000000000E+00 -0.74505805969E-08  0.93827000000E+00  0.93827000000E+00 0. -1.
     999902    2    1    2    0    0 -0.37102939523E-02 -0.13547198397E-01 -0.18754488479E-01  0.10204987452E+01  0.10202297120E+01 0.  0.
     999903    2    3    3    0    0 -0.18438691000E-01  0.50264206883E-01  0.15489210737E+00  0.16512341153E+00  0.20191589560E-01 0.  0.
         14    1    1    2    0    0  0.37102939523E-02  0.13547198397E-01  0.18754488479E-01  0.23431254847E-01  0.00000000000E+00 0. -1.
     999901    1    3    3    0    0  0.14728397047E-01 -0.63811405280E-01 -0.17364659585E+00  0.85537533362E+00  0.83500000000E+00 0. -1.
        -11    1    4    4    0    0 -0.13405538765E-02  0.26443506638E-01  0.91895435401E-01  0.95635183361E-01  0.51100000000E-03 0. -1.
         11    1    4    4    0    0 -0.17098137123E-01  0.23820700246E-01  0.62996671972E-01  0.69488228167E-01  0.51100000000E-03 0.  1.
</event>
<event>
 8    1  0.5716970E+005  0.1043930E+01  0.7957747E-01            NaN
         13   -1    0    0    0    0  0.00000000000E+00  0.00000000000E+00  0.74505805969E-08  0.10566000000E+00  0.10566000000E+00 0. -1.
     999900   -1    0    0    0    0 -0.00000000000E+00 -0.00000000000E+00 -0.74505805969E-08  0.93827000000E+00  0.93827000000E+00 0.  1.
     999902    2    1    2    0    0  0.39269196252E-02  0.22266089943E-01  0.19730876434E-01  0.10139215521E+01  0.10134773835E+01 0.  0.
     999903    2    3    3    0    0 -0.99330511162E-01 -0.10898874152E+00  0.61696135434E-01  0.16135131410E+00  0.21971281488E-01 0.  0.
         14    1    1    2    0    0 -0.39269196252E-02 -0.22266089943E-01 -0.19730876434E-01  0.30008447876E-01  0.00000000000E+00 0.  1.
     999901    1    3    3    0    0  0.10325743079E+00  0.13125483146E+00 -0.41965259000E-01  0.85257023802E+00  0.83500000000E+00 0.  1.
        -11    1    4    4    0    0 -0.57823561134E-01 -0.49329689335E-01  0.37457370393E-01  0.84736640185E-01  0.51100000000E-03 0. -1.
         11    1    4    4    0    0 -0.41506950027E-01 -0.59659052182E-01  0.24238765042E-01  0.76614673918E-01  0.51100000000E-03 0.  1.
</event>
<event>
 8    1  0.5716970E+005  0.1043930E+01  0.7957747E-01            NaN
         13   -1    0    0    0    0  0.00000000000E+00  0.00000000000E+00  0.74505805969E-08  0.10566000000E+00  0.10566000000E+00 0. -1.
     999900   -1    0    0    0    0 -0.00000000000E+00 -0.00000000000E+00 -0.74505805969E-08  0.93827000000E+00  0.93827000000E+00 0. -1.
     999902    2    1    2    0    0  0.86152432993E-02  0.21293447967E-01 -0.64724340198E-02  0.10200652615E+01  0.10197860618E+01 0.  0.
     999903    2    3    3    0    0  0.93610563773E-02  0.92073179025E-01 -0.14273588981E+00  0.17106405066E+00  0.18007651590E-01 0.  0.
         14    1    1    2    0    0 -0.86152432993E-02 -0.21293447967E-01  0.64724340198E-02  0.23864738540E-01  0.00000000000E+00 0. -1.
     999901    1    3    3    0    0 -0.74581307796E-03 -0.70779731058E-01  0.13626345579E+00  0.84900121081E+00  0.83500000000E+00 0.  1.
        -11    1    4    4    0    0  0.32928027112E-03  0.72006976783E-01 -0.10369747435E+00  0.12624793241E+00  0.51100000000E-03 0. -1.
         11    1    4    4    0    0  0.90317761061E-02  0.20066202242E-01 -0.39038415459E-01  0.44816118246E-01  0.51100000000E-03 0.  1.
</event>
<event>
 8    1  0.5716970E+005  0.1043930E+01  0.7957747E-01            NaN
         13   -1    0    0    0    0  0.00000000000E+00  0.00000000000E+00  0.74505805969E-08  0.10566000000E+00  0.10566000000E+00 0. -1.
     999900   -1    0    0    0    0 -0.00000000000E+00 -0.00000000000E+00 -0.74505805969E-08  0.93827000000E+00  0.93827000000E+00 0.  1.
     999902    2    1    2    0    0  0.21648548711E-01 -0.78105569497E-02  0.67771395519E-02  0.10199384581E+01  0.10196562481E+01 0.  0.
     999903    2    3    3    0    0 -0.12369702005E+00  0.95217012257E-01  0.49609040365E-01  0.16507028928E+00  0.20491737962E-01 0.  0.
         14    1    1    2    0    0 -0.21648548711E-01  0.78105569497E-02 -0.67771395519E-02  0.23991541877E-01  0.00000000000E+00 0.  1.
     999901    1    3    3    0    0  0.14534556876E+00 -0.10302756921E+00 -0.42831900813E-01  0.85486816884E+00  0.83500000000E+00 0.  1.
        -11    1    4    4    0    0 -0.11898417267E-01  0.83782358418E-02  0.11253415252E-01  0.18402924906E-01  0.51100000000E-03 0.  1.
         11    1    4    4    0    0 -0.11179860278E+00  0.86838776415E-01  0.38355625113E-01  0.14666736437E+00  0.51100000000E-03 0. -1.
</event>
<event>
 8    1  0.5716970E+005  0.1043930E+01  0.7957747E-01            NaN
         13   -1    0    0    0    0  0.00000000000E+00  0.00000000000E+00  0.74505805969E-08  0.10566000000E+00  0.10566000000E+00 0.  1.
     999900   -1    0    0    0    0 -0.00000000000E+00 -0.00000000000E+00 -0.74505805969E-08  0.93827000000E+00  0.93827000000E+00 0.  1.
     999902    2    1    2    0    0 -0.16367420353E-01 -0.13820060042E-01  0.64444919492E-02  0.10215599757E+01  0.10213150180E+01 0.  0.
     999903    2    3    3    0    0  0.18505601333E-02  0.14732738363E+00  0.78222249351E-01  0.16793392186E+00  0.19346815734E-01 0.  0.
         14    1    1    2    0    0  0.16367420353E-01  0.13820060042E-01 -0.64444919492E-02  0.22370024253E-01  0.00000000000E+00 0. -1.
     999901    1    3    3    0    0 -0.18217980486E-01 -0.16114744367E+00 -0.71777757402E-01  0.85362605389E+00  0.83500000000E+00 0. -1.
        -11    1    4    4    0    0  0.10514314476E-01  0.69627916241E-01  0.37497037284E-01  0.79780238499E-01  0.51100000000E-03 0. -1.
         11    1    4    4    0    0 -0.86637543424E-02  0.77699467387E-01  0.40725212067E-01  0.88153683363E-01  0.51100000000E-03 0.  1.
</event>
<event>
 8    1  0.5716970E+005  0.1043930E+01  0.7957747E-01            NaN
         13   -1    0    0    0    0  0.00000000000E+00  0.00000000000E+00  0.74505805969E-08  0.10566000000E+00  0.10566000000E+00 0.  1.
     999900   -1    0    0    0    0 -0.00000000000E+00 -0.00000000000E+00 -0.74505805969E-08  0.93827000000E+00  0.93827000000E+00 0.  1.
     999902    2    1    2    0    0 -0.12940607083E-01  0.25741614317E-01 -0.78511232285E-02  0.10140681488E+01  0.10136283739E+01 0.  0.
     999903    2    3    3    0    0 -0.15138430137E+00  0.64198429673E-01 -0.19098670998E-01  0.16672105910E+00  0.19811795479E-01 0.  0.
         14    1    1    2    0    0  0.12940607083E-01 -0.25741614317E-01  0.78511232285E-02  0.29861851170E-01  0.00000000000E+00 0.  1.
     999901    1    3    3    0    0  0.13844369429E+00 -0.38456815355E-01  0.11247547769E-01  0.84734708973E+00  0.83500000000E+00 0. -1.
        -11    1    4    4    0    0 -0.87209332636E-01  0.39780652883E-01 -0.20580982870E-01  0.98039818541E-01  0.51100000000E-03 0. -1.
         11    1    4    4    0    0 -0.64174968738E-01  0.24417776790E-01  0.14823118727E-02  0.68681240564E-01  0.51100000000E-03 0.  1.
</event>
<event>
 7    1  0.5716970E+005  0.1043930E+01  0.7957747E-01            NaN
         13   -1    0    0    0    0  0.00000000000E+00  0.00000000000E+00  0.74505805969E-08  0.10566000000E+00  0.10566000000E+00 0. -1.
     999900   -1    0    0    0    0 -0.00000000000E+00 -0.00000000000E+00 -0.74505805969E-08  0.93827000000E+00  0.93827000000E+00 0.  1.
     999903    2    1    2    0    0  0.11194467370E+00 -0.69858265620E-01 -0.61591165314E-01  0.14708810619E+00  0.20728050861E-01 0.  0.
         14    1    1    2    0    0 -0.48453607355E-01 -0.10761524011E-01  0.22921815923E-01  0.54671492662E-01  0.00000000000E+00 0. -1.
     999901    1    1    2    0    0 -0.63491066346E-01  0.80619789631E-01  0.38669349392E-01  0.84217040115E+00  0.83500000000E+00 0. -1.
        -11    1    3    3    0    0  0.10440698426E+00 -0.58369937937E-01 -0.52680302984E-01  0.13070326492E+00  0.51100000000E-03 0.  1.
         11    1    3    3    0    0  0.75376894451E-02 -0.11488327683E-01 -0.89108623307E-02  0.16384841275E-01  0.51100000000E-03 0. -1.
</event>
<event>
 8    1  0.5716970E+005  0.1043930E+01  0.7957747E-01            NaN
         13   -1    0    0    0    0  0.00000000000E+00  0.00000000000E+00  0.74505805969E-08  0.10566000000E+00  0.10566000000E+00 0. -1.
     999900   -1    0    0    0    0 -0.00000000000E+00 -0.00000000000E+00 -0.74505805969E-08  0.93827000000E+00  0.93827000000E+00 0.  1.
     999902    2    1    2    0    0 -0.70664913832E-02  0.59662340284E-02  0.22638523600E-01  0.10194752663E+01  0.10191819193E+01 0.  0.
     999903    2    3    3    0    0  0.11369798227E+00 -0.10246810224E+00 -0.58211001006E-01  0.16501420283E+00  0.20352477703E-01 0.  0.
         14    1    1    2    0    0  0.70664913832E-02 -0.59662340284E-02 -0.22638523600E-01  0.24454733688E-01  0.00000000000E+00 0.  1.
     999901    1    3    3    0    0 -0.12076447365E+00  0.10843433627E+00  0.80849524606E-01  0.85446106348E+00  0.83500000000E+00 0. -1.
        -11    1    4    4    0    0  0.56397197496E-01 -0.61528035226E-01 -0.24850927722E-01  0.87087155963E-01  0.51100000000E-03 0. -1.
         11    1    4    4    0    0  0.57300784774E-01 -0.40940067013E-01 -0.33360073284E-01  0.77927046866E-01  0.51100000000E-03 0.  1.
</event>
<event>
 8    1  0.5716970E+005  0.1043930E+01  0.7957747E-01            NaN
         13   -1    0    0    0    0  0.00000000000E+00  0.00000000000E+00  0.74505805969E-08  0.10566000000E+00  0.10566000000E+00 0. -1.
     999900   -1    0    0    0    0 -0.00000000000E+00 -0.00000000000E+00 -0.74505805969E-08  0.93827000000E+00  0.93827000000E+00 0. -1.
     999902    2    1    2    0    0 -0.10456651281E-01  0.65740581393E-02  0.15087973944E-01  0.10244311089E+01  0.10242455224E+01 0.  0.
     999903    2    3    3    0    0 -0.12473001439E+00  0.11125414120E+00  0.46175609550E-01  0.17460303076E+00  0.20468781390E-01 0.  0.
         14    1    1    2    0    0  0.10456651281E-01 -0.65740581393E-02 -0.15087973944E-01  0.19498891101E-01  0.00000000000E+00 0.  1.
     999901    1    3    3    0    0  0.11427336311E+00 -0.10468008306E+00 -0.31087635606E-01  0.84982807814E+00  0.83500000000E+00 0.  1.
        -11    1    4    4    0    0 -0.49766233560E-01  0.35107164295E-01  0.24042419513E-01  0.65478928249E-01  0.51100000000E-03 0. -1.
         11    1    4    4    0    0 -0.74963780827E-01  0.76146976900E-01  0.22133190037E-01  0.10912410251E+00  0.51100000000E-03 0.  1.
</event>
<event>
 8    1  0.5716970E+005  0.1043930E+01  0.7957747E-01            NaN
         13   -1    0    0    0    0  0.00000000000E+00  0.00000000000E+00  0.74505805969E-08  0.10566000000E+00  0.10566000000E+00 0. -1.
     999900   -1    0    0    0    0 -0.00000000000E+00 -0.00000000000E+00 -0.74505805969E-08  0.93827000000E+00  0.93827000000E+00 0. -1.
     999902    2    1    2    0    0 -0.17425599199E-01 -0.62830187345E-03 -0.15053061321E-01  0.10208943553E+01  0.10206344320E+01 0.  0.
     999903    2    3    3    0    0  0.78535287749E-02  0.16225146228E+00  0.40958973871E-01  0.16793996031E+00  0.11788884612E-01 0.  0.
         14    1    1    2    0    0  0.17425599199E-01  0.62830187345E-03  0.15053061321E-01  0.23035644680E-01  0.00000000000E+00 0. -1.
     999901    1    3    3    0    0 -0.25279127974E-01 -0.16287976416E+00 -0.56012035191E-01  0.85295439501E+00  0.83500000000E+00 0. -1.
        -11    1    4    4    0    0  0.59524673539E-02  0.29565995158E-01  0.70757231218E-02  0.30982364597E-01  0.51100000000E-03 0.  1.
         11    1    4    4    0    0  0.19010614210E-02  0.13268546713E+00  0.33883250749E-01  0.13695759571E+00  0.51100000000E-03 0. -1.
</event>
<event>
 8    1  0.5716970E+005  0.1043930E+01  0.7957747E-01            NaN
         13   -1    0    0    0    0  0.00000000000E+00  0.00000000000E+00  0.74505805969E-08  0.10566000000E+00  0.10566000000E+00 0.  1.
     999900   -1    0    0    0    0 -0.00000000000E+00 -0.00000000000E+00 -0.74505805969E-08  0.93827000000E+00  0.93827000000E+00 0. -1.
     999902    2    1    2    0    0  0.12849130770E-01 -0.81940668510E-02  0.18699879688E-01  0.10198068080E+01  0.10195214550E+01 0.  0.
     999903    2    3    3    0    0 -0.13200364412E-01  0.16108141278E+00 -0.31956685806E-01  0.16591931431E+00  0.19660059302E-01 0.  0.
         14    1    1    2    0    0 -0.12849130770E-01  0.81940668510E-02 -0.18699879688E-01  0.24123192025E-01  0.00000000000E+00 0. -1.
     999901    1    3    3    0    0  0.26049495182E-01 -0.16927547963E+00  0.50656565494E-01  0.85388749366E+00  0.83500000000E+00 0.  1.
        -11    1    4    4    0    0 -0.64844587332E-02  0.47397212707E-01 -0.78972951053E-03  0.47847975623E-01  0.51100000000E-03 0.  1.
         11    1    4    4    0    0 -0.67159056785E-02  0.11368420007E+00 -0.31166956295E-01  0.11807133869E+00  0.51100000000E-03 0. -1.
</event>
<event>
 8    1  0.5716970E+005  0.1043930E+01  0.7957747E-01            NaN
         13   -1    0    0    0    0  0.00000000000E+00  0.00000000000E+00  0.74505805969E-08  0.10566000000E+00  0.10566000000E+00 0. -1.
     999900   -1    0    0    0    0 -0.00000000000E+00 -0.00000000000E+00 -0.74505805969E-08  0.93827000000E+00  0.93827000000E+00 0. -1.
     999902    2    1    2    0    0 -0.18843629356E-01  0.67267956252E-04 -0.14413986909E-01  0.10202055419E+01  0.10199296534E+01 0.  0.
     999903    2    3    3    0    0  0.10117708237E+00 -0.76380242619E-02 -0.13290876656E+00  0.16830745203E+00  0.19170726863E-01 0.  0.
         14    1    1    2    0    0  0.18843629356E-01 -0.67267956252E-04  0.14413986909E-01  0.23724458074E-01  0.00000000000E+00 0. -1.
     999901    1    3    3    0    0 -0.12002071173E+00  0.77052922181E-02  0.11849477965E+00  0.85189808990E+00  0.83500000000E+00 0.  1.
        -11    1    4    4    0    0  0.43505243268E-01  0.10148622256E-02 -0.70827813087E-01  0.83129876487E-01  0.51100000000E-03 0.  1.
         11    1    4    4    0    0  0.57671839102E-01 -0.86528864875E-02 -0.62080953470E-01  0.85177575539E-01  0.51100000000E-03 0. -1.
</event>
<event>
 8    1  0.5716970E+005  0.1043930E+01  0.7957747E-01            NaN
         13   -1    0    0    0    0  0.00000000000E+00  0.00000000000E+00  0.74505805969E-08  0.10566000000E+00  0.10566000000E+00 0.  1.
     999900   -1    0    0    0    0 -0.00000000000E+00 -0.00000000000E+00 -0.74505805969E-08  0.93827000000E+00  0.93827000000E+00 0. -1.
     999902    2    1    2    0    0  0.69169305041E-02 -0.20817638689E-01  0.10418047038E-01  0.10196451547E+01  0.10193559181E+01 0.  0.
     999903    2    3    3    0    0  0.75207948844E-01  0.28016223812E-02 -0.14751265685E+00  0.16677433216E+00  0.19738522659E-01 0.  0.
         14    1    1    2    0    0 -0.69169305041E-02  0.20817638689E-01 -0.10418047038E-01  0.24284845321E-01  0.00000000000E+00 0. -1.
     999901    1    3    3    0    0 -0.68291018340E-01 -0.23619261070E-01  0.15793070389E+00  0.85287082252E+00  0.83500000000E+00 0.  1.
        -11    1    4    4    0    0  0.67166191889E-01  0.39049253807E-02 -0.11477711774E+00  0.13304357802E+00  0.51100000000E-03 0.  1.
         11    1    4    4    0    0  0.80417569551E-02 -0.11033029995E-02 -0.32735539110E-01  0.33730754132E-01  0.51100000000E-03 0. -1.
</event>
<event>
 8    1  0.5716970E+005  0.1043930E+01  0.7957747E-01            NaN
         13   -1    0    0    0    0  0.00000000000E+00  0.00000000000E+00  0.74505805969E-08  0.10566000000E+00  0.10566000000E+00 0. -1.
     999900   -1    0    0    0    0 -0.00000000000E+00 -0.00000000000E+00 -0.74505805969E-08  0.93827000000E+00  0.93827000000E+00 0. -1.
     999902    2    1    2    0    0 -0.49864395978E-02  0.20681836635E-01  0.10112162820E-01  0.10203745594E+01  0.10201026334E+01 0.  0.
     999903    2    3    3    0    0  0.80934487582E-01 -0.14225633845E+00  0.10979042350E-01  0.16529736630E+00  0.20381924009E-01 0.  0.
         14    1    1    2    0    0  0.49864395978E-02 -0.20681836635E-01 -0.10112162820E-01  0.23555440631E-01  0.00000000000E+00 0.  1.
     999901    1    3    3    0    0 -0.85920927180E-01  0.16293817508E+00 -0.86687952989E-03  0.85507719307E+00  0.83500000000E+00 0.  1.
        -11    1    4    4    0    0  0.38841676962E-01 -0.74186241421E-01  0.15379630139E-01  0.85141461284E-01  0.51100000000E-03 0.  1.
         11    1    4    4    0    0  0.42092810620E-01 -0.68070097026E-01 -0.44005877890E-02  0.80155905016E-01  0.51100000000E-03 0. -1.
</event>
<event>
 8    1  0.5716970E+005  0.1043930E+01  0.7957747E-01            NaN
         13   -1    0    0    0    0  0.00000000000E+00  0.00000000000E+00  0.74505805969E-08  0.10566000000E+00  0.10566000000E+00 0. -1.
     999900   -1    0    0    0    0 -0.00000000000E+00 -0.00000000000E+00 -0.74505805969E-08  0.93827000000E+00  0.93827000000E+00 0. -1.
     999902    2    1    2    0    0  0.37006737699E-02 -0.26304054152E-02  0.20166029932E-01  0.10232591804E+01  0.10230503739E+01 0.  0.
     999903    2    3    3    0    0  0.46598900387E-01 -0.13197225224E+00 -0.93662055335E-01  0.16958980403E+00  0.19999703594E-01 0.  0.
         14    1    1    2    0    0 -0.37006737699E-02  0.26304054152E-02 -0.20166029932E-01  0.20670819583E-01  0.00000000000E+00 0.  1.
     999901    1    3    3    0    0 -0.42898226617E-01  0.12934184682E+00  0.11382808527E+00  0.85366937639E+00  0.83500000000E+00 0.  1.
        -11    1    4    4    0    0  0.22858587945E-01 -0.40794045886E-01 -0.37123557963E-01  0.59708365405E-01  0.51100000000E-03 0. -1.
         11    1    4    4    0    0  0.23740312442E-01 -0.91178206351E-01 -0.56538497372E-01  0.10988143862E+00  0.51100000000E-03 0.  1.
</event>
<event>
 8    1  0.5716970E+005  0.1043930E+01  0.7957747E-01            NaN
         13   -1    0    0    0    0  0.00000000000E+00  0.00000000000E+00  0.74505805969E-08  0.10566000000E+00  0.10566000000E+00 0.  1.
     999900   -1    0    0    0    0 -0.00000000000E+00 -0.00000000000E+00 -0.74505805969E-08  0.93827000000E+00  0.93827000000E+00 0.  1.
     999902    2    1    2    0    0  0.49894207797E-02  0.18883598118E-01 -0.12049494493E-01  0.10209806010E+01  0.10207226424E+01 0.  0.
     999903    2    3    3    0    0  0.38150919808E-01  0.22323953306E-01 -0.16451508875E+00  0.17152060870E+00  0.20006329258E-01 0.  0.
         14    1    1    2    0    0 -0.49894207797E-02 -0.18883598118E-01  0.12049494493E-01  0.22949399015E-01  0.00000000000E+00 0.  1.
     999901    1    3    3    0    0 -0.33161499029E-01 -0.34403551877E-02  0.15246559425E+00  0.84945999228E+00  0.83500000000E+00 0. -1.
        -11    1    4    4    0    0  0.24024719731E-01  0.21975015473E-01 -0.13382712703E+00  0.13773180284E+00  0.51100000000E-03 0. -1.
         11    1    4    4    0    0  0.14126200077E-01  0.34893783252E-03 -0.30687961714E-01  0.33788805859E-01  0.51100000000E-03 0.  1.
</event>
<event>
 8    1  0.5716970E+005  0.1043930E+01  0.7957747E-01            NaN
         13   -1    0    0    0    0  0.00000000000E+00  0.00000000000E+00  0.74505805969E-08  0.10566000000E+00  0.10566000000E+00 0.  1.
     999900   -1    0    0    0    0 -0.00000000000E+00 -0.00000000000E+00 -0.74505805969E-08  0.93827000000E+00  0.93827000000E+00 0. -1.
     999902    2    1    2    0    0  0.22410292397E-01  0.58177974804E-02 -0.28926124003E-02  0.10205968652E+01  0.10203301064E+01 0.  0.
     999903    2    3    3    0    0 -0.15853450703E+00  0.42254433409E-01  0.55648036517E-02  0.16539795456E+00  0.20171496541E-01 0.  0.
         14    1    1    2    0    0 -0.22410292397E-01 -0.58177974804E-02  0.28926124003E-02  0.23333134795E-01  0.00000000000E+00 0. -1.
     999901    1    3    3    0    0  0.18094479943E+00 -0.36436635928E-01 -0.84574160520E-02  0.85519891064E+00  0.83500000000E+00 0.  1.
        -11    1    4    4    0    0 -0.55987957988E-01  0.20286004990E-01  0.10208832514E-01  0.60420648958E-01  0.51100000000E-03 0.  1.
         11    1    4    4    0    0 -0.10254654904E+00  0.21968428419E-01 -0.46440288626E-02  0.10497730561E+00  0.51100000000E-03 0. -1.
</event>
<event>
 8    1  0.5716970E+005  0.1043930E+01  0.7957747E-01            NaN
         13   -1    0    0    0    0  0.00000000000E+00  0.00000000000E+00  0.74505805969E-08  0.10566000000E+00  0.10566000000E+00 0.  1.
     999900   -1    0    0    0    0 -0.00000000000E+00 -0.00000000000E+00 -0.74505805969E-08  0.93827000000E+00  0.93827000000E+00 0.  1.
     999902    2    1    2    0    0  0.10913364824E-01 -0.16444548387E-01 -0.18861654299E-01  0.10166300603E+01  0.10162634466E+01 0.  0.
     999903    2    3    3    0    0 -0.94008176762E-01 -0.10882704050E+00  0.77515787644E-01  0.16454047228E+00  0.19596112902E-01 0.  0.
         14    1    1    2    0    0 -0.10913364824E-01  0.16444548387E-01  0.18861654299E-01  0.27299939676E-01  0.00000000000E+00 0.  1.
     999901    1    3    3    0    0  0.10492154159E+00  0.92382492117E-01 -0.96377441944E-01  0.85208958804E+00  0.83500000000E+00 0. -1.
        -11    1    4    4    0    0 -0.80084634637E-01 -0.80427413977E-01  0.61095292321E-01  0.12889923774E+00  0.51100000000E-03 0.  1.
         11    1    4    4    0    0 -0.13923542125E-01 -0.28399626526E-01  0.16420495323E-01  0.35641234543E-01  0.51100000000E-03 0. -1.
</event>
<event>
 8    1  0.5716970E+005  0.1043930E+01  0.7957747E-01            NaN
         13   -1    0    0    0    0  0.00000000000E+00  0.00000000000E+00  0.74505805969E-08  0.10566000000E+00  0.10566000000E+00 0.  1.
     999900   -1    0    0    0    0 -0.00000000000E+00 -0.00000000000E+00 -0.74505805969E-08  0.93827000000E+00  0.93827000000E+00 0. -1.
     999902    2    1    2    0    0  0.17432662120E-01 -0.28922585934E-02  0.16847804821E-01  0.10195146074E+01  0.10192222149E+01 0.  0.
     999903    2    3    3    0    0  0.98803797837E-01  0.23384774125E-01 -0.13148822404E+00  0.16714126101E+00  0.18385046738E-01 0.  0.
         14    1    1    2    0    0 -0.17432662120E-01  0.28922585934E-02 -0.16847804821E-01  0.24415392597E-01  0.00000000000E+00 0. -1.
     999901    1    3    3    0    0 -0.81371135716E-01 -0.26277032718E-01  0.14833602886E+00  0.85237334639E+00  0.83500000000E+00 0.  1.
        -11    1    4    4    0    0  0.75866804159E-01  0.25740212683E-01 -0.10278862187E+00  0.13032303108E+00  0.51100000000E-03 0.  1.
         11    1    4    4    0    0  0.22936993678E-01 -0.23554385587E-02 -0.28699602175E-01  0.36818229938E-01  0.51100000000E-03 0. -1.
</event>
<event>
 8    1  0.5716970E+005  0.1043930E+01  0.7957747E-01            NaN
         13   -1    0    0    0    0  0.00000000000E+00  0.00000000000E+00  0.74505805969E-08  0.10566000000E+00  0.10566000000E+00 0.  1.
     999900   -1    0    0    0    0 -0.00000000000E+00 -0.00000000000E+00 -0.74505805969E-08  0.93827000000E+00  0.93827000000E+00 0. -1.
     999902    2    1    2    0    0  0.92420993155E-02 -0.18277592797E-01 -0.13475143902E-01  0.10194133464E+01  0.10191184939E+01 0.  0.
     999903    2    3    3    0    0  0.15967456715E+00  0.14025655209E-01 -0.51549868424E-01  0.16950269711E+00  0.19521500812E-01 0.  0.
         14    1    1    2    0    0 -0.92420993155E-02  0.18277592797E-01  0.13475143902E-01  0.24516653553E-01  0.00000000000E+00 0. -1.
     999901    1    3    3    0    0 -0.15043246784E+00 -0.32303248006E-01  0.38074724521E-01  0.84991064934E+00  0.83500000000E+00 0. -1.
        -11    1    4    4    0    0  0.38243922002E-01  0.11527327015E-01 -0.10620891767E-01  0.41334504970E-01  0.51100000000E-03 0.  1.
         11    1    4    4    0    0  0.12143064515E+00  0.24983281939E-02 -0.40928976657E-01  0.12816819214E+00  0.51100000000E-03 0. -1.
</event>
<event>
 8    1  0.5716970E+005  0.1043930E+01  0.7957747E-01            NaN
         13   -1    0    0    0    0  0.00000000000E+00  0.00000000000E+00  0.74505805969E-08  0.10566000000E+00  0.10566000000E+00 0. -1.
     999900   -1    0    0    0    0 -0.00000000000E+00 -0.00000000000E+00 -0.74505805969E-08  0.93827000000E+00  0.93827000000E+00 0. -1.
     999902    2    1    2    0    0  0.11138162994E-01 -0.22089341832E-01  0.12282205753E-01  0.10163102557E+01  0.10159348825E+01 0.  0.
     999903    2    3    3    0    0 -0.42493740721E-01 -0.63257064425E-01  0.14798390910E+00  0.16765772681E+00  0.20067431482E-01 0.  0.
         14    1    1    2    0    0 -0.11138162994E-01  0.22089341832E-01 -0.12282205753E-01  0.27619744307E-01  0.00000000000E+00 0.  1.
     999901    1    3    3    0    0  0.53631903714E-01  0.41167722594E-01 -0.13570170335E+00  0.84865252888E+00  0.83500000000E+00 0. -1.
        -11    1    4    4    0    0 -0.79513323671E-02 -0.13576276810E-01  0.15908844745E-01  0.22380604115E-01  0.51100000000E-03 0.  1.
         11    1    4    4    0    0 -0.34542408354E-01 -0.49680787615E-01  0.13207506436E+00  0.14527712270E+00  0.51100000000E-03 0. -1.
</event>
<event>
 8    1  0.5716970E+005  0.1043930E+01  0.7957747E-01            NaN
         13   -1    0    0    0    0  0.00000000000E+00  0.00000000000E+00  0.74505805969E-08  0.10566000000E+00  0.10566000000E+00 0. -1.
     999900   -1    0    0    0    0 -0.00000000000E+00 -0.00000000000E+00 -0.74505805969E-08  0.93827000000E+00  0.93827000000E+00 0.  1.
     999902    2    1    2    0    0  0.15568144004E-01  0.12496707782E-01  0.11438505879E-01  0.10209218660E+01  0.10206625702E+01 0.  0.
     999903    2    3    3    0    0  0.66535414138E-01  0.13706127726E+00 -0.75717936649E-01  0.17066588098E+00  0.13449235766E-01 0.  0.
         14    1    1    2    0    0 -0.15568144004E-01 -0.12496707782E-01 -0.11438505879E-01  0.23008133993E-01  0.00000000000E+00 0.  1.
     999901    1    3    3    0    0 -0.50967270134E-01 -0.12456456948E+00  0.87156442528E-01  0.85025598502E+00  0.83500000000E+00 0. -1.
        -11    1    4    4    0    0  0.29547114635E-01  0.74830424730E-01 -0.42937637686E-01  0.91194990540E-01  0.51100000000E-03 0. -1.
         11    1    4    4    0    0  0.36988299502E-01  0.62230852531E-01 -0.32780298963E-01  0.79470890444E-01  0.51100000000E-03 0.  1.
</event>
<event>
 8    1  0.5716970E+005  0.1043930E+01  0.7957747E-01            NaN
         13   -1    0    0    0    0  0.00000000000E+00  0.00000000000E+00  0.74505805969E-08  0.10566000000E+00  0.10566000000E+00 0. -1.
     999900   -1    0    0    0    0 -0.00000000000E+00 -0.00000000000E+00 -0.74505805969E-08  0.93827000000E+00  0.93827000000E+00 0.  1.
     999902    2    1    2    0    0 -0.32944018803E-02 -0.22186523752E-01 -0.82185244386E-02  0.10200419473E+01  0.10197621954E+01 0.  0.
     999903    2    3    3    0    0 -0.11254279981E+00 -0.12584557966E+00 -0.21270682213E-01  0.17146916243E+00  0.21124394322E-01 0.  0.
         14    1    1    2    0    0  0.32944018803E-02  0.22186523752E-01  0.82185244386E-02  0.23888052744E-01  0.00000000000E+00 0. -1.
     999901    1    3    3    0    0  0.10924839793E+00  0.10365905591E+00  0.13052157775E-01  0.84857278482E+00  0.83500000000E+00 0.  1.
        -11    1    4    4    0    0 -0.21548329336E-01 -0.35687812856E-01 -0.10024366684E-01  0.42880059842E-01  0.51100000000E-03 0. -1.
         11    1    4    4    0    0 -0.90994470470E-01 -0.90157766803E-01 -0.11246315529E-01  0.12858910259E+00  0.51100000000E-03 0.  1.
</event>
<event>
 8    1  0.5716970E+005  0.1043930E+01  0.7957747E-01            NaN
         13   -1    0    0    0    0  0.00000000000E+00  0.00000000000E+00  0.74505805969E-08  0.10566000000E+00  0.10566000000E+00 0. -1.
     999900   -1    0    0    0    0 -0.00000000000E+00 -0.00000000000E+00 -0.74505805969E-08  0.93827000000E+00  0.93827000000E+00 0.  1.
     999902    2    1    2    0    0 -0.99688997465E-02 -0.89652869350E-02  0.13269443735E-01  0.10250664513E+01  0.10248928706E+01 0.  0.
     999903    2    3    3    0    0 -0.89112092039E-01  0.14125824745E+00  0.38267957352E-01  0.17261077455E+00  0.20861100430E-01 0.  0.
         14    1    1    2    0    0  0.99688997465E-02  0.89652869350E-02 -0.13269443735E-01  0.18863548686E-01  0.00000000000E+00 0.  1.
     999901    1    3    3    0    0  0.79143192293E-01 -0.15022353438E+00 -0.24998513617E-01  0.85245567677E+00  0.83500000000E+00 0.  1.
        -11    1    4    4    0    0 -0.10783054594E-01  0.32614812582E-01  0.66532648927E-02  0.34993246789E-01  0.51100000000E-03 0.  1.
         11    1    4    4    0    0 -0.78329037446E-01  0.10864343486E+00  0.31614692460E-01  0.13761752776E+00  0.51100000000E-03 0. -1.
</event>
<event>
 8    1  0.5716970E+005  0.1043930E+01  0.7957747E-01            NaN
         13   -1    0    0    0    0  0.00000000000E+00  0.00000000000E+00  0.74505805969E-08  0.10566000000E+00  0.10566000000E+00 0.  1.
     999900   -1    0    0    0    0 -0.00000000000E+00 -0.00000000000E+00 -0.74505805969E-08  0.93827000000E+00  0.93827000000E+00 0.  1.
     999902    2    1    2    0    0  0.20662782520E-01  0.41719379974E-02  0.10878802157E-01  0.10202086176E+01  0.10199328014E+01 0.  0.
     999903    2    3    3    0    0  0.27502841249E-01 -0.14035777196E+00  0.88153751146E-01  0.16924913486E+00  0.20432214351E-01 0.  0.
         14    1    1    2    0    0 -0.20662782520E-01 -0.41719379974E-02 -0.10878802157E-01  0.23721382433E-01  0.00000000000E+00 0. -1.
     999901    1    3    3    0    0 -0.68400587290E-02  0.14452970996E+00 -0.77274948989E-01  0.85095948271E+00  0.83500000000E+00 0.  1.
        -11    1    4    4    0    0  0.27054318506E-01 -0.91391097964E-01  0.62356462330E-01  0.11389845676E+00  0.51100000000E-03 0. -1.
         11    1    4    4    0    0  0.44852274360E-03 -0.48966673998E-01  0.25797288816E-01  0.55350678102E-01  0.51100000000E-03 0.  1.
</event>
<event>
 8    1  0.5716970E+005  0.1043930E+01  0.7957747E-01            NaN
         13   -1    0    0    0    0  0.00000000000E+00  0.00000000000E+00  0.74505805969E-08  0.10566000000E+00  0.10566000000E+00 0. -1.
     999900   -1    0    0    0    0 -0.00000000000E+00 -0.00000000000E+00 -0.74505805969E-08  0.93827000000E+00  0.93827000000E+00 0. -1.
     999902    2    1    2    0    0 -0.20775870723E-02 -0.78852332029E-02  0.22669139422E-01  0.10198388574E+01  0.10195542712E+01 0.  0.
     999903    2    3    3    0    0  0.33624878648E-01  0.13965910790E+00 -0.77520924813E-01  0.16525881571E+00  0.25800843068E-01 0.  0.
         14    1    1    2    0    0  0.20775870723E-02  0.78852332029E-02 -0.22669139422E-01  0.24091142622E-01  0.00000000000E+00 0.  1.
     999901    1    3    3    0    0 -0.35702465720E-01 -0.14754434110E+00  0.10019006424E+00  0.85458004167E+00  0.83500000000E+00 0.  1.
        -11    1    4    4    0    0  0.18938959261E-01  0.10979243468E+00 -0.50226588124E-01  0.12221306873E+00  0.51100000000E-03 0. -1.
         11    1    4    4    0    0  0.14685919387E-01  0.29866673211E-01 -0.27294336689E-01  0.43045746982E-01  0.51100000000E-03 0.  1.
</event>
<event>
 8    1  0.5716970E+005  0.1043930E+01  0.7957747E-01            NaN
         13   -1    0    0    0    0  0.00000000000E+00  0.00000000000E+00  0.74505805969E-08  0.10566000000E+00  0.10566000000E+00 0.  1.
     999900   -1    0    0    0    0 -0.00000000000E+00 -0.00000000000E+00 -0.74505805969E-08  0.93827000000E+00  0.93827000000E+00 0.  1.
     999902    2    1    2    0    0  0.26859284536E-01  0.11001744252E-01  0.11963536553E-01  0.10125359600E+01  0.10120491512E+01 0.  0.
     999903    2    3    3    0    0 -0.43352912501E-01 -0.56989544945E-01 -0.13962311129E+00  0.15827834085E+00  0.20739737724E-01 0.  0.
         14    1    1    2    0    0 -0.26859284536E-01 -0.11001744252E-01 -0.11963536553E-01  0.31394040027E-01  0.00000000000E+00 0. -1.
     999901    1    3    3    0    0  0.70212197037E-01  0.67991289197E-01  0.15158664785E+00  0.85425761912E+00  0.83500000000E+00 0. -1.
        -11    1    4    4    0    0 -0.11299033274E-01 -0.20931682560E-01 -0.66907726755E-01  0.71012030729E-01  0.51100000000E-03 0.  1.
         11    1    4    4    0    0 -0.32053879227E-01 -0.36057862385E-01 -0.72715384538E-01  0.87266310125E-01  0.51100000000E-03 0. -1.
</event>
<event>
 8    1  0.5716970E+005  0.1043930E+01  0.7957747E-01            NaN
         13   -1    0    0    0    0  0.00000000000E+00  0.00000000000E+00  0.74505805969E-08  0.10566000000E+00  0.10566000000E+00 0.  1.
     999900   -1    0    0    0    0 -0.00000000000E+00 -0.00000000000E+00 -0.74505805969E-08  0.93827000000E+00  0.93827000000E+00 0. -1.
     999902    2    1    2    0    0 -0.21662072852E-01  0.16767454643E-01  0.31236303748E-02  0.10163591821E+01  0.10159851559E+01 0.  0.
     999903    2    3    3    0    0  0.14172441932E+00  0.40024186162E-01 -0.65331517037E-01  0.16245805863E+00  0.20896583114E-01 0.  0.
         14    1    1    2    0    0  0.21662072852E-01 -0.16767454643E-01 -0.31236303748E-02  0.27570817945E-01  0.00000000000E+00 0.  1.
     999901    1    3    3    0    0 -0.16338649217E+00 -0.23256731519E-01  0.68455147412E-01  0.85390112343E+00  0.83500000000E+00 0.  1.
        -11    1    4    4    0    0  0.95668899772E-01  0.32511236295E-01 -0.53416463501E-01  0.11429391306E+00  0.51100000000E-03 0.  1.
         11    1    4    4    0    0  0.46055519545E-01  0.75129498673E-02 -0.11915053536E-01  0.48164145565E-01  0.51100000000E-03 0. -1.
</event>
<event>
 8    1  0.5716970E+005  0.1043930E+01  0.7957747E-01            NaN
         13   -1    0    0    0    0  0.00000000000E+00  0.00000000000E+00  0.74505805969E-08  0.10566000000E+00  0.10566000000E+00 0. -1.
     999900   -1    0    0    0    0 -0.00000000000E+00 -0.00000000000E+00 -0.74505805969E-08  0.93827000000E+00  0.93827000000E+00 0.  1.
     999902    2    1    2    0    0  0.12343372833E-01  0.32038496654E-02 -0.19930303508E-01  0.10202690511E+01  0.10199946549E+01 0.  0.
     999903    2    3    3    0    0  0.22030268194E-01 -0.16516961330E+00 -0.14553962816E-01  0.16839032497E+00  0.19420345862E-01 0.  0.
         14    1    1    2    0    0 -0.12343372833E-01 -0.32038496654E-02  0.19930303508E-01  0.23660948914E-01  0.00000000000E+00 0. -1.
     999901    1    3    3    0    0 -0.96868953601E-02  0.16837346297E+00 -0.53763406927E-02  0.85187872612E+00  0.83500000000E+00 0.  1.
        -11    1    4    4    0    0  0.21077092790E-01 -0.12439688134E+00 -0.18042271674E-01  0.12745435503E+00  0.51100000000E-03 0.  1.
         11    1    4    4    0    0  0.95317540372E-03 -0.40772731965E-01  0.34883088586E-02  0.40935969940E-01  0.51100000000E-03 0. -1.
</event>
<event>
 8    1  0.5716970E+005  0.1043930E+01  0.7957747E-01            NaN
         13   -1    0    0    0    0  0.00000000000E+00  0.00000000000E+00  0.74505805969E-08  0.10566000000E+00  0.10566000000E+00 0.  1.
     999900   -1    0    0    0    0 -0.00000000000E+00 -0.00000000000E+00 -0.74505805969E-08  0.93827000000E+00  0.93827000000E+00 0.  1.
     999902    2    1    2    0    0 -0.21046460416E-01  0.11968882128E-01  0.35879366940E-02  0.10194538703E+01  0.10191600035E+01 0.  0.
     999903    2    3    3    0    0  0.81802863473E-01 -0.98959698773E-01 -0.10089611846E+00  0.16445384032E+00  0.19501497944E-01 0.  0.
         14    1    1    2    0    0  0.21046460416E-01 -0.11968882128E-01 -0.35879366940E-02  0.24476129702E-01  0.00000000000E+00 0. -1.
     999901    1    3    3    0    0 -0.10284932389E+00  0.11092858090E+00  0.10448405515E+00  0.85500002998E+00  0.83500000000E+00 0. -1.
        -11    1    4    4    0    0  0.58843681995E-01 -0.58147328365E-01 -0.69794526629E-01  0.10823690579E+00  0.51100000000E-03 0. -1.
         11    1    4    4    0    0  0.22959181478E-01 -0.40812370408E-01 -0.31101591828E-01  0.56216934528E-01  0.51100000000E-03 0.  1.
</event>
<event>
 8    1  0.5716970E+005  0.1043930E+01  0.7957747E-01            NaN
         13   -1    0    0    0    0  0.00000000000E+00  0.00000000000E+00  0.74505805969E-08  0.10566000000E+00  0.10566000000E+00 0. -1.
     999900   -1    0    0    0    0 -0.00000000000E+00 -0.00000000000E+00 -0.74505805969E-08  0.93827000000E+00  0.93827000000E+00 0.  1.
     999902    2    1    2    0    0  0.95940933113E-02  0.22918838683E-01 -0.14938222007E-02  0.10190392126E+01  0.10187351793E+01 0.  0.
     999903    2    3    3    0    0  0.86002924511E-01  0.56308359925E-01 -0.13307523014E+00  0.16963245695E+00  0.22338736562E-01 0.  0.
         14    1    1    2    0    0 -0.95940933113E-02 -0.22918838683E-01  0.14938222007E-02  0.24890787408E-01  0.00000000000E+00 0. -1.
     999901    1    3    3    0    0 -0.76408831200E-01 -0.33389521242E-01  0.13158140794E+00  0.84940675564E+00  0.83500000000E+00 0. -1.
        -11    1    4    4    0    0  0.46461557512E-01  0.22516874321E-01 -0.80791864553E-01  0.95881554298E-01  0.51100000000E-03 0. -1.
         11    1    4    4    0    0  0.39541366999E-01  0.33791485604E-01 -0.52283365590E-01  0.73750902652E-01  0.51100000000E-03 0.  1.
</event>
<event>
 8    1  0.5716970E+005  0.1043930E+01  0.7957747E-01            NaN
         13   -1    0    0    0    0  0.00000000000E+00  0.00000000000E+00  0.74505805969E-08  0.10566000000E+00  0.10566000000E+00 0. -1.
     999900   -1    0    0    0    0 -0.00000000000E+00 -0.00000000000E+00 -0.74505805969E-08  0.93827000000E+00  0.93827000000E+00 0. -1.
     999902    2    1    2    0    0  0.12208268540E-01 -0.38706731353E-03  0.18200865675E-01  0.10220105303E+01  0.10217754454E+01 0.  0.
     999903    2    3    3    0    0  0.68769073076E-01 -0.76595614632E-02  0.15807087792E+00  0.17345844931E+00  0.17708102534E-01 0.  0.
         14    1    1    2    0    0 -0.12208268540E-01  0.38706731353E-03 -0.18200865675E-01  0.21919469728E-01  0.00000000000E+00 0.  1.
     999901    1    3    3    0    0 -0.56560804536E-01  0.72724941497E-02 -0.13987001225E+00  0.84855208096E+00  0.83500000000E+00 0. -1.
        -11    1    4    4    0    0  0.19495228781E-01 -0.91861318803E-02  0.58630226955E-01  0.62467700438E-01  0.51100000000E-03 0.  1.
         11    1    4    4    0    0  0.49273844295E-01  0.15265704171E-02  0.99440650968E-01  0.11099074887E+00  0.51100000000E-03 0. -1.
</event>
<event>
 8    1  0.5716970E+005  0.1043930E+01  0.7957747E-01            NaN
         13   -1    0    0    0    0  0.00000000000E+00  0.00000000000E+00  0.74505805969E-08  0.10566000000E+00  0.10566000000E+00 0.  1.
     999900   -1    0    0    0    0 -0.00000000000E+00 -0.00000000000E+00 -0.74505805969E-08  0.93827000000E+00  0.93827000000E+00 0.  1.
     999902    2    1    2    0    0  0.23050916304E-01 -0.13914863057E-02  0.44960742547E-02  0.10204035115E+01  0.10201322614E+01 0.  0.
     999903    2    3    3    0    0  0.88464036654E-02  0.77712691926E-01  0.14847967191E+00  0.16927748349E+00  0.22161500473E-01 0.  0.
         14    1    1    2    0    0 -0.23050916304E-01  0.13914863057E-02 -0.44960742547E-02  0.23526488482E-01  0.00000000000E+00 0.  1.
     999901    1    3    3    0    0  0.14204512639E-01 -0.79104178232E-01 -0.14398359765E+00  0.85112602803E+00  0.83500000000E+00 0.  1.
        -11    1    4    4    0    0  0.12880384373E-01  0.74353203972E-01  0.13290902527E+00  0.15283773540E+00  0.51100000000E-03 0. -1.
         11    1    4    4    0    0 -0.40339807078E-02  0.33594879543E-02  0.15570646632E-01  0.16439748088E-01  0.51100000000E-03 0.  1.
</event>
<event>
 8    1  0.5716970E+005  0.1043930E+01  0.7957747E-01            NaN
         13   -1    0    0    0    0  0.00000000000E+00  0.00000000000E+00  0.74505805969E-08  0.10566000000E+00  0.10566000000E+00 0.  1.
     999900   -1    0    0    0    0 -0.00000000000E+00 -0.00000000000E+00 -0.74505805969E-08  0.93827000000E+00  0.93827000000E+00 0. -1.
     999902    2    1    2    0    0 -0.10388458757E-02  0.23662404409E-01 -0.72143760517E-02  0.10191704401E+01  0.10188696434E+01 0.  0.
     999903    2    3    3    0    0  0.12839068821E+00  0.46147560051E-01 -0.97807545622E-01  0.16905885399E+00  0.20020339970E-01 0.  0.
         14    1    1    2    0    0  0.10388458757E-02 -0.23662404409E-01  0.72143760517E-02  0.24759559870E-01  0.00000000000E+00 0. -1.
     999901    1    3    3    0    0 -0.12942953409E+00 -0.22485155642E-01  0.90593169570E-01  0.85011158614E+00  0.83500000000E+00 0. -1.
        -11    1    4    4    0    0  0.79727588363E-01  0.19554154406E-01 -0.64176131415E-01  0.10420024119E+00  0.51100000000E-03 0.  1.
         11    1    4    4    0    0  0.48663099851E-01  0.26593405645E-01 -0.33631414207E-01  0.64858612794E-01  0.51100000000E-03 0. -1.
</event>
<event>
 8    1  0.5716970E+005  0.1043930E+01  0.7957747E-01            NaN
         13   -1    0    0    0    0  0.00000000000E+00  0.00000000000E+00  0.74505805969E-08  0.10566000000E+00  0.10566000000E+00 0.  1.
     999900   -1    0    0    0    0 -0.00000000000E+00 -0.00000000000E+00 -0.74505805969E-08  0.93827000000E+00  0.93827000000E+00 0. -1.
     999902    2    1    2    0    0  0.91074341019E-02  0.13547490087E-01  0.15139107914E-01  0.10216662979E+01  0.10214236887E+01 0.  0.
     999903    2    3    3    0    0 -0.13587214292E+00  0.54962646526E-01 -0.79495781294E-01  0.16790107536E+00  0.19724607155E-01 0.  0.
         14    1    1    2    0    0 -0.91074341019E-02 -0.13547490087E-01 -0.15139107914E-01  0.22263702118E-01  0.00000000000E+00 0. -1.
     999901    1    3    3    0    0  0.14497957702E+00 -0.41415156438E-01  0.94634889208E-01  0.85376522252E+00  0.83500000000E+00 0.  1.
        -11    1    4    4    0    0 -0.79609590674E-01  0.25698712845E-01 -0.53863194912E-01  0.99496812293E-01  0.51100000000E-03 0.  1.
         11    1    4    4    0    0 -0.56262552247E-01  0.29263933680E-01 -0.25632586382E-01  0.68404263065E-01  0.51100000000E-03 0. -1.
</event>
<event>
 8    1  0.5716970E+005  0.1043930E+01  0.7957747E-01            NaN
         13   -1    0    0    0    0  0.00000000000E+00  0.00000000000E+00  0.74505805969E-08  0.10566000000E+00  0.10566000000E+00 0. -1.
     999900   -1    0    0    0    0 -0.00000000000E+00 -0.00000000000E+00 -0.74505805969E-08  0.93827000000E+00  0.93827000000E+00 0. -1.
     999902    2    1    2    0    0  0.82221065468E-02  0.14871574835E-01 -0.20865559105E-01  0.10170201815E+01  0.10166641094E+01 0.  0.
     999903    2    3    3    0    0  0.27614644733E-01 -0.11920883873E+00 -0.11079164674E+00  0.16633497001E+00  0.20474799804E-01 0.  0.
         14    1    1    2    0    0 -0.82221065468E-02 -0.14871574835E-01  0.20865559105E-01  0.26909818485E-01  0.00000000000E+00 0. -1.
     999901    1    3    3    0    0 -0.19392538186E-01  0.13408041356E+00  0.89926087630E-01  0.85068521151E+00  0.83500000000E+00 0.  1.
        -11    1    4    4    0    0  0.14299112449E-01 -0.65695815921E-01 -0.47130481342E-01  0.82109367546E-01  0.51100000000E-03 0. -1.
         11    1    4    4    0    0  0.13315532285E-01 -0.53513022806E-01 -0.63661165394E-01  0.84225602463E-01  0.51100000000E-03 0.  1.
</event>
<event>
 8    1  0.5716970E+005  0.1043930E+01  0.7957747E-01            NaN
         13   -1    0    0    0    0  0.00000000000E+00  0.00000000000E+00  0.74505805969E-08  0.10566000000E+00  0.10566000000E+00 0.  1.
     999900   -1    0    0    0    0 -0.00000000000E+00 -0.00000000000E+00 -0.74505805969E-08  0.93827000000E+00  0.93827000000E+00 0.  1.
     999902    2    1    2    0    0 -0.13231654384E-01 -0.98128400652E-02  0.12568650794E-01  0.10232094911E+01  0.10229996692E+01 0.  0.
     999903    2    3    3    0    0 -0.10165298113E+00  0.71690821040E-01 -0.11430085988E+00  0.17010806067E+00  0.19979072649E-01 0.  0.
         14    1    1    2    0    0  0.13231654384E-01  0.98128400652E-02 -0.12568650794E-01  0.20720508938E-01  0.00000000000E+00 0.  1.
     999901    1    3    3    0    0  0.88421326742E-01 -0.81503661105E-01  0.12686951067E+00  0.85310143039E+00  0.83500000000E+00 0. -1.
        -11    1    4    4    0    0 -0.30573999290E-01  0.32904384608E-01 -0.37713781300E-01  0.58652010878E-01  0.51100000000E-03 0.  1.
         11    1    4    4    0    0 -0.71078981836E-01  0.38786436432E-01 -0.76587078576E-01  0.11145604979E+00  0.51100000000E-03 0. -1.
</event>
<event>
 8    1  0.5716970E+005  0.1043930E+01  0.7957747E-01            NaN
         13   -1    0    0    0    0  0.00000000000E+00  0.00000000000E+00  0.74505805969E-08  0.10566000000E+00  0.10566000000E+00 0. -1.
     999900   -1    0    0    0    0 -0.00000000000E+00 -0.00000000000E+00 -0.74505805969E-08  0.93827000000E+00  0.93827000000E+00 0. -1.
     999902    2    1    2    0    0  0.10243729777E-01  0.12384873130E-01  0.18267108934E-01  0.10195988194E+01  0.10193084646E+01 0.  0.
     999903    2    3    3    0    0 -0.41053285908E-01 -0.13571301954E+00 -0.80679183149E-01  0.16427447250E+00  0.19328108105E-01 0.  0.
         14    1    1    2    0    0 -0.10243729777E-01 -0.12384873130E-01 -0.18267108934E-01  0.24331180633E-01  0.00000000000E+00 0.  1.
     999901    1    3    3    0    0  0.51297015684E-01  0.14809789267E+00  0.98946292083E-01  0.85532434687E+00  0.83500000000E+00 0.  1.
        -11    1    4    4    0    0 -0.24132860511E-01 -0.75802221021E-01 -0.34254008574E-01  0.86613912812E-01  0.51100000000E-03 0. -1.
         11    1    4    4    0    0 -0.16920425397E-01 -0.59910798523E-01 -0.46425174575E-01  0.77660559685E-01  0.51100000000E-03 0.  1.
</event>
<event>
 8    1  0.5716970E+005  0.1043930E+01  0.7957747E-01            NaN
         13   -1    0    0    0    0  0.00000000000E+00  0.00000000000E+00  0.74505805969E-08  0.10566000000E+00  0.10566000000E+00 0. -1.
     999900   -1    0    0    0    0 -0.00000000000E+00 -0.00000000000E+00 -0.74505805969E-08  0.93827000000E+00  0.93827000000E+00 0. -1.
     999902    2    1    2    0    0 -0.33246070652E-02 -0.21993300350E-01  0.50755066762E-02  0.10211151136E+01  0.10208602041E+01 0.  0.
     999903    2    3    3    0    0  0.93570415302E-01  0.52383390172E-01 -0.12667696078E+00  0.16700490403E+00  0.18551102137E-01 0.  0.
         14    1    1    2    0    0  0.33246070652E-02  0.21993300350E-01 -0.50755066762E-02  0.22814886378E-01  0.00000000000E+00 0. -1.
     999901    1    3    3    0    0 -0.96895022367E-01 -0.74376690522E-01  0.13175246746E+00  0.85411020959E+00  0.83500000000E+00 0.  1.
        -11    1    4    4    0    0  0.39881042246E-01  0.12117569213E-01 -0.46610331068E-01  0.62530929127E-01  0.51100000000E-03 0. -1.
         11    1    4    4    0    0  0.53689373056E-01  0.40265820959E-01 -0.80066629713E-01  0.10447397490E+00  0.51100000000E-03 0.  1.
</event>
<event>
 8    1  0.5716970E+005  0.1043930E+01  0.7957747E-01            NaN
         13   -1    0    0    0    0  0.00000000000E+00  0.00000000000E+00  0.74505805969E-08  0.10566000000E+00  0.10566000000E+00 0. -1.
     999900   -1    0    0    0    0 -0.00000000000E+00 -0.00000000000E+00 -0.74505805969E-08  0.93827000000E+00  0.93827000000E+00 0.  1.
     999902    2    1    2    0    0  0.15608110254E-01 -0.11115067827E-01  0.15790157575E-01  0.10191008455E+01  0.10187983345E+01 0.  0.
     999903    2    3    3    0    0 -0.14708454889E+00  0.37808822832E-01 -0.57928143415E-01  0.16381034727E+00  0.20366356227E-01 0.  0.
         14    1    1    2    0    0 -0.15608110254E-01  0.11115067827E-01 -0.15790157575E-01  0.24829154531E-01  0.00000000000E+00 0. -1.
     999901    1    3    3    0    0  0.16269265914E+00 -0.48923890658E-01  0.73718300989E-01  0.85529049820E+00  0.83500000000E+00 0. -1.
        -11    1    4    4    0    0 -0.59205135623E-01  0.24458529790E-01 -0.29130984858E-01  0.70372886565E-01  0.51100000000E-03 0.  1.
         11    1    4    4    0    0 -0.87879413266E-01  0.13350293041E-01 -0.28797158557E-01  0.93437460701E-01  0.51100000000E-03 0. -1.
</event>
<event>
 8    1  0.6543538E+005  0.1043930E+01  0.7957747E-01            NaN
         13   -1    0    0    0    0  0.00000000000E+00  0.00000000000E+00  0.74505805969E-08  0.10566000000E+00  0.10566000000E+00 0. -1.
     999900   -1    0    0    0    0 -0.00000000000E+00 -0.00000000000E+00 -0.74505805969E-08  0.93827000000E+00  0.93827000000E+00 0.  1.
     999902    2    1    2    0    0  0.90754727531E-02 -0.20880647940E-01 -0.61782999819E-02  0.10203389624E+01  0.10200662043E+01 0.  0.
     999903    2    3    3    0    0  0.19555521074E-01  0.15610292257E+00 -0.48081761370E-01  0.16569639635E+00  0.19821683709E-01 0.  0.
         14    1    1    2    0    0 -0.90754727531E-02  0.20880647940E-01  0.61782999819E-02  0.23591037594E-01  0.00000000000E+00 0. -1.
     999901    1    3    3    0    0 -0.10480048321E-01 -0.17698357051E+00  0.41903461388E-01  0.85464256606E+00  0.83500000000E+00 0. -1.
        -11    1    4    4    0    0 -0.20261598564E-02  0.60713610853E-01 -0.19556757414E-01  0.63819869540E-01  0.51100000000E-03 0. -1.
         11    1    4    4    0    0  0.21581680930E-01  0.95389311721E-01 -0.28525003956E-01  0.10187652681E+00  0.51100000000E-03 0.  1.
</event>
<event>
 8    1  0.5716970E+005  0.1043930E+01  0.7957747E-01            NaN
         13   -1    0    0    0    0  0.00000000000E+00  0.00000000000E+00  0.74505805969E-08  0.10566000000E+00  0.10566000000E+00 0. -1.
     999900   -1    0    0    0    0 -0.00000000000E+00 -0.00000000000E+00 -0.74505805969E-08  0.93827000000E+00  0.93827000000E+00 0. -1.
     999902    2    1    2    0    0  0.10793436764E-01 -0.12334342216E-01 -0.17307479126E-01  0.10200934082E+01  0.10198148745E+01 0.  0.
     999903    2    3    3    0    0  0.47961994081E-01  0.99135751256E-01 -0.12788631092E+00  0.16964660714E+00  0.17228254068E-01 0.  0.
         14    1    1    2    0    0 -0.10793436764E-01  0.12334342216E-01  0.17307479126E-01  0.23836591803E-01  0.00000000000E+00 0. -1.
     999901    1    3    3    0    0 -0.37168557316E-01 -0.11147009347E+00  0.11057883180E+00  0.85044680106E+00  0.83500000000E+00 0.  1.
        -11    1    4    4    0    0  0.38938216085E-01  0.76556006532E-01 -0.10944639504E+00  0.13912505639E+00  0.51100000000E-03 0.  1.
         11    1    4    4    0    0  0.90237779957E-02  0.22579744724E-01 -0.18439915889E-01  0.30521550749E-01  0.51100000000E-03 0. -1.
</event>
<event>
 8    1  0.5716970E+005  0.1043930E+01  0.7957747E-01            NaN
         13   -1    0    0    0    0  0.00000000000E+00  0.00000000000E+00  0.74505805969E-08  0.10566000000E+00  0.10566000000E+00 0.  1.
     999900   -1    0    0    0    0 -0.00000000000E+00 -0.00000000000E+00 -0.74505805969E-08  0.93827000000E+00  0.93827000000E+00 0. -1.
     999902    2    1    2    0    0  0.68866873081E-02  0.16878931232E-01  0.14910118786E-01  0.10203792798E+01  0.10201074640E+01 0.  0.
     999903    2    3    3    0    0 -0.11443182988E+00  0.67907518714E-01 -0.99690820686E-01  0.16733738473E+00  0.18906766267E-01 0.  0.
         14    1    1    2    0    0 -0.68866873081E-02 -0.16878931232E-01 -0.14910118786E-01  0.23550720240E-01  0.00000000000E+00 0. -1.
     999901    1    3    3    0    0  0.12131851719E+00 -0.51028587481E-01  0.11460093947E+00  0.85304189503E+00  0.83500000000E+00 0. -1.
        -11    1    4    4    0    0 -0.10060924809E+00  0.53171135333E-01 -0.89041722849E-01  0.14449249103E+00  0.51100000000E-03 0.  1.
         11    1    4    4    0    0 -0.13822581791E-01  0.14736383381E-01 -0.10649097836E-01  0.22844893702E-01  0.51100000000E-03 0. -1.
</event>
<event>
 8    1  0.5716970E+005  0.1043930E+01  0.7957747E-01            NaN
         13   -1    0    0    0    0  0.00000000000E+00  0.00000000000E+00  0.74505805969E-08  0.10566000000E+00  0.10566000000E+00 0. -1.
     999900   -1    0    0    0    0 -0.00000000000E+00 -0.00000000000E+00 -0.74505805969E-08  0.93827000000E+00  0.93827000000E+00 0. -1.
     999902    2    1    2    0    0  0.16337547138E-01  0.42610046832E-02 -0.16577967572E-01  0.10202677808E+01  0.10199933549E+01 0.  0.
     999903    2    3    3    0    0  0.16194474110E-03  0.16018451704E+00 -0.53700945595E-01  0.16986969327E+00  0.17686588386E-01 0.  0.
         14    1    1    2    0    0 -0.16337547138E-01 -0.42610046832E-02  0.16577967572E-01  0.23662219173E-01  0.00000000000E+00 0. -1.
     999901    1    3    3    0    0  0.16175602397E-01 -0.15592351236E+00  0.37122978024E-01  0.85039808755E+00  0.83500000000E+00 0.  1.
        -11    1    4    4    0    0  0.45333235991E-03  0.11450580024E+00 -0.46652282178E-01  0.12364659458E+00  0.51100000000E-03 0.  1.
         11    1    4    4    0    0 -0.29138761881E-03  0.45678716802E-01 -0.70486634174E-02  0.46223098689E-01  0.51100000000E-03 0. -1.
</event>
<event>
 8    1  0.5716970E+005  0.1043930E+01  0.7957747E-01            NaN
         13   -1    0    0    0    0  0.00000000000E+00  0.00000000000E+00  0.74505805969E-08  0.10566000000E+00  0.10566000000E+00 0.  1.
     999900   -1    0    0    0    0 -0.00000000000E+00 -0.00000000000E+00 -0.74505805969E-08  0.93827000000E+00  0.93827000000E+00 0.  1.
     999902    2    1    2    0    0 -0.69343524171E-02 -0.10103176335E-01 -0.19494214463E-01  0.10209042793E+01  0.10206445825E+01 0.  0.
     999903    2    3    3    0    0  0.13483901247E+00  0.36287866759E-01  0.87514904834E-01  0.16596114233E+00  0.19643666595E-01 0.  0.
         14    1    1    2    0    0  0.69343524171E-02  0.10103176335E-01  0.19494214463E-01  0.23025720684E-01  0.00000000000E+00 0.  1.
     999901    1    3    3    0    0 -0.14177336489E+00 -0.46391043094E-01 -0.10700911930E+00  0.85494313699E+00  0.83500000000E+00 0.  1.
        -11    1    4    4    0    0  0.59246699065E-01  0.22442780786E-01  0.48396494952E-01  0.79726605372E-01  0.51100000000E-03 0.  1.
         11    1    4    4    0    0  0.75592313404E-01  0.13845085972E-01  0.39118409882E-01  0.86234536956E-01  0.51100000000E-03 0. -1.
</event>
<event>
 8    1  0.5716970E+005  0.1043930E+01  0.7957747E-01            NaN
         13   -1    0    0    0    0  0.00000000000E+00  0.00000000000E+00  0.74505805969E-08  0.10566000000E+00  0.10566000000E+00 0.  1.
     999900   -1    0    0    0    0 -0.00000000000E+00 -0.00000000000E+00 -0.74505805969E-08  0.93827000000E+00  0.93827000000E+00 0.  1.
     999902    2    1    2    0    0  0.50580947382E-02  0.14023090427E-01  0.19063886881E-01  0.10197295213E+01  0.10194423149E+01 0.  0.
     999903    2    3    3    0    0  0.20987816641E-01  0.83491946902E-01 -0.14126712876E+00  0.16649408329E+00  0.18774569402E-01 0.  0.
         14    1    1    2    0    0 -0.50580947382E-02 -0.14023090427E-01 -0.19063886881E-01  0.24200478725E-01  0.00000000000E+00 0. -1.
     999901    1    3    3    0    0 -0.15929721903E-01 -0.69468856475E-01  0.16033101564E+00  0.85323543799E+00  0.83500000000E+00 0. -1.
        -11    1    4    4    0    0  0.13505093733E-01  0.45225637877E-01 -0.94263629110E-01  0.10542124441E+00  0.51100000000E-03 0.  1.
         11    1    4    4    0    0  0.74827229084E-02  0.38266309025E-01 -0.47003499653E-01  0.61072838882E-01  0.51100000000E-03 0. -1.
</event>
<event>
 8    1  0.5716970E+005  0.1043930E+01  0.7957747E-01            NaN
         13   -1    0    0    0    0  0.00000000000E+00  0.00000000000E+00  0.74505805969E-08  0.10566000000E+00  0.10566000000E+00 0.  1.
     999900   -1    0    0    0    0 -0.00000000000E+00 -0.00000000000E+00 -0.74505805969E-08  0.93827000000E+00  0.93827000000E+00 0.  1.
     999902    2    1    2    0    0 -0.13421062142E-01 -0.66481578656E-02 -0.17626268809E-01  0.10207997543E+01  0.10205376672E+01 0.  0.
     999903    2    3    3    0    0  0.32774605090E-01  0.14626036567E+00 -0.74600249259E-01  0.16875158042E+00  0.21109936060E-01 0.  0.
         14    1    1    2    0    0  0.13421062142E-01  0.66481578656E-02  0.17626268809E-01  0.23130245657E-01  0.00000000000E+00 0.  1.
     999901    1    3    3    0    0 -0.46195667232E-01 -0.15290852353E+00  0.56973980451E-01  0.85204817392E+00  0.83500000000E+00 0. -1.
        -11    1    4    4    0    0  0.23179517096E-01  0.12060436707E+00 -0.52547229448E-01  0.13358209391E+00  0.51100000000E-03 0. -1.
         11    1    4    4    0    0  0.95950879940E-02  0.25655998595E-01 -0.22053019811E-01  0.35169486509E-01  0.51100000000E-03 0.  1.
</event>
<event>
 8    1  0.5716970E+005  0.1043930E+01  0.7957747E-01            NaN
         13   -1    0    0    0    0  0.00000000000E+00  0.00000000000E+00  0.74505805969E-08  0.10566000000E+00  0.10566000000E+00 0. -1.
     999900   -1    0    0    0    0 -0.00000000000E+00 -0.00000000000E+00 -0.74505805969E-08  0.93827000000E+00  0.93827000000E+00 0. -1.
     999902    2    1    2    0    0  0.56154195368E-02 -0.37515496671E-02  0.22506520562E-01  0.10204321165E+01  0.10201615332E+01 0.  0.
     999903    2    3    3    0    0 -0.11809348233E+00  0.60325867009E-01 -0.97089063557E-01  0.16548304698E+00  0.19315066023E-01 0.  0.
         14    1    1    2    0    0 -0.56154195368E-02  0.37515496671E-02 -0.22506520562E-01  0.23497883507E-01  0.00000000000E+00 0.  1.
     999901    1    3    3    0    0  0.12370890186E+00 -0.64077416676E-01  0.11959558412E+00  0.85494906952E+00  0.83500000000E+00 0.  1.
        -11    1    4    4    0    0 -0.83203458304E-01  0.32469907899E-01 -0.66711698580E-01  0.11148014281E+00  0.51100000000E-03 0. -1.
         11    1    4    4    0    0 -0.34890024022E-01  0.27855959110E-01 -0.30377364977E-01  0.54002904164E-01  0.51100000000E-03 0.  1.
</event>
<event>
 8    1  0.5716970E+005  0.1043930E+01  0.7957747E-01            NaN
         13   -1    0    0    0    0  0.00000000000E+00  0.00000000000E+00  0.74505805969E-08  0.10566000000E+00  0.10566000000E+00 0. -1.
     999900   -1    0    0    0    0 -0.00000000000E+00 -0.00000000000E+00 -0.74505805969E-08  0.93827000000E+00  0.93827000000E+00 0.  1.
     999902    2    1    2    0    0  0.80656200175E-02 -0.27407272251E-02 -0.21592944507E-01  0.10207174804E+01  0.10204535040E+01 0.  0.
     999903    2    3    3    0    0 -0.90859578230E-01 -0.11656220688E+00 -0.81695223221E-01  0.17008312421E+00  0.20296517323E-01 0.  0.
         14    1    1    2    0    0 -0.80656200175E-02  0.27407272251E-02  0.21592944507E-01  0.23212519563E-01  0.00000000000E+00 0. -1.
     999901    1    3    3    0    0  0.98925198248E-01  0.11382147966E+00  0.60102278715E-01  0.85063435622E+00  0.83500000000E+00 0.  1.
        -11    1    4    4    0    0 -0.20496293052E-01 -0.22973610919E-01 -0.82983197622E-02  0.31890563799E-01  0.51100000000E-03 0. -1.
         11    1    4    4    0    0 -0.70363285178E-01 -0.93588595964E-01 -0.73396903459E-01  0.13819256041E+00  0.51100000000E-03 0.  1.
</event>
<event>
 8    1  0.5716970E+005  0.1043930E+01  0.7957747E-01            NaN
         13   -1    0    0    0    0  0.00000000000E+00  0.00000000000E+00  0.74505805969E-08  0.10566000000E+00  0.10566000000E+00 0. -1.
     999900   -1    0    0    0    0 -0.00000000000E+00 -0.00000000000E+00 -0.74505805969E-08  0.93827000000E+00  0.93827000000E+00 0.  1.
     999902    2    1    2    0    0  0.13060594697E-01  0.18749924992E-01 -0.61878608205E-02  0.10202566301E+01  0.10199819424E+01 0.  0.
     999903    2    3    3    0    0  0.16348591851E+00 -0.40962453625E-01 -0.96262948851E-02  0.16970964784E+00  0.17410653508E-01 0.  0.
         14    1    1    2    0    0 -0.13060594697E-01 -0.18749924992E-01  0.61878608205E-02  0.23673369903E-01  0.00000000000E+00 0.  1.
     999901    1    3    3    0    0 -0.15042532382E+00  0.59712378617E-01  0.34384340646E-02  0.85054698226E+00  0.83500000000E+00 0. -1.
        -11    1    4    4    0    0  0.88802110274E-01 -0.24487713884E-01 -0.13645043380E-01  0.93123097298E-01  0.51100000000E-03 0.  1.
         11    1    4    4    0    0  0.74683808240E-01 -0.16474739741E-01  0.40187484948E-02  0.76586550537E-01  0.51100000000E-03 0. -1.
</event>
<event>
 8    1  0.5716970E+005  0.1043930E+01  0.7957747E-01            NaN
         13   -1    0    0    0    0  0.00000000000E+00  0.00000000000E+00  0.74505805969E-08  0.10566000000E+00  0.10566000000E+00 0. -1.
     999900   -1    0    0    0    0 -0.00000000000E+00 -0.00000000000E+00 -0.74505805969E-08  0.93827000000E+00  0.93827000000E+00 0. -1.
     999902    2    1    2    0    0 -0.11822913392E-01  0.17993229981E-01 -0.95846936986E-02  0.10203629900E+01  0.10200907937E+01 0.  0.
     999903    2    3    3    0    0  0.13589794916E+00 -0.84978271990E-02  0.91359705153E-01  0.16599889842E+00  0.25856776638E-01 0.  0.
         14    1    1    2    0    0  0.11822913392E-01 -0.17993229981E-01  0.95846936986E-02  0.23567009982E-01  0.00000000000E+00 0. -1.
     999901    1    3    3    0    0 -0.14772086256E+00  0.26491057180E-01 -0.10094439885E+00  0.85436409159E+00  0.83500000000E+00 0. -1.
        -11    1    4    4    0    0  0.35551569277E-01  0.12671078308E-02  0.37504457476E-01  0.51694923270E-01  0.51100000000E-03 0. -1.
         11    1    4    4    0    0  0.10034637989E+00 -0.97649350299E-02  0.53855247677E-01  0.11430397515E+00  0.51100000000E-03 0.  1.
</event>
<event>
 8    1  0.5716970E+005  0.1043930E+01  0.7957747E-01            NaN
         13   -1    0    0    0    0  0.00000000000E+00  0.00000000000E+00  0.74505805969E-08  0.10566000000E+00  0.10566000000E+00 0.  1.
     999900   -1    0    0    0    0 -0.00000000000E+00 -0.00000000000E+00 -0.74505805969E-08  0.93827000000E+00  0.93827000000E+00 0.  1.
     999902    2    1    2    0    0 -0.20491655763E-02 -0.23130815072E-01  0.79845607872E-02  0.10193742085E+01  0.10190784023E+01 0.  0.
     999903    2    3    3    0    0 -0.15929257218E+00  0.96922364023E-02  0.48777493083E-01  0.16808582906E+00  0.20138001448E-01 0.  0.
         14    1    1    2    0    0  0.20491655763E-02  0.23130815072E-01 -0.79845607872E-02  0.24555791505E-01  0.00000000000E+00 0. -1.
     999901    1    3    3    0    0  0.15724340660E+00 -0.32823051474E-01 -0.40792932296E-01  0.85128837943E+00  0.83500000000E+00 0. -1.
        -11    1    4    4    0    0 -0.52606925427E-01 -0.17572586285E-02  0.24564607179E-01  0.58088360346E-01  0.51100000000E-03 0. -1.
         11    1    4    4    0    0 -0.10668564675E+00  0.11449495031E-01  0.24212885904E-01  0.10999746872E+00  0.51100000000E-03 0.  1.
</event>
<event>
 8    1  0.5716970E+005  0.1043930E+01  0.7957747E-01            NaN
         13   -1    0    0    0    0  0.00000000000E+00  0.00000000000E+00  0.74505805969E-08  0.10566000000E+00  0.10566000000E+00 0. -1.
     999900   -1    0    0    0    0 -0.00000000000E+00 -0.00000000000E+00 -0.74505805969E-08  0.93827000000E+00  0.93827000000E+00 0.  1.
     999902    2    1    2    0    0 -0.11493208178E-01  0.20194983031E-01 -0.15973589076E-02  0.10206387414E+01  0.10203729503E+01 0.  0.
     999903    2    3    3    0    0  0.13055834411E+00 -0.44931583089E-01  0.90183003795E-01  0.16619813599E+00  0.20603831073E-01 0.  0.
         14    1    1    2    0    0  0.11493208178E-01 -0.20194983031E-01  0.15973589076E-02  0.23291258646E-01  0.00000000000E+00 0.  1.
     999901    1    3    3    0    0 -0.14205155229E+00  0.65126566121E-01 -0.91780362703E-01  0.85444060537E+00  0.83500000000E+00 0. -1.
        -11    1    4    4    0    0  0.10912517317E+00 -0.45309606215E-01  0.76107575230E-01  0.14054852530E+00  0.51100000000E-03 0. -1.
         11    1    4    4    0    0  0.21433170941E-01  0.37802312596E-03  0.14075428565E-01  0.25649610686E-01  0.51100000000E-03 0.  1.
</event>
<event>
 8    1  0.5716970E+005  0.1043930E+01  0.7957747E-01            NaN
         13   -1    0    0    0    0  0.00000000000E+00  0.00000000000E+00  0.74505805969E-08  0.10566000000E+00  0.10566000000E+00 0.  1.
     999900   -1    0    0    0    0 -0.00000000000E+00 -0.00000000000E+00 -0.74505805969E-08  0.93827000000E+00  0.93827000000E+00 0. -1.
     999902    2    1    2    0    0  0.11439096382E-01 -0.12305318228E-01 -0.15745745761E-01  0.10209038780E+01  0.10206441720E+01 0.  0.
     999903    2    3    3    0    0  0.18034080990E-01  0.14626173739E+00 -0.79499575020E-01  0.16856793741E+00  0.19422749342E-01 0.  0.
         14    1    1    2    0    0 -0.11439096382E-01  0.12305318228E-01  0.15745745761E-01  0.23026121955E-01  0.00000000000E+00 0.  1.
     999901    1    3    3    0    0 -0.65949846086E-02 -0.15856705562E+00  0.63753829260E-01  0.85233594063E+00  0.83500000000E+00 0.  1.
        -11    1    4    4    0    0  0.19162134071E-01  0.11647048027E+00 -0.56234344427E-01  0.13074831843E+00  0.51100000000E-03 0. -1.
         11    1    4    4    0    0 -0.11280530812E-02  0.29791257122E-01 -0.23265230593E-01  0.37819618986E-01  0.51100000000E-03 0.  1.
</event>
<event>
 8    1  0.5716970E+005  0.1043930E+01  0.7957747E-01            NaN
         13   -1    0    0    0    0  0.00000000000E+00  0.00000000000E+00  0.74505805969E-08  0.10566000000E+00  0.10566000000E+00 0.  1.
     999900   -1    0    0    0    0 -0.00000000000E+00 -0.00000000000E+00 -0.74505805969E-08  0.93827000000E+00  0.93827000000E+00 0.  1.
     999902    2    1    2    0    0  0.16809362074E-01 -0.11624539504E-01  0.54436832853E-02  0.10227801002E+01  0.10225613992E+01 0.  0.
     999903    2    3    3    0    0  0.15308018669E+00 -0.46128983709E-01 -0.63635231534E-01  0.17321715921E+00  0.19832167182E-01 0.  0.
         14    1    1    2    0    0 -0.16809362074E-01  0.11624539504E-01 -0.54436832853E-02  0.21149899757E-01  0.00000000000E+00 0.  1.
     999901    1    3    3    0    0 -0.13627082462E+00  0.34504444205E-01  0.69078914820E-01  0.84956294104E+00  0.83500000000E+00 0. -1.
        -11    1    4    4    0    0  0.69217370482E-01 -0.10638264705E-01 -0.26817376814E-01  0.74990998610E-01  0.51100000000E-03 0.  1.
         11    1    4    4    0    0  0.83862816210E-01 -0.35490719004E-01 -0.36817854720E-01  0.98226160595E-01  0.51100000000E-03 0. -1.
</event>
<event>
 7    1  0.5716970E+005  0.1043930E+01  0.7957747E-01            NaN
         13   -1    0    0    0    0  0.00000000000E+00  0.00000000000E+00  0.74505805969E-08  0.10566000000E+00  0.10566000000E+00 0. -1.
     999900   -1    0    0    0    0 -0.00000000000E+00 -0.00000000000E+00 -0.74505805969E-08  0.93827000000E+00  0.93827000000E+00 0.  1.
     999902    2    1    2    0    0 -0.47633303005E-02  0.24352510673E-01  0.50433163479E-03  0.10191108856E+01  0.10188086222E+01 0.  0.
         14    1    1    2    0    0  0.47633303005E-02 -0.24352510673E-01 -0.50433163479E-03  0.24819114449E-01  0.00000000000E+00 0.  1.
     999901    1    3    3    0    0 -0.13487768274E+00 -0.47611656694E-01  0.56142078792E-01  0.84902048984E+00  0.83500000000E+00 0. -1.
        -11    1    3    3    0    0  0.27740757668E-01  0.40277839457E-01 -0.36970937081E-01  0.61310401214E-01  0.51100000000E-03 0. -1.
         11    1    3    3    0    0  0.10237359478E+00  0.31686327911E-01 -0.18666810076E-01  0.10877999450E+00  0.51100000000E-03 0.  1.
</event>
<event>
 8    1  0.7445996E+005  0.1043930E+01  0.7957747E-01            NaN
         13   -1    0    0    0    0  0.00000000000E+00  0.00000000000E+00  0.74505805969E-08  0.10566000000E+00  0.10566000000E+00 0. -1.
     999900   -1    0    0    0    0 -0.00000000000E+00 -0.00000000000E+00 -0.74505805969E-08  0.93827000000E+00  0.93827000000E+00 0.  1.
     999902    2    1    2    0    0  0.11923096123E-01  0.15257864419E-01 -0.12925733190E-01  0.10206483071E+01  0.10203827368E+01 0.  0.
     999903    2    3    3    0    0  0.14383395429E+00  0.54001761205E-01  0.70698364278E-01  0.17028394179E+00  0.19848564148E-01 0.  0.
         14    1    1    2    0    0 -0.11923096123E-01 -0.15257864419E-01  0.12925733190E-01  0.23281692943E-01  0.00000000000E+00 0.  1.
     999901    1    3    3    0    0 -0.13191085817E+00 -0.38743896786E-01 -0.83624097469E-01  0.85036436527E+00  0.83500000000E+00 0.  1.
        -11    1    4    4    0    0  0.46190266979E-01  0.15316778619E-01  0.32518010064E-01  0.58530560995E-01  0.51100000000E-03 0. -1.
         11    1    4    4    0    0  0.97643687313E-01  0.38684982586E-01  0.38180354214E-01  0.11175338079E+00  0.51100000000E-03 0.  1.
</event>
<event>
 8    1  0.5716970E+005  0.1043930E+01  0.7957747E-01            NaN
         13   -1    0    0    0    0  0.00000000000E+00  0.00000000000E+00  0.74505805969E-08  0.10566000000E+00  0.10566000000E+00 0. -1.
     999900   -1    0    0    0    0 -0.00000000000E+00 -0.00000000000E+00 -0.74505805969E-08  0.93827000000E+00  0.93827000000E+00 0.  1.
     999902    2    1    2    0    0 -0.89788573847E-02 -0.19607426537E-01 -0.10697846388E-01  0.10198568828E+01  0.10195727274E+01 0.  0.
     999903    2    3    3    0    0 -0.11506287427E+00 -0.20187213746E-01 -0.12281368489E+00  0.17071077284E+00  0.20297244457E-01 0.  0.
         14    1    1    2    0    0  0.89788573847E-02  0.19607426537E-01  0.10697846388E-01  0.24073117220E-01  0.00000000000E+00 0. -1.
     999901    1    3    3    0    0  0.10608401688E+00  0.57978720890E-03  0.11211583850E+00  0.84914610994E+00  0.83500000000E+00 0.  1.
        -11    1    4    4    0    0 -0.51610039715E-01 -0.19267869956E-01 -0.58520777464E-01  0.80372815852E-01  0.51100000000E-03 0. -1.
         11    1    4    4    0    0 -0.63452834552E-01 -0.91934378955E-03 -0.64292907426E-01  0.90337956983E-01  0.51100000000E-03 0.  1.
</event>
<event>
 8    1  0.5716970E+005  0.1043930E+01  0.7957747E-01            NaN
         13   -1    0    0    0    0  0.00000000000E+00  0.00000000000E+00  0.74505805969E-08  0.10566000000E+00  0.10566000000E+00 0. -1.
     999900   -1    0    0    0    0 -0.00000000000E+00 -0.00000000000E+00 -0.74505805969E-08  0.93827000000E+00  0.93827000000E+00 0. -1.
     999902    2    1    2    0    0  0.15475736480E-01  0.19443948410E-01 -0.85315352259E-02  0.10176554373E+01  0.10173161930E+01 0.  0.
     999903    2    3    3    0    0  0.10584833047E-01 -0.16172497078E-01 -0.16508995832E+00  0.16734491056E+00  0.19391657957E-01 0.  0.
         14    1    1    2    0    0 -0.15475736480E-01 -0.19443948410E-01  0.85315352259E-02  0.26274562654E-01  0.00000000000E+00 0. -1.
     999901    1    3    3    0    0  0.48909034331E-02  0.35616445488E-01  0.15655842310E+00  0.85031052679E+00  0.83500000000E+00 0.  1.
        -11    1    4    4    0    0  0.11755012579E-01 -0.73472220568E-03 -0.78496676223E-01  0.79377008236E-01  0.51100000000E-03 0. -1.
         11    1    4    4    0    0 -0.11701795320E-02 -0.15437774872E-01 -0.86593282098E-01  0.87967902321E-01  0.51100000000E-03 0.  1.
</event>
<event>
 8    1  0.5716970E+005  0.1043930E+01  0.7957747E-01            NaN
         13   -1    0    0    0    0  0.00000000000E+00  0.00000000000E+00  0.74505805969E-08  0.10566000000E+00  0.10566000000E+00 0. -1.
     999900   -1    0    0    0    0 -0.00000000000E+00 -0.00000000000E+00 -0.74505805969E-08  0.93827000000E+00  0.93827000000E+00 0.  1.
     999902    2    1    2    0    0 -0.16367081765E-01 -0.81826574769E-02  0.13778246590E-01  0.10210241639E+01  0.10207671948E+01 0.  0.
     999903    2    3    3    0    0 -0.49711288494E-01  0.74168022650E-01 -0.13994429755E+00  0.16735614222E+00  0.21250038433E-01 0.  0.
         14    1    1    2    0    0  0.16367081765E-01  0.81826574769E-02 -0.13778246590E-01  0.22905836112E-01  0.00000000000E+00 0.  1.
     999901    1    3    3    0    0  0.33344206728E-01 -0.82350680127E-01  0.15372254414E+00  0.85366802167E+00  0.83500000000E+00 0. -1.
        -11    1    4    4    0    0 -0.90510156540E-02  0.25819895588E-01 -0.55665527843E-01  0.62028219413E-01  0.51100000000E-03 0. -1.
         11    1    4    4    0    0 -0.40660272840E-01  0.48348127062E-01 -0.84278769712E-01  0.10532792281E+00  0.51100000000E-03 0.  1.
</event>
<event>
 8    1  0.5716970E+005  0.1043930E+01  0.7957747E-01            NaN
         13   -1    0    0    0    0  0.00000000000E+00  0.00000000000E+00  0.74505805969E-08  0.10566000000E+00  0.10566000000E+00 0. -1.
     999900   -1    0    0    0    0 -0.00000000000E+00 -0.00000000000E+00 -0.74505805969E-08  0.93827000000E+00  0.93827000000E+00 0. -1.
     999902    2    1    2    0    0 -0.14096925697E-02  0.22815646853E-01 -0.49109350208E-02  0.10205492759E+01  0.10202814153E+01 0.  0.
     999903    2    3    3    0    0 -0.24989347122E-02 -0.14185427344E+00  0.81979050528E-01  0.16504226915E+00  0.19735914227E-01 0.  0.
         14    1    1    2    0    0  0.14096925697E-02 -0.22815646853E-01  0.49109350208E-02  0.23380724053E-01  0.00000000000E+00 0. -1.
     999901    1    3    3    0    0  0.10892421425E-02  0.16466992030E+00 -0.86889985548E-01  0.85550700680E+00  0.83500000000E+00 0.  1.
        -11    1    4    4    0    0  0.82877215955E-02 -0.52658388445E-01  0.27773015947E-01  0.60109847269E-01  0.51100000000E-03 0.  1.
         11    1    4    4    0    0 -0.10786656308E-01 -0.89195884998E-01  0.54206034580E-01  0.10493242188E+00  0.51100000000E-03 0. -1.
</event>
<event>
 8    1  0.5716970E+005  0.1043930E+01  0.7957747E-01            NaN
         13   -1    0    0    0    0  0.00000000000E+00  0.00000000000E+00  0.74505805969E-08  0.10566000000E+00  0.10566000000E+00 0. -1.
     999900   -1    0    0    0    0 -0.00000000000E+00 -0.00000000000E+00 -0.74505805969E-08  0.93827000000E+00  0.93827000000E+00 0. -1.
     999902    2    1    2    0    0  0.51258581130E-02 -0.51746869904E-02  0.22416446531E-01  0.10203599155E+01  0.10200876474E+01 0.  0.
     999903    2    3    3    0    0 -0.15039166501E+00 -0.12274461022E-01  0.74340432787E-01  0.16938564615E+00  0.19916874215E-01 0.  0.
         14    1    1    2    0    0 -0.51258581130E-02  0.51746869904E-02 -0.22416446531E-01  0.23570084470E-01  0.00000000000E+00 0.  1.
     999901    1    3    3    0    0  0.15551752312E+00  0.70997740321E-02 -0.51923986256E-01  0.85097426937E+00  0.83500000000E+00 0. -1.
        -11    1    4    4    0    0 -0.10195827557E+00 -0.11148967653E-01  0.40429378803E-01  0.11024783548E+00  0.51100000000E-03 0. -1.
         11    1    4    4    0    0 -0.48433389443E-01 -0.11254933694E-02  0.33911053985E-01  0.59137810676E-01  0.51100000000E-03 0.  1.
</event>
<event>
 8    1  0.5716970E+005  0.1043930E+01  0.7957747E-01            NaN
         13   -1    0    0    0    0  0.00000000000E+00  0.00000000000E+00  0.74505805969E-08  0.10566000000E+00  0.10566000000E+00 0. -1.
     999900   -1    0    0    0    0 -0.00000000000E+00 -0.00000000000E+00 -0.74505805969E-08  0.93827000000E+00  0.93827000000E+00 0. -1.
     999902    2    1    2    0    0 -0.57646471366E-02  0.21916792052E-01  0.75321912381E-02  0.10200488184E+01  0.10197692293E+01 0.  0.
     999903    2    3    3    0    0 -0.45530928709E-01  0.16463572351E+00  0.71083168898E-04  0.17197410547E+00  0.19927392638E-01 0.  0.
         14    1    1    2    0    0  0.57646471366E-02 -0.21916792052E-01 -0.75321912381E-02  0.23881181615E-01  0.00000000000E+00 0. -1.
     999901    1    3    3    0    0  0.39766281573E-01 -0.14271893145E+00  0.74611080692E-02  0.84807471291E+00  0.83500000000E+00 0.  1.
        -11    1    4    4    0    0 -0.37515838845E-01  0.13728140492E+00 -0.73804946820E-02  0.14250738621E+00  0.51100000000E-03 0. -1.
         11    1    4    4    0    0 -0.80150898647E-02  0.27354318581E-01  0.74515778509E-02  0.29466719262E-01  0.51100000000E-03 0.  1.
</event>
<event>
 8    1  0.5716970E+005  0.1043930E+01  0.7957747E-01            NaN
         13   -1    0    0    0    0  0.00000000000E+00  0.00000000000E+00  0.74505805969E-08  0.10566000000E+00  0.10566000000E+00 0. -1.
     999900   -1    0    0    0    0 -0.00000000000E+00 -0.00000000000E+00 -0.74505805969E-08  0.93827000000E+00  0.93827000000E+00 0. -1.
     999902    2    1    2    0    0 -0.15223611999E-01 -0.14457548094E-01  0.98075095125E-02  0.10207574666E+01  0.10204944093E+01 0.  0.
     999903    2    3    3    0    0 -0.15731375319E+00 -0.66221482804E-01 -0.67520280372E-02  0.17201231559E+00  0.20242161537E-01 0.  0.
         14    1    1    2    0    0  0.15223611999E-01  0.14457548094E-01 -0.98075095125E-02  0.23172533354E-01  0.00000000000E+00 0.  1.
     999901    1    3    3    0    0  0.14209014119E+00  0.51763934709E-01  0.16559537550E-01  0.84874515106E+00  0.83500000000E+00 0.  1.
        -11    1    4    4    0    0 -0.89612655163E-01 -0.41164193083E-01 -0.13369528837E-01  0.99518461503E-01  0.51100000000E-03 0.  1.
         11    1    4    4    0    0 -0.67701098028E-01 -0.25057289721E-01  0.66175008002E-02  0.72493854085E-01  0.51100000000E-03 0. -1.
</event>
<event>
 8    1  0.5716970E+005  0.1043930E+01  0.7957747E-01            NaN
         13   -1    0    0    0    0  0.00000000000E+00  0.00000000000E+00  0.74505805969E-08  0.10566000000E+00  0.10566000000E+00 0. -1.
     999900   -1    0    0    0    0 -0.00000000000E+00 -0.00000000000E+00 -0.74505805969E-08  0.93827000000E+00  0.93827000000E+00 0.  1.
     999902    2    1    2    0    0 -0.13043402355E-01 -0.49781866835E-02  0.18390479417E-01  0.10208405561E+01  0.10205794033E+01 0.  0.
     999903    2    3    3    0    0 -0.14645692055E+00 -0.61259978372E-01  0.63827348575E-01  0.17216139644E+00  0.19057845392E-01 0.  0.
         14    1    1    2    0    0  0.13043402355E-01  0.49781866835E-02 -0.18390479417E-01  0.23089443926E-01  0.00000000000E+00 0.  1.
     999901    1    3    3    0    0  0.13341351820E+00  0.56281791689E-01 -0.45436869158E-01  0.84867915963E+00  0.83500000000E+00 0. -1.
        -11    1    4    4    0    0 -0.48881335122E-01 -0.29232505802E-01  0.18316720988E-01  0.59830491453E-01  0.51100000000E-03 0. -1.
         11    1    4    4    0    0 -0.97575585430E-01 -0.32027472570E-01  0.45510627587E-01  0.11233090499E+00  0.51100000000E-03 0.  1.
</event>
<event>
 8    1  0.5716970E+005  0.1043930E+01  0.7957747E-01            NaN
         13   -1    0    0    0    0  0.00000000000E+00  0.00000000000E+00  0.74505805969E-08  0.10566000000E+00  0.10566000000E+00 0.  1.
     999900   -1    0    0    0    0 -0.00000000000E+00 -0.00000000000E+00 -0.74505805969E-08  0.93827000000E+00  0.93827000000E+00 0.  1.
     999902    2    1    2    0    0  0.78148858290E-02  0.10539647985E-01  0.19398296104E-01  0.10205109797E+01  0.10202422306E+01 0.  0.
     999903    2    3    3    0    0  0.31604866196E-01 -0.11333391284E+00  0.12110645448E+00  0.16993460352E+00  0.19171666316E-01 0.  0.
         14    1    1    2    0    0 -0.78148858290E-02 -0.10539647985E-01 -0.19398296104E-01  0.23419020302E-01  0.00000000000E+00 0. -1.
     999901    1    3    3    0    0 -0.23789980367E-01  0.12387356083E+00 -0.10170815837E+00  0.85057637618E+00  0.83500000000E+00 0.  1.
        -11    1    4    4    0    0  0.22021209167E-01 -0.52571190774E-01  0.49120257443E-01  0.75244432119E-01  0.51100000000E-03 0.  1.
         11    1    4    4    0    0  0.95836570285E-02 -0.60762722069E-01  0.71986197032E-01  0.94690171398E-01  0.51100000000E-03 0. -1.
</event>
<event>
 8    1  0.5716970E+005  0.1043930E+01  0.7957747E-01            NaN
         13   -1    0    0    0    0  0.00000000000E+00  0.00000000000E+00  0.74505805969E-08  0.10566000000E+00  0.10566000000E+00 0. -1.
     999900   -1    0    0    0    0 -0.00000000000E+00 -0.00000000000E+00 -0.74505805969E-08  0.93827000000E+00  0.93827000000E+00 0.  1.
     999902    2    1    2    0    0  0.10008208597E-01 -0.15385036738E-01  0.16173714525E-01  0.10194667084E+01  0.10191731535E+01 0.  0.
     999903    2    3    3    0    0 -0.42802515773E-01 -0.14654027819E+00 -0.68121113463E-01  0.16839603683E+00  0.20264023080E-01 0.  0.
         14    1    1    2    0    0 -0.10008208597E-01  0.15385036738E-01 -0.16173714525E-01  0.24463291608E-01  0.00000000000E+00 0.  1.
     999901    1    3    3    0    0  0.52810724369E-01  0.13115524145E+00  0.84294827988E-01  0.85107067156E+00  0.83500000000E+00 0. -1.
        -11    1    4    4    0    0 -0.36437357374E-01 -0.90991380670E-01 -0.40918304037E-01  0.10621525830E+00  0.51100000000E-03 0.  1.
         11    1    4    4    0    0 -0.63651583983E-02 -0.55548897522E-01 -0.27202809426E-01  0.62180778533E-01  0.51100000000E-03 0. -1.
</event>
<event>
 8    1  0.5716970E+005  0.1043930E+01  0.7957747E-01            NaN
         13   -1    0    0    0    0  0.00000000000E+00  0.00000000000E+00  0.74505805969E-08  0.10566000000E+00  0.10566000000E+00 0.  1.
     999900   -1    0    0    0    0 -0.00000000000E+00 -0.00000000000E+00 -0.74505805969E-08  0.93827000000E+00  0.93827000000E+00 0.  1.
     999902    2    1    2    0    0 -0.64591276427E-02  0.91841194138E-02 -0.20955598155E-01  0.10201559496E+01  0.10198788928E+01 0.  0.
     999903    2    3    3    0    0 -0.59832012118E-01 -0.17026968282E-02  0.15333040670E+00  0.16542336037E+00  0.16489563005E-01 0.  0.
         14    1    1    2    0    0  0.64591276427E-02 -0.91841194138E-02  0.20955598155E-01  0.23774050419E-01  0.00000000000E+00 0.  1.
     999901    1    3    3    0    0  0.53372884475E-01  0.10886816242E-01 -0.17428600485E+00  0.85473258921E+00  0.83500000000E+00 0.  1.
        -11    1    4    4    0    0 -0.33768386297E-01  0.57889805323E-02  0.97664794300E-01  0.10350115640E+00  0.51100000000E-03 0.  1.
         11    1    4    4    0    0 -0.26063625820E-01 -0.74916773605E-02  0.55665612399E-01  0.61922203977E-01  0.51100000000E-03 0. -1.
</event>
<event>
 8    1  0.5716970E+005  0.1043930E+01  0.7957747E-01            NaN
         13   -1    0    0    0    0  0.00000000000E+00  0.00000000000E+00  0.74505805969E-08  0.10566000000E+00  0.10566000000E+00 0. -1.
     999900   -1    0    0    0    0 -0.00000000000E+00 -0.00000000000E+00 -0.74505805969E-08  0.93827000000E+00  0.93827000000E+00 0. -1.
     999902    2    1    2    0    0 -0.26056208850E-01  0.58703210251E-02 -0.96324949843E-02  0.10155368380E+01  0.10151398414E+01 0.  0.
     999903    2    3    3    0    0 -0.33830081073E-01  0.59996330233E-01  0.14754883422E+00  0.16411389480E+00  0.20461621618E-01 0.  0.
         14    1    1    2    0    0  0.26056208850E-01 -0.58703210251E-02  0.96324949843E-02  0.28393161997E-01  0.00000000000E+00 0.  1.
     999901    1    3    3    0    0  0.77738722227E-02 -0.54126009208E-01 -0.15718132921E+00  0.85142294320E+00  0.83500000000E+00 0. -1.
        -11    1    4    4    0    0 -0.10432831055E-01  0.16072675290E-01  0.22699860104E-01  0.29710597849E-01  0.51100000000E-03 0.  1.
         11    1    4    4    0    0 -0.23397250018E-01  0.43923654944E-01  0.12484897412E+00  0.13440329695E+00  0.51100000000E-03 0. -1.
</event>
<event>
 8    1  0.5716970E+005  0.1043930E+01  0.7957747E-01            NaN
         13   -1    0    0    0    0  0.00000000000E+00  0.00000000000E+00  0.74505805969E-08  0.10566000000E+00  0.10566000000E+00 0.  1.
     999900   -1    0    0    0    0 -0.00000000000E+00 -0.00000000000E+00 -0.74505805969E-08  0.93827000000E+00  0.93827000000E+00 0. -1.
     999902    2    1    2    0    0  0.53874744310E-02  0.22572201841E-01  0.29636844567E-02  0.10205352869E+01  0.10202671019E+01 0.  0.
     999903    2    3    3    0    0  0.36896351207E-01 -0.15729070508E+00  0.29000125715E-01  0.16540584002E+00  0.20405342079E-01 0.  0.
         14    1    1    2    0    0 -0.53874744310E-02 -0.22572201841E-01 -0.29636844567E-02  0.23394713126E-01  0.00000000000E+00 0.  1.
     999901    1    3    3    0    0 -0.31508876776E-01  0.17986290692E+00 -0.26036441258E-01  0.85512944685E+00  0.83500000000E+00 0.  1.
        -11    1    4    4    0    0  0.19316009526E-01 -0.42814616377E-01  0.10256320562E-01  0.48079650914E-01  0.51100000000E-03 0. -1.
         11    1    4    4    0    0  0.17580341680E-01 -0.11447608870E+00  0.18743805153E-01  0.11732618911E+00  0.51100000000E-03 0.  1.
</event>
<event>
 8    1  0.5716970E+005  0.1043930E+01  0.7957747E-01            NaN
         13   -1    0    0    0    0  0.00000000000E+00  0.00000000000E+00  0.74505805969E-08  0.10566000000E+00  0.10566000000E+00 0. -1.
     999900   -1    0    0    0    0 -0.00000000000E+00 -0.00000000000E+00 -0.74505805969E-08  0.93827000000E+00  0.93827000000E+00 0. -1.
     999902    2    1    2    0    0  0.12976943195E-01  0.13500600746E-01 -0.14972371579E-01  0.10199541958E+01  0.10196723603E+01 0.  0.
     999903    2    3    3    0    0  0.11546376455E+00  0.94906043075E-01  0.78238026043E-01  0.16963450723E+00  0.17766242882E-01 0.  0.
         14    1    1    2    0    0 -0.12976943195E-01 -0.13500600746E-01  0.14972371579E-01  0.23975804176E-01  0.00000000000E+00 0. -1.
     999901    1    3    3    0    0 -0.10248682136E+00 -0.81405442329E-01 -0.93210397622E-01  0.85031968860E+00  0.83500000000E+00 0. -1.
        -11    1    4    4    0    0  0.47381741020E-01  0.31314869560E-01  0.22640643703E-01  0.61143358641E-01  0.51100000000E-03 0. -1.
         11    1    4    4    0    0  0.68082023531E-01  0.63591173515E-01  0.55597382340E-01  0.10849114858E+00  0.51100000000E-03 0.  1.
</event>
<event>
 7    1  0.5716970E+005  0.1043930E+01  0.7957747E-01            NaN
         13   -1    0    0    0    0  0.00000000000E+00  0.00000000000E+00  0.74505805969E-08  0.10566000000E+00  0.10566000000E+00 0. -1.
     999900   -1    0    0    0    0 -0.00000000000E+00 -0.00000000000E+00 -0.74505805969E-08  0.93827000000E+00  0.93827000000E+00 0.  1.
     999903    2    1    2    0    0 -0.13804818976E+00 -0.63636097845E-01  0.28697567291E-01  0.15600118162E+00  0.20148514902E-01 0.  0.
         14    1    1    2    0    0  0.22842383643E-01 -0.29956615882E-01  0.99324396735E-02  0.38959295213E-01  0.00000000000E+00 0. -1.
     999901    1    1    2    0    0  0.11520580612E+00  0.93592713727E-01 -0.38630006965E-01  0.84896952317E+00  0.83500000000E+00 0. -1.
        -11    1    3    3    0    0 -0.73870692298E-01 -0.34827645710E-01  0.25581914931E-01  0.85583523992E-01  0.51100000000E-03 0.  1.
         11    1    3    3    0    0 -0.64177497466E-01 -0.28808452135E-01  0.31156523598E-02  0.70417657630E-01  0.51100000000E-03 0. -1.
</event>
<event>
 8    1  0.5716970E+005  0.1043930E+01  0.7957747E-01            NaN
         13   -1    0    0    0    0  0.00000000000E+00  0.00000000000E+00  0.74505805969E-08  0.10566000000E+00  0.10566000000E+00 0. -1.
     999900   -1    0    0    0    0 -0.00000000000E+00 -0.00000000000E+00 -0.74505805969E-08  0.93827000000E+00  0.93827000000E+00 0.  1.
     999902    2    1    2    0    0  0.22919350136E-01  0.67340175469E-02 -0.25327954731E-01  0.10091140713E+01  0.10085132919E+01 0.  0.
     999903    2    3    3    0    0  0.23813699803E-01 -0.14208465859E+00 -0.66689150575E-01  0.15994768783E+00  0.19510959286E-01 0.  0.
         14    1    1    2    0    0 -0.22919350136E-01 -0.67340175469E-02  0.25327954731E-01  0.34815928737E-01  0.00000000000E+00 0.  1.
     999901    1    3    3    0    0 -0.89434966736E-03  0.14881867614E+00  0.41361195844E-01  0.84916638343E+00  0.83500000000E+00 0. -1.
        -11    1    4    4    0    0  0.16546722940E-01 -0.93190478599E-01 -0.53757656895E-01  0.10885038419E+00  0.51100000000E-03 0. -1.
         11    1    4    4    0    0  0.72669768629E-02 -0.48894179994E-01 -0.12931493680E-01  0.51097303645E-01  0.51100000000E-03 0.  1.
</event>
<event>
 8    1  0.5716970E+005  0.1043930E+01  0.7957747E-01            NaN
         13   -1    0    0    0    0  0.00000000000E+00  0.00000000000E+00  0.74505805969E-08  0.10566000000E+00  0.10566000000E+00 0. -1.
     999900   -1    0    0    0    0 -0.00000000000E+00 -0.00000000000E+00 -0.74505805969E-08  0.93827000000E+00  0.93827000000E+00 0.  1.
     999902    2    1    2    0    0  0.61666320332E-03 -0.11336378188E-01  0.20953999640E-01  0.10200980080E+01  0.10198195831E+01 0.  0.
     999903    2    3    3    0    0 -0.12492146061E+00 -0.11152680464E+00 -0.13606985560E-01  0.16908837006E+00  0.19029644246E-01 0.  0.
         14    1    1    2    0    0 -0.61666320332E-03  0.11336378188E-01 -0.20953999640E-01  0.23831992045E-01  0.00000000000E+00 0.  1.
     999901    1    3    3    0    0  0.12553812381E+00  0.10019042646E+00  0.34560985200E-01  0.85100963789E+00  0.83500000000E+00 0. -1.
        -11    1    4    4    0    0 -0.87538763097E-01 -0.77765999512E-01 -0.18225761617E-01  0.11850327098E+00  0.51100000000E-03 0.  1.
         11    1    4    4    0    0 -0.37382697512E-01 -0.33760805133E-01  0.46187760566E-02  0.50585099088E-01  0.51100000000E-03 0. -1.
</event>
<event>
 8    1  0.5716970E+005  0.1043930E+01  0.7957747E-01            NaN
         13   -1    0    0    0    0  0.00000000000E+00  0.00000000000E+00  0.74505805969E-08  0.10566000000E+00  0.10566000000E+00 0. -1.
     999900   -1    0    0    0    0 -0.00000000000E+00 -0.00000000000E+00 -0.74505805969E-08  0.93827000000E+00  0.93827000000E+00 0. -1.
     999902    2    1    2    0    0  0.12125860447E-01 -0.69925652891E-02 -0.19298941284E-01  0.10200892451E+01  0.10198106130E+01 0.  0.
     999903    2    3    3    0    0 -0.12541239389E+00 -0.10459820689E+00  0.28196381625E-01  0.16690436571E+00  0.19823670935E-01 0.  0.
         14    1    1    2    0    0 -0.12125860447E-01  0.69925652891E-02  0.19298941284E-01  0.23840754929E-01  0.00000000000E+00 0. -1.
     999901    1    3    3    0    0  0.13753825434E+00  0.97605641597E-01 -0.47495322909E-01  0.85318487936E+00  0.83500000000E+00 0. -1.
        -11    1    4    4    0    0 -0.65740858229E-02 -0.93205115568E-02 -0.20848383178E-02  0.11605955880E-01  0.51100000000E-03 0.  1.
         11    1    4    4    0    0 -0.11883830807E+00 -0.95277695329E-01  0.30281219943E-01  0.15529840983E+00  0.51100000000E-03 0. -1.
</event>
<event>
 8    1  0.5716970E+005  0.1043930E+01  0.7957747E-01            NaN
         13   -1    0    0    0    0  0.00000000000E+00  0.00000000000E+00  0.74505805969E-08  0.10566000000E+00  0.10566000000E+00 0. -1.
     999900   -1    0    0    0    0 -0.00000000000E+00 -0.00000000000E+00 -0.74505805969E-08  0.93827000000E+00  0.93827000000E+00 0. -1.
     999902    2    1    2    0    0 -0.20158151159E-01 -0.31631373384E-02  0.14352267588E-01  0.10189831749E+01  0.10186777541E+01 0.  0.
     999903    2    3    3    0    0  0.67940141695E-01 -0.14218614766E+00 -0.47031400776E-01  0.16570616168E+00  0.20342465936E-01 0.  0.
         14    1    1    2    0    0  0.20158151159E-01  0.31631373384E-02 -0.14352267588E-01  0.24946825066E-01  0.00000000000E+00 0.  1.
     999901    1    3    3    0    0 -0.88098292854E-01  0.13902301032E+00  0.61383668365E-01  0.85327701325E+00  0.83500000000E+00 0.  1.
        -11    1    4    4    0    0  0.41154037480E-01 -0.10036408726E+00 -0.24712300174E-01  0.11125449974E+00  0.51100000000E-03 0.  1.
         11    1    4    4    0    0  0.26786104215E-01 -0.41822060403E-01 -0.22319100602E-01  0.54451661940E-01  0.51100000000E-03 0. -1.
</event>
<event>
 8    1  0.5716970E+005  0.1043930E+01  0.7957747E-01            NaN
         13   -1    0    0    0    0  0.00000000000E+00  0.00000000000E+00  0.74505805969E-08  0.10566000000E+00  0.10566000000E+00 0.  1.
     999900   -1    0    0    0    0 -0.00000000000E+00 -0.00000000000E+00 -0.74505805969E-08  0.93827000000E+00  0.93827000000E+00 0.  1.
     999902    2    1    2    0    0 -0.10827062069E-01 -0.32512751943E-02 -0.21419648788E-01  0.10197102267E+01  0.10194225567E+01 0.  0.
     999903    2    3    3    0    0  0.99440699910E-01  0.35619277122E-01 -0.13094225676E+00  0.16948078661E+00  0.20510405260E-01 0.  0.
         14    1    1    2    0    0  0.10827062069E-01  0.32512751943E-02  0.21419648788E-01  0.24219773278E-01  0.00000000000E+00 0.  1.
     999901    1    3    3    0    0 -0.11026776198E+00 -0.38870552316E-01  0.10952260797E+00  0.85022944011E+00  0.83500000000E+00 0. -1.
        -11    1    4    4    0    0  0.25189049158E-02  0.21384889676E-03 -0.10822202368E-01  0.11125277453E-01  0.51100000000E-03 0. -1.
         11    1    4    4    0    0  0.96921794995E-01  0.35405428225E-01 -0.12012005439E+00  0.15835550916E+00  0.51100000000E-03 0.  1.
</event>
<event>
 8    1  0.5716970E+005  0.1043930E+01  0.7957747E-01            NaN
         13   -1    0    0    0    0  0.00000000000E+00  0.00000000000E+00  0.74505805969E-08  0.10566000000E+00  0.10566000000E+00 0. -1.
     999900   -1    0    0    0    0 -0.00000000000E+00 -0.00000000000E+00 -0.74505805969E-08  0.93827000000E+00  0.93827000000E+00 0.  1.
     999902    2    1    2    0    0  0.12073431061E-01  0.19488757279E-01  0.40988895964E-02  0.10206409405E+01  0.10203752001E+01 0.  0.
     999903    2    3    3    0    0 -0.93708170108E-01  0.47654806895E-01  0.13099416089E+00  0.16898931957E+00  0.18593498260E-01 0.  0.
         14    1    1    2    0    0 -0.12073431061E-01 -0.19488757279E-01 -0.40988895964E-02  0.23289059530E-01  0.00000000000E+00 0.  1.
     999901    1    3    3    0    0  0.10578160117E+00 -0.28166049615E-01 -0.12689527129E+00  0.85165162090E+00  0.83500000000E+00 0. -1.
        -11    1    4    4    0    0 -0.80471562374E-01  0.39561104030E-01  0.99945562088E-01  0.13427631885E+00  0.51100000000E-03 0.  1.
         11    1    4    4    0    0 -0.13236607734E-01  0.80937028644E-02  0.31048598803E-01  0.34713000720E-01  0.51100000000E-03 0. -1.
</event>
<event>
 8    1  0.5716970E+005  0.1043930E+01  0.7957747E-01            NaN
         13   -1    0    0    0    0  0.00000000000E+00  0.00000000000E+00  0.74505805969E-08  0.10566000000E+00  0.10566000000E+00 0. -1.
     999900   -1    0    0    0    0 -0.00000000000E+00 -0.00000000000E+00 -0.74505805969E-08  0.93827000000E+00  0.93827000000E+00 0.  1.
     999902    2    1    2    0    0 -0.36814643477E-02  0.18276455481E-01  0.11137080365E-01  0.10222132654E+01  0.10219825553E+01 0.  0.
     999903    2    3    3    0    0  0.94450688403E-01 -0.13139841432E+00  0.37337350185E-01  0.16784569797E+00  0.24323338248E-01 0.  0.
         14    1    1    2    0    0  0.36814643477E-02 -0.18276455481E-01 -0.11137080365E-01  0.21716734648E-01  0.00000000000E+00 0.  1.
     999901    1    3    3    0    0 -0.98132152750E-01  0.14967486980E+00 -0.26200269820E-01  0.85436756738E+00  0.83500000000E+00 0.  1.
        -11    1    4    4    0    0  0.67426229894E-01 -0.94361265459E-01  0.15326739936E-01  0.11698510578E+00  0.51100000000E-03 0. -1.
         11    1    4    4    0    0  0.27024458508E-01 -0.37037148860E-01  0.22010610249E-01  0.50860592189E-01  0.51100000000E-03 0.  1.
</event>
<event>
 8    1  0.5716970E+005  0.1043930E+01  0.7957747E-01            NaN
         13   -1    0    0    0    0  0.00000000000E+00  0.00000000000E+00  0.74505805969E-08  0.10566000000E+00  0.10566000000E+00 0.  1.
     999900   -1    0    0    0    0 -0.00000000000E+00 -0.00000000000E+00 -0.74505805969E-08  0.93827000000E+00  0.93827000000E+00 0.  1.
     999902    2    1    2    0    0 -0.24777089967E-01  0.10390937972E-01 -0.58684423126E-02  0.10164288292E+01  0.10160567162E+01 0.  0.
     999903    2    3    3    0    0  0.66799836599E-01  0.79299767746E-01  0.12486707474E+00  0.16352113449E+00  0.19917422949E-01 0.  0.
         14    1    1    2    0    0  0.24777089967E-01 -0.10390937972E-01  0.58684423126E-02  0.27501170781E-01  0.00000000000E+00 0.  1.
     999901    1    3    3    0    0 -0.91576926566E-01 -0.68908829774E-01 -0.13073551706E+00  0.85290769472E+00  0.83500000000E+00 0.  1.
        -11    1    4    4    0    0  0.78620144604E-02  0.21471574879E-01  0.30628757684E-01  0.38225929909E-01  0.51100000000E-03 0. -1.
         11    1    4    4    0    0  0.58937822138E-01  0.57828192868E-01  0.94238317060E-01  0.12529520459E+00  0.51100000000E-03 0.  1.
</event>
<event>
 8    1  0.5716970E+005  0.1043930E+01  0.7957747E-01            NaN
         13   -1    0    0    0    0  0.00000000000E+00  0.00000000000E+00  0.74505805969E-08  0.10566000000E+00  0.10566000000E+00 0. -1.
     999900   -1    0    0    0    0 -0.00000000000E+00 -0.00000000000E+00 -0.74505805969E-08  0.93827000000E+00  0.93827000000E+00 0.  1.
     999902    2    1    2    0    0 -0.11532218036E-01  0.23370145718E-02  0.20491359244E-01  0.10203005799E+01  0.10200269231E+01 0.  0.
     999903    2    3    3    0    0  0.11288172383E+00 -0.47906631760E-02 -0.11805976989E+00  0.16475920271E+00  0.21029778498E-01 0.  0.
         14    1    1    2    0    0  0.11532218036E-01 -0.23370145718E-02 -0.20491359244E-01  0.23629420087E-01  0.00000000000E+00 0.  1.
     999901    1    3    3    0    0 -0.12441394187E+00  0.71276777478E-02  0.13855112913E+00  0.85554137720E+00  0.83500000000E+00 0. -1.
        -11    1    4    4    0    0  0.18047938893E-01  0.44613395979E-02 -0.28233165845E-01  0.33808348436E-01  0.51100000000E-03 0.  1.
         11    1    4    4    0    0  0.94833784938E-01 -0.92520027740E-02 -0.89826604041E-01  0.13095085428E+00  0.51100000000E-03 0. -1.
</event>
<event>
 8    1  0.5716970E+005  0.1043930E+01  0.7957747E-01            NaN
         13   -1    0    0    0    0  0.00000000000E+00  0.00000000000E+00  0.74505805969E-08  0.10566000000E+00  0.10566000000E+00 0.  1.
     999900   -1    0    0    0    0 -0.00000000000E+00 -0.00000000000E+00 -0.74505805969E-08  0.93827000000E+00  0.93827000000E+00 0.  1.
     999902    2    1    2    0    0 -0.19415626979E-02 -0.61903175313E-03 -0.23023235002E-01  0.10208167524E+01  0.10205550547E+01 0.  0.
     999903    2    3    3    0    0  0.16147018126E+00 -0.37983865935E-01  0.18879416842E-01  0.16812667906E+00  0.19868425257E-01 0.  0.
         14    1    1    2    0    0  0.19415626979E-02  0.61903175313E-03  0.23023235002E-01  0.23113247629E-01  0.00000000000E+00 0.  1.
     999901    1    3    3    0    0 -0.16341174396E+00  0.37364834182E-01 -0.41902651844E-01  0.85269007331E+00  0.83500000000E+00 0. -1.
        -11    1    4    4    0    0  0.99327750332E-01 -0.18198634253E-01  0.31155222173E-02  0.10103048983E+00  0.51100000000E-03 0. -1.
         11    1    4    4    0    0  0.62142430929E-01 -0.19785231682E-01  0.15763894625E-01  0.67096189230E-01  0.51100000000E-03 0.  1.
</event>
<event>
 8    1  0.1104445E+006  0.1043930E+01  0.7957747E-01            NaN
         13   -1    0    0    0    0  0.00000000000E+00  0.00000000000E+00  0.74505805969E-08  0.10566000000E+00  0.10566000000E+00 0. -1.
     999900   -1    0    0    0    0 -0.00000000000E+00 -0.00000000000E+00 -0.74505805969E-08  0.93827000000E+00  0.93827000000E+00 0.  1.
     999902    2    1    2    0    0  0.10452245091E-01 -0.16428827839E-01 -0.16196545611E-01  0.10186024675E+01  0.10182875345E+01 0.  0.
     999903    2    3    3    0    0  0.16629388874E+00  0.14937662093E-01  0.83512930968E-02  0.16825073385E+00  0.19020361821E-01 0.  0.
         14    1    1    2    0    0 -0.10452245091E-01  0.16428827839E-01  0.16196545611E-01  0.25327532476E-01  0.00000000000E+00 0.  1.
     999901    1    3    3    0    0 -0.15584164364E+00 -0.31366489932E-01 -0.24547838708E-01  0.85035173368E+00  0.83500000000E+00 0.  1.
        -11    1    4    4    0    0  0.11366578972E+00  0.14436562946E-02  0.40593821020E-02  0.11374856307E+00  0.51100000000E-03 0. -1.
         11    1    4    4    0    0  0.52628099019E-01  0.13494005798E-01  0.42919109948E-02  0.54502170780E-01  0.51100000000E-03 0.  1.
</event>
<event>
 8    1  0.5716970E+005  0.1043930E+01  0.7957747E-01            NaN
         13   -1    0    0    0    0  0.00000000000E+00  0.00000000000E+00  0.74505805969E-08  0.10566000000E+00  0.10566000000E+00 0.  1.
     999900   -1    0    0    0    0 -0.00000000000E+00 -0.00000000000E+00 -0.74505805969E-08  0.93827000000E+00  0.93827000000E+00 0.  1.
     999902    2    1    2    0    0  0.15838654181E-01 -0.31418240711E-02  0.17256953642E-01  0.10202966237E+01  0.10200228742E+01 0.  0.
     999903    2    3    3    0    0 -0.99025970078E-01  0.10825422266E+00 -0.73479342467E-01  0.16527554998E+00  0.19790759929E-01 0.  0.
         14    1    1    2    0    0 -0.15838654181E-01  0.31418240711E-02 -0.17256953642E-01  0.23633376266E-01  0.00000000000E+00 0. -1.
     999901    1    3    3    0    0  0.11486462426E+00 -0.11139604673E+00  0.90736296109E-01  0.85502107375E+00  0.83500000000E+00 0.  1.
        -11    1    4    4    0    0 -0.34357423556E-01  0.48097214348E-01 -0.22180433183E-01  0.63134834431E-01  0.51100000000E-03 0.  1.
         11    1    4    4    0    0 -0.64668546522E-01  0.60157008309E-01 -0.51298909284E-01  0.10214071555E+00  0.51100000000E-03 0. -1.
</event>
<event>
 8    1  0.5716970E+005  0.1043930E+01  0.7957747E-01            NaN
         13   -1    0    0    0    0  0.00000000000E+00  0.00000000000E+00  0.74505805969E-08  0.10566000000E+00  0.10566000000E+00 0. -1.
     999900   -1    0    0    0    0 -0.00000000000E+00 -0.00000000000E+00 -0.74505805969E-08  0.93827000000E+00  0.93827000000E+00 0. -1.
     999902    2    1    2    0    0 -0.14815019910E-01  0.24657852757E-01 -0.16693093748E-01  0.10106711080E+01  0.10101237225E+01 0.  0.
     999903    2    3    3    0    0 -0.40793124681E-01 -0.77682140829E-02  0.15113384051E+00  0.15795943834E+00  0.19629626611E-01 0.  0.
         14    1    1    2    0    0  0.14815019910E-01 -0.24657852757E-01  0.16693093748E-01  0.33258891990E-01  0.00000000000E+00 0. -1.
     999901    1    3    3    0    0  0.25978104771E-01  0.32426066839E-01 -0.16782693426E+00  0.85271166968E+00  0.83500000000E+00 0. -1.
        -11    1    4    4    0    0 -0.19540923202E-01 -0.26447135701E-02  0.10585022475E+00  0.10767252848E+00  0.51100000000E-03 0.  1.
         11    1    4    4    0    0 -0.21252201479E-01 -0.51235005128E-02  0.45283615759E-01  0.50286909852E-01  0.51100000000E-03 0. -1.
</event>
<event>
 8    1  0.5716970E+005  0.1043930E+01  0.7957747E-01            NaN
         13   -1    0    0    0    0  0.00000000000E+00  0.00000000000E+00  0.74505805969E-08  0.10566000000E+00  0.10566000000E+00 0.  1.
     999900   -1    0    0    0    0 -0.00000000000E+00 -0.00000000000E+00 -0.74505805969E-08  0.93827000000E+00  0.93827000000E+00 0.  1.
     999902    2    1    2    0    0  0.23389566015E-01  0.25025860878E-02  0.67676273815E-02  0.10194527551E+01  0.10191588612E+01 0.  0.
     999903    2    3    3    0    0 -0.93156152260E-01 -0.88109825551E-01 -0.10132503961E+00  0.16464135007E+00  0.19964980256E-01 0.  0.
         14    1    1    2    0    0 -0.23389566015E-01 -0.25025860878E-02 -0.67676273815E-02  0.24477244858E-01  0.00000000000E+00 0. -1.
     999901    1    3    3    0    0  0.11654571827E+00  0.90612411639E-01  0.10809266699E+00  0.85481140508E+00  0.83500000000E+00 0. -1.
        -11    1    4    4    0    0 -0.31185087662E-01 -0.17288591410E-01 -0.27619462060E-01  0.45105441921E-01  0.51100000000E-03 0. -1.
         11    1    4    4    0    0 -0.61971064598E-01 -0.70821234141E-01 -0.73705577551E-01  0.11953590814E+00  0.51100000000E-03 0.  1.
</event>
<event>
 8    1  0.5716970E+005  0.1043930E+01  0.7957747E-01            NaN
         13   -1    0    0    0    0  0.00000000000E+00  0.00000000000E+00  0.74505805969E-08  0.10566000000E+00  0.10566000000E+00 0. -1.
     999900   -1    0    0    0    0 -0.00000000000E+00 -0.00000000000E+00 -0.74505805969E-08  0.93827000000E+00  0.93827000000E+00 0.  1.
     999902    2    1    2    0    0 -0.20493227601E-01  0.12602074594E-01 -0.68174647365E-03  0.10198623985E+01  0.10195783749E+01 0.  0.
     999903    2    3    3    0    0 -0.88617468639E-01  0.53399555118E-01 -0.13412854206E+00  0.17054597112E+00  0.19771045435E-01 0.  0.
         14    1    1    2    0    0  0.20493227601E-01 -0.12602074594E-01  0.68174647365E-03  0.24067601456E-01  0.00000000000E+00 0.  1.
     999901    1    3    3    0    0  0.68124241038E-01 -0.40797480523E-01  0.13344679558E+00  0.84931642742E+00  0.83500000000E+00 0. -1.
        -11    1    4    4    0    0 -0.45054403068E-01  0.30861152519E-01 -0.55440604678E-01  0.77821794754E-01  0.51100000000E-03 0.  1.
         11    1    4    4    0    0 -0.43563065571E-01  0.22538402599E-01 -0.78687937378E-01  0.92724176370E-01  0.51100000000E-03 0. -1.
</event>
<event>
 8    1  0.5716970E+005  0.1043930E+01  0.7957747E-01            NaN
         13   -1    0    0    0    0  0.00000000000E+00  0.00000000000E+00  0.74505805969E-08  0.10566000000E+00  0.10566000000E+00 0.  1.
     999900   -1    0    0    0    0 -0.00000000000E+00 -0.00000000000E+00 -0.74505805969E-08  0.93827000000E+00  0.93827000000E+00 0. -1.
     999902    2    1    2    0    0  0.37416544592E-02  0.14011782203E-02  0.21847397711E-01  0.10217202709E+01  0.10214788495E+01 0.  0.
     999903    2    3    3    0    0 -0.77376670523E-01  0.65067440291E-01  0.13830450009E+00  0.17235531270E+00  0.18902331760E-01 0.  0.
         14    1    1    2    0    0 -0.37416544592E-02 -0.14011782203E-02 -0.21847397711E-01  0.22209729068E-01  0.00000000000E+00 0. -1.
     999901    1    3    3    0    0  0.81118324982E-01 -0.63666262071E-01 -0.11645710237E+00  0.84936495823E+00  0.83500000000E+00 0. -1.
        -11    1    4    4    0    0 -0.33429566359E-01  0.22949963412E-01  0.41663638899E-01  0.58140834659E-01  0.51100000000E-03 0. -1.
         11    1    4    4    0    0 -0.43947104164E-01  0.42117476879E-01  0.96640861186E-01  0.11421447804E+00  0.51100000000E-03 0.  1.
</event>
<event>
 8    1  0.5716970E+005  0.1043930E+01  0.7957747E-01            NaN
         13   -1    0    0    0    0  0.00000000000E+00  0.00000000000E+00  0.74505805969E-08  0.10566000000E+00  0.10566000000E+00 0.  1.
     999900   -1    0    0    0    0 -0.00000000000E+00 -0.00000000000E+00 -0.74505805969E-08  0.93827000000E+00  0.93827000000E+00 0. -1.
     999902    2    1    2    0    0  0.10493446293E-01  0.13095396909E-01  0.16372422409E-01  0.10204852127E+01  0.10202158651E+01 0.  0.
     999903    2    3    3    0    0  0.41972882298E-01  0.36864388353E-01  0.16147580057E+00  0.17205377164E+00  0.20183166023E-01 0.  0.
         14    1    1    2    0    0 -0.10493446293E-01 -0.13095396909E-01 -0.16372422409E-01  0.23444787285E-01  0.00000000000E+00 0. -1.
     999901    1    3    3    0    0 -0.31479436004E-01 -0.23768991444E-01 -0.14510337816E+00  0.84843144107E+00  0.83500000000E+00 0. -1.
        -11    1    4    4    0    0  0.27578821005E-01  0.17070202971E-01  0.66730215997E-01  0.74196806168E-01  0.51100000000E-03 0.  1.
         11    1    4    4    0    0  0.14394061293E-01  0.19794185382E-01  0.94745584570E-01  0.97856965475E-01  0.51100000000E-03 0. -1.
</event>
<event>
 7    1  0.8190138E+005  0.1043930E+01  0.7957747E-01            NaN
         13   -1    0    0    0    0  0.00000000000E+00  0.00000000000E+00  0.74505805969E-08  0.10566000000E+00  0.10566000000E+00 0.  1.
     999900   -1    0    0    0    0 -0.00000000000E+00 -0.00000000000E+00 -0.74505805969E-08  0.93827000000E+00  0.93827000000E+00 0.  1.
     999903    2    1    2    0    0  0.78621688155E-01 -0.18690296462E-01 -0.12742307093E+00  0.15222476718E+00  0.20125697716E-01 0.  0.
         14    1    1    2    0    0  0.29283063107E-02  0.31606458109E-01  0.35486522190E-01  0.47611305686E-01  0.00000000000E+00 0.  1.
     999901    1    1    2    0    0 -0.81549994466E-01 -0.12916161647E-01  0.91936548737E-01  0.84409392713E+00  0.83500000000E+00 0. -1.
        -11    1    3    3    0    0  0.59368752018E-01 -0.93492558913E-02 -0.78851966646E-01  0.99146109691E-01  0.51100000000E-03 0. -1.
         11    1    3    3    0    0  0.19252936137E-01 -0.93410405704E-02 -0.48571104281E-01  0.53078657490E-01  0.51100000000E-03 0.  1.
</event>
<event>
 8    1  0.5716970E+005  0.1043930E+01  0.7957747E-01            NaN
         13   -1    0    0    0    0  0.00000000000E+00  0.00000000000E+00  0.74505805969E-08  0.10566000000E+00  0.10566000000E+00 0.  1.
     999900   -1    0    0    0    0 -0.00000000000E+00 -0.00000000000E+00 -0.74505805969E-08  0.93827000000E+00  0.93827000000E+00 0.  1.
     999902    2    1    2    0    0 -0.57511686170E-02 -0.21950668315E-01 -0.65526154802E-02  0.10203112670E+01  0.10200378606E+01 0.  0.
     999903    2    3    3    0    0 -0.16052952546E+00 -0.35040104471E-01 -0.39232837230E-01  0.17035793298E+00  0.22024358003E-01 0.  0.
         14    1    1    2    0    0  0.57511686170E-02  0.21950668315E-01  0.65526154802E-02  0.23618733022E-01  0.00000000000E+00 0.  1.
     999901    1    3    3    0    0  0.15477835684E+00  0.13089436157E-01  0.32680221750E-01  0.84995333400E+00  0.83500000000E+00 0. -1.
        -11    1    4    4    0    0 -0.49410833012E-01 -0.18003174708E-02 -0.16808919817E-01  0.52225209126E-01  0.51100000000E-03 0.  1.
         11    1    4    4    0    0 -0.11111869245E+00 -0.33239787000E-01 -0.22423917414E-01  0.11813272385E+00  0.51100000000E-03 0. -1.
</event>
<event>
 8    1  0.5716970E+005  0.1043930E+01  0.7957747E-01            NaN
         13   -1    0    0    0    0  0.00000000000E+00  0.00000000000E+00  0.74505805969E-08  0.10566000000E+00  0.10566000000E+00 0. -1.
     999900   -1    0    0    0    0 -0.00000000000E+00 -0.00000000000E+00 -0.74505805969E-08  0.93827000000E+00  0.93827000000E+00 0. -1.
     999902    2    1    2    0    0 -0.14059638911E-01  0.43721260392E-02 -0.18450853295E-01  0.10203244303E+01  0.10200513321E+01 0.  0.
     999903    2    3    3    0    0  0.45157222264E-01 -0.13229186854E+00 -0.92799948458E-01  0.16889241776E+00  0.19300392177E-01 0.  0.
         14    1    1    2    0    0  0.14059638911E-01 -0.43721260392E-02  0.18450853295E-01  0.23605569676E-01  0.00000000000E+00 0. -1.
     999901    1    3    3    0    0 -0.59216861175E-01  0.13666399458E+00  0.74349095163E-01  0.85143201256E+00  0.83500000000E+00 0. -1.
        -11    1    4    4    0    0  0.43171792859E-02 -0.39293928311E-01 -0.25219135594E-01  0.46892608801E-01  0.51100000000E-03 0.  1.
         11    1    4    4    0    0  0.40840042978E-01 -0.92997940234E-01 -0.67580812864E-01  0.12199980896E+00  0.51100000000E-03 0. -1.
</event>
<event>
 8    1  0.5716970E+005  0.1043930E+01  0.7957747E-01            NaN
         13   -1    0    0    0    0  0.00000000000E+00  0.00000000000E+00  0.74505805969E-08  0.10566000000E+00  0.10566000000E+00 0. -1.
     999900   -1    0    0    0    0 -0.00000000000E+00 -0.00000000000E+00 -0.74505805969E-08  0.93827000000E+00  0.93827000000E+00 0.  1.
     999902    2    1    2    0    0 -0.23149919093E-01 -0.39597279689E-02 -0.36126474602E-02  0.10201676470E+01  0.10198908660E+01 0.  0.
     999903    2    3    3    0    0  0.61776911521E-01 -0.14815238022E+00  0.42610162624E-01  0.16731031090E+00  0.20287917942E-01 0.  0.
         14    1    1    2    0    0  0.23149919093E-01  0.39597279689E-02  0.36126474602E-02  0.23762353025E-01  0.00000000000E+00 0. -1.
     999901    1    3    3    0    0 -0.84926830614E-01  0.14419265225E+00 -0.46222810084E-01  0.85285733607E+00  0.83500000000E+00 0.  1.
        -11    1    4    4    0    0  0.37725818529E-01 -0.68177488973E-01  0.15012620781E-01  0.79353936827E-01  0.51100000000E-03 0.  1.
         11    1    4    4    0    0  0.24051092992E-01 -0.79974891245E-01  0.27597541843E-01  0.87956374076E-01  0.51100000000E-03 0. -1.
</event>
<event>
 8    1  0.5716970E+005  0.1043930E+01  0.7957747E-01            NaN
         13   -1    0    0    0    0  0.00000000000E+00  0.00000000000E+00  0.74505805969E-08  0.10566000000E+00  0.10566000000E+00 0.  1.
     999900   -1    0    0    0    0 -0.00000000000E+00 -0.00000000000E+00 -0.74505805969E-08  0.93827000000E+00  0.93827000000E+00 0. -1.
     999902    2    1    2    0    0  0.65970512829E-02  0.30471079291E-02 -0.22500408694E-01  0.10202852470E+01  0.10200112308E+01 0.  0.
     999903    2    3    3    0    0 -0.15818549404E+00 -0.88952266298E-02 -0.54036213107E-01  0.16851332123E+00  0.19366246962E-01 0.  0.
         14    1    1    2    0    0 -0.65970512829E-02 -0.30471079291E-02  0.22500408694E-01  0.23644752986E-01  0.00000000000E+00 0.  1.
     999901    1    3    3    0    0  0.16478254533E+00  0.11942334559E-01  0.31535804413E-01  0.85177192579E+00  0.83500000000E+00 0. -1.
        -11    1    4    4    0    0 -0.10274808306E+00 -0.25031088491E-02 -0.44041330545E-01  0.11181830818E+00  0.51100000000E-03 0. -1.
         11    1    4    4    0    0 -0.55437410984E-01 -0.63921177807E-02 -0.99948825619E-02  0.56695013050E-01  0.51100000000E-03 0.  1.
</event>
<event>
 8    1  0.5716970E+005  0.1043930E+01  0.7957747E-01            NaN
         13   -1    0    0    0    0  0.00000000000E+00  0.00000000000E+00  0.74505805969E-08  0.10566000000E+00  0.10566000000E+00 0.  1.
     999900   -1    0    0    0    0 -0.00000000000E+00 -0.00000000000E+00 -0.74505805969E-08  0.93827000000E+00  0.93827000000E+00 0. -1.
     999902    2    1    2    0    0  0.64019016901E-02 -0.18280833349E-01 -0.12384645478E-01  0.10209397269E+01  0.10206808381E+01 0.  0.
     999903    2    3    3    0    0  0.21783992433E-01  0.13430626867E+00  0.92205169130E-01  0.16555474824E+00  0.19846040347E-01 0.  0.
         14    1    1    2    0    0 -0.64019016901E-02  0.18280833349E-01  0.12384645478E-01  0.22990273091E-01  0.00000000000E+00 0.  1.
     999901    1    3    3    0    0 -0.15382090743E-01 -0.15258710202E+00 -0.10458981461E+00  0.85538497867E+00  0.83500000000E+00 0. -1.
        -11    1    4    4    0    0  0.50774429714E-02  0.86825908578E-01  0.54188120572E-01  0.10247503286E+00  0.51100000000E-03 0.  1.
         11    1    4    4    0    0  0.16706549461E-01  0.47480360097E-01  0.38017048558E-01  0.63079715376E-01  0.51100000000E-03 0. -1.
</event>
<event>
 8    1  0.5716970E+005  0.1043930E+01  0.7957747E-01            NaN
         13   -1    0    0    0    0  0.00000000000E+00  0.00000000000E+00  0.74505805969E-08  0.10566000000E+00  0.10566000000E+00 0.  1.
     999900   -1    0    0    0    0 -0.00000000000E+00 -0.00000000000E+00 -0.74505805969E-08  0.93827000000E+00  0.93827000000E+00 0. -1.
     999902    2    1    2    0    0 -0.10753388386E-01 -0.12816151547E-01  0.16417982000E-01  0.10204898798E+01  0.10202206406E+01 0.  0.
     999903    2    3    3    0    0  0.10678858155E+00 -0.41090990290E-01 -0.11856561757E+00  0.16605371872E+00  0.20585460866E-01 0.  0.
         14    1    1    2    0    0  0.10753388386E-01  0.12816151547E-01 -0.16417982000E-01  0.23440120204E-01  0.00000000000E+00 0. -1.
     999901    1    3    3    0    0 -0.11754196994E+00  0.28274838743E-01  0.13498359957E+00  0.85443616108E+00  0.83500000000E+00 0.  1.
        -11    1    4    4    0    0  0.58460741898E-01 -0.30455804513E-01 -0.77530256619E-01  0.10176647869E+00  0.51100000000E-03 0.  1.
         11    1    4    4    0    0  0.48327839652E-01 -0.10635185776E-01 -0.41035360948E-01  0.64287240033E-01  0.51100000000E-03 0. -1.
</event>
<event>
 8    1  0.5716970E+005  0.1043930E+01  0.7957747E-01            NaN
         13   -1    0    0    0    0  0.00000000000E+00  0.00000000000E+00  0.74505805969E-08  0.10566000000E+00  0.10566000000E+00 0.  1.
     999900   -1    0    0    0    0 -0.00000000000E+00 -0.00000000000E+00 -0.74505805969E-08  0.93827000000E+00  0.93827000000E+00 0. -1.
     999902    2    1    2    0    0 -0.53831866020E-02 -0.19316306180E-01  0.12726382700E-01  0.10201800695E+01  0.10199035812E+01 0.  0.
     999903    2    3    3    0    0  0.11617150287E+00  0.44182506948E-01  0.11156042216E+00  0.16824062965E+00  0.20279784850E-01 0.  0.
         14    1    1    2    0    0  0.53831866020E-02  0.19316306180E-01 -0.12726382700E-01  0.23749930507E-01  0.00000000000E+00 0. -1.
     999901    1    3    3    0    0 -0.12155468947E+00 -0.63498813128E-01 -0.98834039461E-01  0.85193943984E+00  0.83500000000E+00 0. -1.
        -11    1    4    4    0    0  0.22368226726E-01  0.22985191036E-02  0.27318963113E-01  0.35386545798E-01  0.51100000000E-03 0. -1.
         11    1    4    4    0    0  0.93803276144E-01  0.41883987844E-01  0.84241459048E-01  0.13285408385E+00  0.51100000000E-03 0.  1.
</event>
<event>
 8    1  0.5716970E+005  0.1043930E+01  0.7957747E-01            NaN
         13   -1    0    0    0    0  0.00000000000E+00  0.00000000000E+00  0.74505805969E-08  0.10566000000E+00  0.10566000000E+00 0.  1.
     999900   -1    0    0    0    0 -0.00000000000E+00 -0.00000000000E+00 -0.74505805969E-08  0.93827000000E+00  0.93827000000E+00 0. -1.
     999902    2    1    2    0    0 -0.20446754115E-01 -0.86092497796E-02  0.77317422199E-02  0.10204359843E+01  0.10201654911E+01 0.  0.
     999903    2    3    3    0    0 -0.90762759474E-01 -0.62977927808E-01 -0.12746293572E+00  0.16990503560E+00  0.20416249510E-01 0.  0.
         14    1    1    2    0    0  0.20446754115E-01  0.86092497796E-02 -0.77317422199E-02  0.23494015693E-01  0.00000000000E+00 0. -1.
     999901    1    3    3    0    0  0.70316005359E-01  0.54368678029E-01  0.13519467794E+00  0.85053094870E+00  0.83500000000E+00 0.  1.
        -11    1    4    4    0    0 -0.29157258025E-01 -0.10347630539E-01 -0.29227830415E-01  0.42564613766E-01  0.51100000000E-03 0. -1.
         11    1    4    4    0    0 -0.61605501450E-01 -0.52630297270E-01 -0.98235105301E-01  0.12734042184E+00  0.51100000000E-03 0.  1.
</event>
<event>
 8    1  0.5716970E+005  0.1043930E+01  0.7957747E-01            NaN
         13   -1    0    0    0    0  0.00000000000E+00  0.00000000000E+00  0.74505805969E-08  0.10566000000E+00  0.10566000000E+00 0.  1.
     999900   -1    0    0    0    0 -0.00000000000E+00 -0.00000000000E+00 -0.74505805969E-08  0.93827000000E+00  0.93827000000E+00 0.  1.
     999902    2    1    2    0    0 -0.65904349242E-02  0.21629179692E-01 -0.67277504555E-02  0.10203393690E+01  0.10200666204E+01 0.  0.
     999903    2    3    3    0    0  0.61482384791E-01 -0.68437837039E-01  0.13620468450E+00  0.16570455967E+00  0.21034824391E-01 0.  0.
         14    1    1    2    0    0  0.65904349242E-02 -0.21629179692E-01  0.67277504555E-02  0.23590631039E-01  0.00000000000E+00 0.  1.
     999901    1    3    3    0    0 -0.68072819715E-01  0.90067016731E-01 -0.14293243496E+00  0.85463480929E+00  0.83500000000E+00 0.  1.
        -11    1    4    4    0    0  0.13752431397E-01 -0.28533823878E-01  0.54064288317E-01  0.62661925175E-01  0.51100000000E-03 0.  1.
         11    1    4    4    0    0  0.47729953394E-01 -0.39904013161E-01  0.82140396185E-01  0.10304263450E+00  0.51100000000E-03 0. -1.
</event>
<event>
 8    1  0.5716970E+005  0.1043930E+01  0.7957747E-01            NaN
         13   -1    0    0    0    0  0.00000000000E+00  0.00000000000E+00  0.74505805969E-08  0.10566000000E+00  0.10566000000E+00 0.  1.
     999900   -1    0    0    0    0 -0.00000000000E+00 -0.00000000000E+00 -0.74505805969E-08  0.93827000000E+00  0.93827000000E+00 0. -1.
     999902    2    1    2    0    0 -0.20774889458E-01 -0.15770449509E-01  0.11334993944E-01  0.10154908510E+01  0.10150925491E+01 0.  0.
     999903    2    3    3    0    0 -0.59718711177E-01 -0.15460795001E+00 -0.16451970418E-01  0.16767625557E+00  0.19357600019E-01 0.  0.
         14    1    1    2    0    0  0.20774889458E-01  0.15770449509E-01 -0.11334993944E-01  0.28439149028E-01  0.00000000000E+00 0. -1.
     999901    1    3    3    0    0  0.38943821720E-01  0.13883750050E+00  0.27786964362E-01  0.84781459541E+00  0.83500000000E+00 0.  1.
        -11    1    4    4    0    0 -0.41246365482E-01 -0.12757398760E+00 -0.14746355911E-01  0.13488551113E+00  0.51100000000E-03 0. -1.
         11    1    4    4    0    0 -0.18472345695E-01 -0.27033962409E-01 -0.17056145074E-02  0.32790744439E-01  0.51100000000E-03 0.  1.
</event>
<event>
 8    1  0.5716970E+005  0.1043930E+01  0.7957747E-01            NaN
         13   -1    0    0    0    0  0.00000000000E+00  0.00000000000E+00  0.74505805969E-08  0.10566000000E+00  0.10566000000E+00 0.  1.
     999900   -1    0    0    0    0 -0.00000000000E+00 -0.00000000000E+00 -0.74505805969E-08  0.93827000000E+00  0.93827000000E+00 0. -1.
     999902    2    1    2    0    0  0.92274903231E-02 -0.53224742022E-02 -0.20772221295E-01  0.10205856112E+01  0.10203185921E+01 0.  0.
     999903    2    3    3    0    0  0.70313162886E-01 -0.14724210736E+00  0.40228627435E-01  0.16922273607E+00  0.19844719219E-01 0.  0.
         14    1    1    2    0    0 -0.92274903231E-02  0.53224742022E-02  0.20772221295E-01  0.23344388765E-01  0.00000000000E+00 0.  1.
     999901    1    3    3    0    0 -0.61085672563E-01  0.14191963316E+00 -0.61000848729E-01  0.85136287517E+00  0.83500000000E+00 0. -1.
        -11    1    4    4    0    0  0.43932283238E-01 -0.81820426336E-01  0.13788834303E-01  0.93888341921E-01  0.51100000000E-03 0. -1.
         11    1    4    4    0    0  0.26380879648E-01 -0.65421681027E-01  0.26439793132E-01  0.75334394145E-01  0.51100000000E-03 0.  1.
</event>
<event>
 8    1  0.5716970E+005  0.1043930E+01  0.7957747E-01            NaN
         13   -1    0    0    0    0  0.00000000000E+00  0.00000000000E+00  0.74505805969E-08  0.10566000000E+00  0.10566000000E+00 0. -1.
     999900   -1    0    0    0    0 -0.00000000000E+00 -0.00000000000E+00 -0.74505805969E-08  0.93827000000E+00  0.93827000000E+00 0.  1.
     999902    2    1    2    0    0 -0.37580698943E-02 -0.19518756133E-01 -0.19977654161E-01  0.10157482400E+01  0.10153572157E+01 0.  0.
     999903    2    3    3    0    0 -0.97327533022E-01  0.11780011668E+00  0.48436545030E-01  0.16163043788E+00  0.20707085323E-01 0.  0.
         14    1    1    2    0    0  0.37580698943E-02  0.19518756133E-01  0.19977654161E-01  0.28181759989E-01  0.00000000000E+00 0. -1.
     999901    1    3    3    0    0  0.93569463128E-01 -0.13731887281E+00 -0.68414199191E-01  0.85411780213E+00  0.83500000000E+00 0.  1.
        -11    1    4    4    0    0 -0.49571915430E-01  0.44825573349E-01  0.17447032846E-01  0.69075081626E-01  0.51100000000E-03 0.  1.
         11    1    4    4    0    0 -0.47755617592E-01  0.72974543328E-01  0.30989512184E-01  0.92555356257E-01  0.51100000000E-03 0. -1.
</event>
<event>
 8    1  0.5716970E+005  0.1043930E+01  0.7957747E-01            NaN
         13   -1    0    0    0    0  0.00000000000E+00  0.00000000000E+00  0.74505805969E-08  0.10566000000E+00  0.10566000000E+00 0.  1.
     999900   -1    0    0    0    0 -0.00000000000E+00 -0.00000000000E+00 -0.74505805969E-08  0.93827000000E+00  0.93827000000E+00 0. -1.
     999902    2    1    2    0    0  0.76220373799E-02 -0.18828492027E-01 -0.17049875748E-02  0.10235458260E+01  0.10233428279E+01 0.  0.
     999903    2    3    3    0    0  0.38450625135E-01  0.67480151640E-01  0.14979709719E+00  0.16997833281E+00  0.20529049117E-01 0.  0.
         14    1    1    2    0    0 -0.76220373799E-02  0.18828492027E-01  0.17049875748E-02  0.20384173971E-01  0.00000000000E+00 0.  1.
     999901    1    3    3    0    0 -0.30828587755E-01 -0.86308643667E-01 -0.15150208477E+00  0.85356749322E+00  0.83500000000E+00 0. -1.
        -11    1    4    4    0    0  0.39717641399E-01  0.61273886884E-01  0.12902032620E+00  0.14825142814E+00  0.51100000000E-03 0. -1.
         11    1    4    4    0    0 -0.12670162648E-02  0.62062647564E-02  0.20776770993E-01  0.21726904666E-01  0.51100000000E-03 0.  1.
</event>
<event>
 8    1  0.5716970E+005  0.1043930E+01  0.7957747E-01            NaN
         13   -1    0    0    0    0  0.00000000000E+00  0.00000000000E+00  0.74505805969E-08  0.10566000000E+00  0.10566000000E+00 0. -1.
     999900   -1    0    0    0    0 -0.00000000000E+00 -0.00000000000E+00 -0.74505805969E-08  0.93827000000E+00  0.93827000000E+00 0. -1.
     999902    2    1    2    0    0 -0.12812763638E-01 -0.90920901524E-02  0.16416958967E-01  0.10212066737E+01  0.10209538290E+01 0.  0.
     999903    2    3    3    0    0  0.10976713596E+00 -0.12626459658E-02 -0.12288606406E+00  0.16580181975E+00  0.18407614696E-01 0.  0.
         14    1    1    2    0    0  0.12812763638E-01  0.90920901524E-02 -0.16416958967E-01  0.22723326278E-01  0.00000000000E+00 0.  1.
     999901    1    3    3    0    0 -0.12257989959E+00 -0.78294441866E-02  0.13930302303E+00  0.85540485398E+00  0.83500000000E+00 0.  1.
        -11    1    4    4    0    0  0.84729225295E-01 -0.69753598530E-02 -0.86724597902E-01  0.12144593145E+00  0.51100000000E-03 0.  1.
         11    1    4    4    0    0  0.25037910662E-01  0.57127138871E-02 -0.36161466162E-01  0.44355888293E-01  0.51100000000E-03 0. -1.
</event>
<event>
 8    1  0.5716970E+005  0.1043930E+01  0.7957747E-01            NaN
         13   -1    0    0    0    0  0.00000000000E+00  0.00000000000E+00  0.74505805969E-08  0.10566000000E+00  0.10566000000E+00 0.  1.
     999900   -1    0    0    0    0 -0.00000000000E+00 -0.00000000000E+00 -0.74505805969E-08  0.93827000000E+00  0.93827000000E+00 0.  1.
     999902    2    1    2    0    0  0.71760773517E-02  0.22312444431E-01 -0.57871361019E-02  0.10197880820E+01  0.10195022805E+01 0.  0.
     999903    2    3    3    0    0  0.36465910615E-02  0.42189593947E-01 -0.16344738930E+00  0.16979436799E+00  0.17939310661E-01 0.  0.
         14    1    1    2    0    0 -0.71760773517E-02 -0.22312444431E-01  0.57871361019E-02  0.24141918045E-01  0.00000000000E+00 0. -1.
     999901    1    3    3    0    0  0.35294862902E-02 -0.19877149516E-01  0.15766025320E+00  0.84999371397E+00  0.83500000000E+00 0. -1.
        -11    1    4    4    0    0  0.26487345099E-02  0.40400272950E-01 -0.12727528748E+00  0.13356068947E+00  0.51100000000E-03 0.  1.
         11    1    4    4    0    0  0.99785655161E-03  0.17893209962E-02 -0.36172101824E-01  0.36233678515E-01  0.51100000000E-03 0. -1.
</event>
<event>
 8    1  0.5716970E+005  0.1043930E+01  0.7957747E-01            NaN
         13   -1    0    0    0    0  0.00000000000E+00  0.00000000000E+00  0.74505805969E-08  0.10566000000E+00  0.10566000000E+00 0.  1.
     999900   -1    0    0    0    0 -0.00000000000E+00 -0.00000000000E+00 -0.74505805969E-08  0.93827000000E+00  0.93827000000E+00 0. -1.
     999902    2    1    2    0    0 -0.19534703721E-01  0.18317207560E-02 -0.14345704348E-01  0.10196244639E+01  0.10193347283E+01 0.  0.
     999903    2    3    3    0    0 -0.23908030117E-01  0.12106479701E+00 -0.11503313756E+00  0.17015485784E+00  0.22175976441E-01 0.  0.
         14    1    1    2    0    0  0.19534703721E-01 -0.18317207560E-02  0.14345704348E-01  0.24305536070E-01  0.00000000000E+00 0.  1.
     999901    1    3    3    0    0  0.43733263956E-02 -0.11923307626E+00  0.10068743321E+00  0.84946960609E+00  0.83500000000E+00 0.  1.
        -11    1    4    4    0    0 -0.11060718606E-01  0.10054854707E+00 -0.93702879018E-01  0.13788705694E+00  0.51100000000E-03 0. -1.
         11    1    4    4    0    0 -0.12847311511E-01  0.20516249943E-01 -0.21330258542E-01  0.32267800905E-01  0.51100000000E-03 0.  1.
</event>
<event>
 8    1  0.5716970E+005  0.1043930E+01  0.7957747E-01            NaN
         13   -1    0    0    0    0  0.00000000000E+00  0.00000000000E+00  0.74505805969E-08  0.10566000000E+00  0.10566000000E+00 0. -1.
     999900   -1    0    0    0    0 -0.00000000000E+00 -0.00000000000E+00 -0.74505805969E-08  0.93827000000E+00  0.93827000000E+00 0.  1.
     999902    2    1    2    0    0  0.18080221040E-01  0.14915977239E-01 -0.32142434146E-03  0.10204889232E+01  0.10202196617E+01 0.  0.
     999903    2    3    3    0    0 -0.16031755786E+00 -0.11026234419E-01 -0.34536613343E-01  0.16556527451E+00  0.19894352461E-01 0.  0.
         14    1    1    2    0    0 -0.18080221040E-01 -0.14915977239E-01  0.32142434146E-03  0.23441076841E-01  0.00000000000E+00 0.  1.
     999901    1    3    3    0    0  0.17839777890E+00  0.25942211659E-01  0.34215189001E-01  0.85492364865E+00  0.83500000000E+00 0. -1.
        -11    1    4    4    0    0 -0.53893296562E-01 -0.47477811940E-02 -0.21258700041E-01  0.58131078513E-01  0.51100000000E-03 0.  1.
         11    1    4    4    0    0 -0.10642426129E+00 -0.62784532254E-02 -0.13277913302E-01  0.10743419600E+00  0.51100000000E-03 0. -1.
</event>
<event>
 8    1  0.5716970E+005  0.1043930E+01  0.7957747E-01            NaN
         13   -1    0    0    0    0  0.00000000000E+00  0.00000000000E+00  0.74505805969E-08  0.10566000000E+00  0.10566000000E+00 0.  1.
     999900   -1    0    0    0    0 -0.00000000000E+00 -0.00000000000E+00 -0.74505805969E-08  0.93827000000E+00  0.93827000000E+00 0. -1.
     999902    2    1    2    0    0 -0.13059834379E-01  0.28153952374E-02  0.16494524095E-01  0.10227037180E+01  0.10224834178E+01 0.  0.
     999903    2    3    3    0    0  0.91060912910E-01 -0.86850725805E-01 -0.10841687457E+00  0.16730381101E+00  0.20030178635E-01 0.  0.
         14    1    1    2    0    0  0.13059834379E-01 -0.28153952374E-02 -0.16494524095E-01  0.21226282045E-01  0.00000000000E+00 0. -1.
     999901    1    3    3    0    0 -0.10412074729E+00  0.89666121042E-01  0.12491139866E+00  0.85539990694E+00  0.83500000000E+00 0.  1.
        -11    1    4    4    0    0  0.33871531429E-01 -0.23076311024E-01 -0.26713303024E-01  0.48925028883E-01  0.51100000000E-03 0. -1.
         11    1    4    4    0    0  0.57189381482E-01 -0.63774414780E-01 -0.81703571543E-01  0.11837878213E+00  0.51100000000E-03 0.  1.
</event>
<event>
 8    1  0.5716970E+005  0.1043930E+01  0.7957747E-01            NaN
         13   -1    0    0    0    0  0.00000000000E+00  0.00000000000E+00  0.74505805969E-08  0.10566000000E+00  0.10566000000E+00 0.  1.
     999900   -1    0    0    0    0 -0.00000000000E+00 -0.00000000000E+00 -0.74505805969E-08  0.93827000000E+00  0.93827000000E+00 0. -1.
     999902    2    1    2    0    0 -0.13698558596E-01 -0.15373517248E-01  0.13852354994E-01  0.10191130042E+01  0.10188107931E+01 0.  0.
     999903    2    3    3    0    0  0.15705682130E+00 -0.38194254338E-01  0.33598538216E-01  0.16629819575E+00  0.20014543702E-01 0.  0.
         14    1    1    2    0    0  0.13698558596E-01  0.15373517248E-01 -0.13852354994E-01  0.24816995770E-01  0.00000000000E+00 0. -1.
     999901    1    3    3    0    0 -0.17075537989E+00  0.22820737089E-01 -0.19746183222E-01  0.85281480848E+00  0.83500000000E+00 0. -1.
        -11    1    4    4    0    0  0.30694170387E-01 -0.15440467215E-01  0.96017062397E-02  0.35679041569E-01  0.51100000000E-03 0. -1.
         11    1    4    4    0    0  0.12636265091E+00 -0.22753787122E-01  0.23996831977E-01  0.13061915418E+00  0.51100000000E-03 0.  1.
</event>
<event>
 8    1  0.5716970E+005  0.1043930E+01  0.7957747E-01            NaN
         13   -1    0    0    0    0  0.00000000000E+00  0.00000000000E+00  0.74505805969E-08  0.10566000000E+00  0.10566000000E+00 0. -1.
     999900   -1    0    0    0    0 -0.00000000000E+00 -0.00000000000E+00 -0.74505805969E-08  0.93827000000E+00  0.93827000000E+00 0. -1.
     999902    2    1    2    0    0 -0.15778087133E-01 -0.12702089890E-01 -0.12124953368E-01  0.10203226788E+01  0.10200495396E+01 0.  0.
     999903    2    3    3    0    0  0.61308235946E-01  0.62755369684E-01  0.13812648779E+00  0.16508199629E+00  0.21822068006E-01 0.  0.
         14    1    1    2    0    0  0.15778087133E-01  0.12702089890E-01  0.12124953368E-01  0.23607321223E-01  0.00000000000E+00 0. -1.
     999901    1    3    3    0    0 -0.77086323079E-01 -0.75457459574E-01 -0.15025144115E+00  0.85524068249E+00  0.83500000000E+00 0. -1.
        -11    1    4    4    0    0  0.48808650471E-01  0.37918884714E-01  0.84741604059E-01  0.10488816310E+00  0.51100000000E-03 0.  1.
         11    1    4    4    0    0  0.12499585475E-01  0.24836484970E-01  0.53384883727E-01  0.60193833191E-01  0.51100000000E-03 0. -1.
</event>
<event>
 8    1  0.5716970E+005  0.1043930E+01  0.7957747E-01            NaN
         13   -1    0    0    0    0  0.00000000000E+00  0.00000000000E+00  0.74505805969E-08  0.10566000000E+00  0.10566000000E+00 0.  1.
     999900   -1    0    0    0    0 -0.00000000000E+00 -0.00000000000E+00 -0.74505805969E-08  0.93827000000E+00  0.93827000000E+00 0.  1.
     999902    2    1    2    0    0  0.19218196969E-01 -0.12023607888E-01  0.65107410394E-02  0.10203440722E+01  0.10200714336E+01 0.  0.
     999903    2    3    3    0    0 -0.37089984030E-01 -0.14532257631E+00 -0.75219896670E-01  0.16896629273E+00  0.19931310130E-01 0.  0.
         14    1    1    2    0    0 -0.19218196969E-01  0.12023607888E-01 -0.65107410394E-02  0.23585927802E-01  0.00000000000E+00 0. -1.
     999901    1    3    3    0    0  0.56308180999E-01  0.13329896842E+00  0.81730637709E-01  0.85137777947E+00  0.83500000000E+00 0. -1.
        -11    1    4    4    0    0 -0.29111999578E-02 -0.87552810507E-02 -0.10603909129E-01  0.14065348957E-01  0.51100000000E-03 0. -1.
         11    1    4    4    0    0 -0.34178784072E-01 -0.13656729526E+00 -0.64615987541E-01  0.15490094377E+00  0.51100000000E-03 0.  1.
</event>
<event>
 8    1  0.6790780E+005  0.1043930E+01  0.7957747E-01            NaN
         13   -1    0    0    0    0  0.00000000000E+00  0.00000000000E+00  0.74505805969E-08  0.10566000000E+00  0.10566000000E+00 0. -1.
     999900   -1    0    0    0    0 -0.00000000000E+00 -0.00000000000E+00 -0.74505805969E-08  0.93827000000E+00  0.93827000000E+00 0.  1.
     999902    2    1    2    0    0 -0.13833252417E-02 -0.23846856993E-01  0.59508238787E-03  0.10200356429E+01  0.10197557416E+01 0.  0.
     999903    2    3    3    0    0  0.79968541395E-01  0.27053755930E-02  0.14649091290E+00  0.16807687595E+00  0.19696750908E-01 0.  0.
         14    1    1    2    0    0  0.13833252417E-02  0.23846856993E-01 -0.59508238787E-03  0.23894357079E-01  0.00000000000E+00 0. -1.
     999901    1    3    3    0    0 -0.81351866637E-01 -0.26552232586E-01 -0.14589583051E+00  0.85195876697E+00  0.83500000000E+00 0.  1.
        -11    1    4    4    0    0  0.28696351171E-01 -0.33261154046E-02  0.70661989738E-01  0.76340824786E-01  0.51100000000E-03 0. -1.
         11    1    4    4    0    0  0.51272190224E-01  0.60314909976E-02  0.75828923162E-01  0.91736051163E-01  0.51100000000E-03 0.  1.
</event>
<event>
 8    1  0.5716970E+005  0.1043930E+01  0.7957747E-01            NaN
         13   -1    0    0    0    0  0.00000000000E+00  0.00000000000E+00  0.74505805969E-08  0.10566000000E+00  0.10566000000E+00 0. -1.
     999900   -1    0    0    0    0 -0.00000000000E+00 -0.00000000000E+00 -0.74505805969E-08  0.93827000000E+00  0.93827000000E+00 0.  1.
     999902    2    1    2    0    0 -0.16064661946E-01 -0.12891162766E-01  0.31816900225E-02  0.10230882488E+01  0.10228759388E+01 0.  0.
     999903    2    3    3    0    0  0.12311346532E+00  0.90284588775E-01 -0.65638948719E-01  0.16753166557E+00  0.21216858121E-01 0.  0.
         14    1    1    2    0    0  0.16064661946E-01  0.12891162766E-01 -0.31816900225E-02  0.20841751182E-01  0.00000000000E+00 0.  1.
     999901    1    3    3    0    0 -0.13917812726E+00 -0.10317575154E+00  0.68820638742E-01  0.85555658324E+00  0.83500000000E+00 0. -1.
        -11    1    4    4    0    0  0.38683067531E-01  0.26515596726E-01 -0.98777061824E-02  0.47930019652E-01  0.51100000000E-03 0. -1.
         11    1    4    4    0    0  0.84430397786E-01  0.63768992049E-01 -0.55761242537E-01  0.11960164592E+00  0.51100000000E-03 0.  1.
</event>
<event>
 8    1  0.5716970E+005  0.1043930E+01  0.7957747E-01            NaN
         13   -1    0    0    0    0  0.00000000000E+00  0.00000000000E+00  0.74505805969E-08  0.10566000000E+00  0.10566000000E+00 0. -1.
     999900   -1    0    0    0    0 -0.00000000000E+00 -0.00000000000E+00 -0.74505805969E-08  0.93827000000E+00  0.93827000000E+00 0. -1.
     999902    2    1    2    0    0 -0.22030856721E-01  0.32186007302E-02 -0.76219760392E-02  0.10203967776E+01  0.10201253703E+01 0.  0.
     999903    2    3    3    0    0  0.15973219549E+00 -0.12056345516E-01 -0.35985208472E-01  0.16523562079E+00  0.18658655015E-01 0.  0.
         14    1    1    2    0    0  0.22030856721E-01 -0.32186007302E-02  0.76219760392E-02  0.23533222415E-01  0.00000000000E+00 0.  1.
     999901    1    3    3    0    0 -0.18176305221E+00  0.15274946246E-01  0.28363232433E-01  0.85516115679E+00  0.83500000000E+00 0.  1.
        -11    1    4    4    0    0  0.62829832209E-01 -0.11604317761E-01 -0.20491865566E-01  0.67100116852E-01  0.51100000000E-03 0. -1.
         11    1    4    4    0    0  0.96902363280E-01 -0.45202775446E-03 -0.15493342906E-01  0.98135503941E-01  0.51100000000E-03 0.  1.
</event>
<event>
 8    1  0.5716970E+005  0.1043930E+01  0.7957747E-01            NaN
         13   -1    0    0    0    0  0.00000000000E+00  0.00000000000E+00  0.74505805969E-08  0.10566000000E+00  0.10566000000E+00 0. -1.
     999900   -1    0    0    0    0 -0.00000000000E+00 -0.00000000000E+00 -0.74505805969E-08  0.93827000000E+00  0.93827000000E+00 0. -1.
     999902    2    1    2    0    0 -0.15533434010E-01 -0.80973080078E-02 -0.16396080555E-01  0.10199365545E+01  0.10196542992E+01 0.  0.
     999903    2    3    3    0    0  0.15284180671E+00 -0.62254940381E-01 -0.56516226686E-02  0.16634197029E+00  0.20035337774E-01 0.  0.
         14    1    1    2    0    0  0.15533434010E-01  0.80973080078E-02  0.16396080555E-01  0.23993445494E-01  0.00000000000E+00 0. -1.
     999901    1    3    3    0    0 -0.16837524072E+00  0.54157632373E-01 -0.10744457886E-01  0.85359458422E+00  0.83500000000E+00 0. -1.
        -11    1    4    4    0    0  0.10460517827E+00 -0.33971549626E-01 -0.87858043102E-02  0.11033476779E+00  0.51100000000E-03 0. -1.
         11    1    4    4    0    0  0.48236628436E-01 -0.28283390755E-01  0.31341816417E-02  0.56007202493E-01  0.51100000000E-03 0.  1.
</event>
<event>
 8    1  0.5716970E+005  0.1043930E+01  0.7957747E-01            NaN
         13   -1    0    0    0    0  0.00000000000E+00  0.00000000000E+00  0.74505805969E-08  0.10566000000E+00  0.10566000000E+00 0. -1.
     999900   -1    0    0    0    0 -0.00000000000E+00 -0.00000000000E+00 -0.74505805969E-08  0.93827000000E+00  0.93827000000E+00 0.  1.
     999902    2    1    2    0    0 -0.37329623748E-02 -0.48823066353E-02  0.22879089377E-01  0.10202398194E+01  0.10199647369E+01 0.  0.
     999903    2    3    3    0    0 -0.59309547762E-01 -0.67117198827E-01 -0.13809655334E+00  0.16578087001E+00  0.19755960685E-01 0.  0.
         14    1    1    2    0    0  0.37329623748E-02  0.48823066353E-02 -0.22879089377E-01  0.23690180600E-01  0.00000000000E+00 0.  1.
     999901    1    3    3    0    0  0.55576585387E-01  0.62234892192E-01  0.16097564271E+00  0.85445894939E+00  0.83500000000E+00 0. -1.
        -11    1    4    4    0    0 -0.40504032312E-01 -0.32101585766E-01 -0.84492059424E-01  0.99046744868E-01  0.51100000000E-03 0. -1.
         11    1    4    4    0    0 -0.18805515449E-01 -0.35015613062E-01 -0.53604493914E-01  0.66734125140E-01  0.51100000000E-03 0.  1.
</event>
<event>
 8    1  0.5716970E+005  0.1043930E+01  0.7957747E-01            NaN
         13   -1    0    0    0    0  0.00000000000E+00  0.00000000000E+00  0.74505805969E-08  0.10566000000E+00  0.10566000000E+00 0. -1.
     999900   -1    0    0    0    0 -0.00000000000E+00 -0.00000000000E+00 -0.74505805969E-08  0.93827000000E+00  0.93827000000E+00 0.  1.
     999902    2    1    2    0    0  0.13994327973E-01 -0.18654304998E-01  0.71162551690E-02  0.10195483389E+01  0.10192567635E+01 0.  0.
     999903    2    3    3    0    0 -0.81200744215E-01 -0.11968496616E+00 -0.83620364708E-01  0.16823909400E+00  0.19848812824E-01 0.  0.
         14    1    1    2    0    0 -0.13994327973E-01  0.18654304998E-01 -0.71162551690E-02  0.24381661100E-01  0.00000000000E+00 0. -1.
     999901    1    3    3    0    0  0.95195072188E-01  0.10103066116E+00  0.90736619877E-01  0.85130924490E+00  0.83500000000E+00 0. -1.
        -11    1    4    4    0    0 -0.53930222131E-01 -0.74201522269E-01 -0.63266533362E-01  0.11143271571E+00  0.51100000000E-03 0.  1.
         11    1    4    4    0    0 -0.27270522084E-01 -0.45483443891E-01 -0.20353831346E-01  0.56806378290E-01  0.51100000000E-03 0. -1.
</event>
<event>
 7    1  0.1289008E+006  0.1043930E+01  0.7957747E-01            NaN
         13   -1    0    0    0    0  0.00000000000E+00  0.00000000000E+00  0.74505805969E-08  0.10566000000E+00  0.10566000000E+00 0. -1.
     999900   -1    0    0    0    0 -0.00000000000E+00 -0.00000000000E+00 -0.74505805969E-08  0.93827000000E+00  0.93827000000E+00 0.  1.
     999903    2    1    2    0    0 -0.10219680702E+00  0.53273303896E-01  0.51817055295E-01  0.12802446847E+00  0.20567572422E-01 0.  0.
         14    1    1    2    0    0 -0.15471877945E-02  0.46031004189E-01  0.43435878844E-01  0.63308156723E-01  0.00000000000E+00 0. -1.
     999901    1    1    2    0    0  0.10374399481E+00 -0.99304308085E-01 -0.95252934139E-01  0.85259737481E+00  0.83500000000E+00 0.  1.
        -11    1    3    3    0    0 -0.42039293269E-01  0.26010049194E-01  0.32666159632E-01  0.59255075257E-01  0.51100000000E-03 0.  1.
         11    1    3    3    0    0 -0.60157513749E-01  0.27263254702E-01  0.19150895663E-01  0.68769393214E-01  0.51100000000E-03 0. -1.
</event>
<event>
 8    1  0.5716970E+005  0.1043930E+01  0.7957747E-01            NaN
         13   -1    0    0    0    0  0.00000000000E+00  0.00000000000E+00  0.74505805969E-08  0.10566000000E+00  0.10566000000E+00 0. -1.
     999900   -1    0    0    0    0 -0.00000000000E+00 -0.00000000000E+00 -0.74505805969E-08  0.93827000000E+00  0.93827000000E+00 0. -1.
     999902    2    1    2    0    0  0.41774879825E-02  0.15505653712E-03  0.23300910373E-01  0.10202570646E+01  0.10199823871E+01 0.  0.
     999903    2    3    3    0    0 -0.44806512893E-01 -0.92146120947E-01  0.13575071369E+00  0.17126419181E+00  0.20115564260E-01 0.  0.
         14    1    1    2    0    0 -0.41774879825E-02 -0.15505653712E-03 -0.23300910373E-01  0.23672935445E-01  0.00000000000E+00 0.  1.
     999901    1    3    3    0    0  0.48984000876E-01  0.92301177484E-01 -0.11244980332E+00  0.84899287275E+00  0.83500000000E+00 0. -1.
        -11    1    4    4    0    0 -0.19064006329E-01 -0.29344154942E-01  0.60755678136E-01  0.70114401611E-01  0.51100000000E-03 0. -1.
         11    1    4    4    0    0 -0.25742506564E-01 -0.62801966005E-01  0.74995035555E-01  0.10114979020E+00  0.51100000000E-03 0.  1.
</event>
<event>
 8    1  0.5716970E+005  0.1043930E+01  0.7957747E-01            NaN
         13   -1    0    0    0    0  0.00000000000E+00  0.00000000000E+00  0.74505805969E-08  0.10566000000E+00  0.10566000000E+00 0. -1.
     999900   -1    0    0    0    0 -0.00000000000E+00 -0.00000000000E+00 -0.74505805969E-08  0.93827000000E+00  0.93827000000E+00 0.  1.
     999902    2    1    2    0    0  0.14455549979E-01  0.22062310609E-02  0.17373473827E-01  0.10212216761E+01  0.10209691689E+01 0.  0.
     999903    2    3    3    0    0  0.15993227129E+00 -0.53485173718E-01 -0.20747723759E-01  0.17096098979E+00  0.18926087287E-01 0.  0.
         14    1    1    2    0    0 -0.14455549979E-01 -0.22062310609E-02 -0.17373473827E-01  0.22708323882E-01  0.00000000000E+00 0.  1.
     999901    1    3    3    0    0 -0.14547672131E+00  0.55691404779E-01  0.38121197586E-01  0.85026068633E+00  0.83500000000E+00 0. -1.
        -11    1    4    4    0    0  0.89053232532E-01 -0.38556360897E-01 -0.75860931100E-02  0.97339001021E-01  0.51100000000E-03 0. -1.
         11    1    4    4    0    0  0.70879038761E-01 -0.14928812821E-01 -0.13161630649E-01  0.73621988769E-01  0.51100000000E-03 0.  1.
</event>
<event>
 8    1  0.5716970E+005  0.1043930E+01  0.7957747E-01            NaN
         13   -1    0    0    0    0  0.00000000000E+00  0.00000000000E+00  0.74505805969E-08  0.10566000000E+00  0.10566000000E+00 0. -1.
     999900   -1    0    0    0    0 -0.00000000000E+00 -0.00000000000E+00 -0.74505805969E-08  0.93827000000E+00  0.93827000000E+00 0.  1.
     999902    2    1    2    0    0 -0.14354216448E-01  0.76238266370E-02 -0.17252109484E-01  0.10202276469E+01  0.10199522782E+01 0.  0.
     999903    2    3    3    0    0 -0.92370193971E-01  0.52411617138E-01 -0.13436660256E+00  0.17226936758E+00  0.18523519546E-01 0.  0.
         14    1    1    2    0    0  0.14354216448E-01 -0.76238266370E-02  0.17252109484E-01  0.23702353133E-01  0.00000000000E+00 0.  1.
     999901    1    3    3    0    0  0.78015977523E-01 -0.44787790501E-01  0.11711449308E+00  0.84795827929E+00  0.83500000000E+00 0. -1.
        -11    1    4    4    0    0 -0.50634297876E-01  0.30466966072E-01 -0.89002820607E-01  0.10683553407E+00  0.51100000000E-03 0. -1.
         11    1    4    4    0    0 -0.41735896095E-01  0.21944651066E-01 -0.45363781954E-01  0.65433833507E-01  0.51100000000E-03 0.  1.
</event>
<event>
 8    1  0.5716970E+005  0.1043930E+01  0.7957747E-01            NaN
         13   -1    0    0    0    0  0.00000000000E+00  0.00000000000E+00  0.74505805969E-08  0.10566000000E+00  0.10566000000E+00 0.  1.
     999900   -1    0    0    0    0 -0.00000000000E+00 -0.00000000000E+00 -0.74505805969E-08  0.93827000000E+00  0.93827000000E+00 0. -1.
     999902    2    1    2    0    0  0.82638421327E-02 -0.22759710559E-01 -0.49924483341E-02  0.10192071350E+01  0.10189072402E+01 0.  0.
     999903    2    3    3    0    0  0.65371961250E-01 -0.14922349154E+00 -0.50011496745E-01  0.17155972020E+00  0.19759656966E-01 0.  0.
         14    1    1    2    0    0 -0.82638421327E-02  0.22759710559E-01  0.49924483341E-02  0.24722864961E-01  0.00000000000E+00 0. -1.
     999901    1    3    3    0    0 -0.57108119118E-01  0.12646378098E+00  0.45019048411E-01  0.84764741484E+00  0.83500000000E+00 0. -1.
        -11    1    4    4    0    0  0.16377202764E-01 -0.21883552624E-01 -0.43575077218E-02  0.27683056919E-01  0.51100000000E-03 0.  1.
         11    1    4    4    0    0  0.48994758486E-01 -0.12733993891E+00 -0.45653989023E-01  0.14387666328E+00  0.51100000000E-03 0. -1.
</event>
<event>
 7    1  0.1321585E+006  0.1043930E+01  0.7957747E-01            NaN
         13   -1    0    0    0    0  0.00000000000E+00  0.00000000000E+00  0.74505805969E-08  0.10566000000E+00  0.10566000000E+00 0. -1.
     999900   -1    0    0    0    0 -0.00000000000E+00 -0.00000000000E+00 -0.74505805969E-08  0.93827000000E+00  0.93827000000E+00 0. -1.
     999903    2    1    2    0    0  0.65461567216E-01  0.90643987919E-02  0.10480242379E+00  0.12558567805E+00  0.20514248505E-01 0.  0.
         14    1    1    2    0    0 -0.19744879182E-03 -0.53015726208E-02  0.63772729398E-01  0.63993020503E-01  0.00000000000E+00 0. -1.
     999901    1    1    2    0    0 -0.65264118424E-01 -0.37628261711E-02 -0.16857515318E+00  0.85435130145E+00  0.83500000000E+00 0. -1.
        -11    1    3    3    0    0  0.56808120098E-01  0.27126500413E-02  0.76607998591E-01  0.95412617343E-01  0.51100000000E-03 0.  1.
         11    1    3    3    0    0  0.86534471181E-02  0.63517487506E-02  0.28194425196E-01  0.30173060705E-01  0.51100000000E-03 0. -1.
</event>
<event>
 8    1  0.8134383E+005  0.1043930E+01  0.7957747E-01            NaN
         13   -1    0    0    0    0  0.00000000000E+00  0.00000000000E+00  0.74505805969E-08  0.10566000000E+00  0.10566000000E+00 0.  1.
     999900   -1    0    0    0    0 -0.00000000000E+00 -0.00000000000E+00 -0.74505805969E-08  0.93827000000E+00  0.93827000000E+00 0.  1.
     999902    2    1    2    0    0  0.69191269237E-02 -0.90035436087E-02  0.23484327157E-01  0.10178445302E+01  0.10175102141E+01 0.  0.
     999903    2    3    3    0    0  0.14598961114E+00 -0.79361255407E-01 -0.10687948927E-01  0.16773656546E+00  0.20252104100E-01 0.  0.
         14    1    1    2    0    0 -0.69191269237E-02  0.90035436087E-02 -0.23484327157E-01  0.26085469843E-01  0.00000000000E+00 0. -1.
     999901    1    3    3    0    0 -0.13907048421E+00  0.70357711798E-01  0.34172276085E-01  0.85010796470E+00  0.83500000000E+00 0.  1.
        -11    1    4    4    0    0  0.89324363267E-01 -0.48419872296E-01  0.33633368200E-02  0.10166070559E+00  0.51100000000E-03 0.  1.
         11    1    4    4    0    0  0.56665247870E-01 -0.30941383110E-01 -0.14051285747E-01  0.66075859866E-01  0.51100000000E-03 0. -1.
</event>
<event>
 8    1  0.5716970E+005  0.1043930E+01  0.7957747E-01            NaN
         13   -1    0    0    0    0  0.00000000000E+00  0.00000000000E+00  0.74505805969E-08  0.10566000000E+00  0.10566000000E+00 0.  1.
     999900   -1    0    0    0    0 -0.00000000000E+00 -0.00000000000E+00 -0.74505805969E-08  0.93827000000E+00  0.93827000000E+00 0. -1.
     999902    2    1    2    0    0 -0.12234845476E-02  0.93927881098E-02 -0.22181515825E-01  0.10198106918E+01  0.10195254318E+01 0.  0.
     999903    2    3    3    0    0  0.47529767695E-01 -0.15624812142E+00  0.24188005841E-01  0.16588509608E+00  0.16132303344E-01 0.  0.
         14    1    1    2    0    0  0.12234845476E-02 -0.93927881098E-02  0.22181515825E-01  0.24119308183E-01  0.00000000000E+00 0.  1.
     999901    1    3    3    0    0 -0.48753252243E-01  0.16564090953E+00 -0.46369521666E-01  0.85392559574E+00  0.83500000000E+00 0. -1.
        -11    1    4    4    0    0  0.21866599407E-01 -0.57112581102E-01  0.24982351053E-02  0.61208638193E-01  0.51100000000E-03 0. -1.
         11    1    4    4    0    0  0.25663168289E-01 -0.99135540317E-01  0.21689770735E-01  0.10467645789E+00  0.51100000000E-03 0.  1.
</event>
<event>
 8    1  0.5716970E+005  0.1043930E+01  0.7957747E-01            NaN
         13   -1    0    0    0    0  0.00000000000E+00  0.00000000000E+00  0.74505805969E-08  0.10566000000E+00  0.10566000000E+00 0. -1.
     999900   -1    0    0    0    0 -0.00000000000E+00 -0.00000000000E+00 -0.74505805969E-08  0.93827000000E+00  0.93827000000E+00 0.  1.
     999902    2    1    2    0    0 -0.18655465672E-01  0.13110885278E-01  0.27192516776E-02  0.10209666370E+01  0.10207083608E+01 0.  0.
     999903    2    3    3    0    0 -0.19560582538E-01 -0.88577994424E-01  0.14061476955E+00  0.16856906462E+00  0.20355310019E-01 0.  0.
         14    1    1    2    0    0  0.18655465672E-01 -0.13110885278E-01 -0.27192516776E-02  0.22963363036E-01  0.00000000000E+00 0. -1.
     999901    1    3    3    0    0  0.90511686556E-03  0.10168887970E+00 -0.13789551787E+00  0.85239757235E+00  0.83500000000E+00 0.  1.
        -11    1    4    4    0    0 -0.19395376134E-01 -0.63675076202E-01  0.11475703185E+00  0.13266549447E+00  0.51100000000E-03 0. -1.
         11    1    4    4    0    0 -0.16520640384E-03 -0.24902918222E-01  0.25857737702E-01  0.35903570145E-01  0.51100000000E-03 0.  1.
</event>
<event>
 8    1  0.5868875E+005  0.1043930E+01  0.7957747E-01            NaN
         13   -1    0    0    0    0  0.00000000000E+00  0.00000000000E+00  0.74505805969E-08  0.10566000000E+00  0.10566000000E+00 0. -1.
     999900   -1    0    0    0    0 -0.00000000000E+00 -0.00000000000E+00 -0.74505805969E-08  0.93827000000E+00  0.93827000000E+00 0. -1.
     999902    2    1    2    0    0  0.10478665657E-01 -0.13790855386E-01 -0.15326103025E-01  0.10208025367E+01  0.10205405133E+01 0.  0.
     999903    2    3    3    0    0  0.14382854558E-01  0.63070038778E-01 -0.15631841723E+00  0.17049278581E+00  0.21157649934E-01 0.  0.
         14    1    1    2    0    0 -0.10478665657E-01  0.13790855386E-01  0.15326103025E-01  0.23127463331E-01  0.00000000000E+00 0. -1.
     999901    1    3    3    0    0 -0.39041889016E-02 -0.76860894164E-01  0.14099231420E+00  0.85030975086E+00  0.83500000000E+00 0.  1.
        -11    1    4    4    0    0  0.94516468031E-03  0.33563520934E-01 -0.58662025477E-01  0.67593621207E-01  0.51100000000E-03 0.  1.
         11    1    4    4    0    0  0.13437689878E-01  0.29506517844E-01 -0.97656391753E-01  0.10289916460E+00  0.51100000000E-03 0. -1.
</event>
<event>
 8    1  0.5716970E+005  0.1043930E+01  0.7957747E-01            NaN
         13   -1    0    0    0    0  0.00000000000E+00  0.00000000000E+00  0.74505805969E-08  0.10566000000E+00  0.10566000000E+00 0.  1.
     999900   -1    0    0    0    0 -0.00000000000E+00 -0.00000000000E+00 -0.74505805969E-08  0.93827000000E+00  0.93827000000E+00 0. -1.
     999902    2    1    2    0    0  0.20219745961E-01  0.90053254105E-02 -0.81520101188E-02  0.10203420946E+01  0.10200694098E+01 0.  0.
     999903    2    3    3    0    0  0.14050116715E-01 -0.42874880257E-01  0.15968224173E+00  0.16704088391E+00  0.19198370675E-01 0.  0.
         14    1    1    2    0    0 -0.20219745961E-01 -0.90053254105E-02  0.81520101188E-02  0.23587905406E-01  0.00000000000E+00 0. -1.
     999901    1    3    3    0    0  0.61696292458E-02  0.51880205667E-01 -0.16783425185E+00  0.85330121069E+00  0.83500000000E+00 0. -1.
        -11    1    4    4    0    0  0.12807225869E-01 -0.11392574594E-01  0.46796440032E-01  0.49839579764E-01  0.51100000000E-03 0. -1.
         11    1    4    4    0    0  0.12428908463E-02 -0.31482305662E-01  0.11288580170E+00  0.11720130414E+00  0.51100000000E-03 0.  1.
</event>
<event>
 8    1  0.5716970E+005  0.1043930E+01  0.7957747E-01            NaN
         13   -1    0    0    0    0  0.00000000000E+00  0.00000000000E+00  0.74505805969E-08  0.10566000000E+00  0.10566000000E+00 0. -1.
     999900   -1    0    0    0    0 -0.00000000000E+00 -0.00000000000E+00 -0.74505805969E-08  0.93827000000E+00  0.93827000000E+00 0.  1.
     999902    2    1    2    0    0 -0.18990229577E-01 -0.10147467758E-01  0.88462848743E-02  0.10206521849E+01  0.10203867040E+01 0.  0.
     999903    2    3    3    0    0  0.13504786325E+00  0.43946370480E-01  0.84535541546E-01  0.16648139343E+00  0.20014687763E-01 0.  0.
         14    1    1    2    0    0  0.18990229577E-01  0.10147467758E-01 -0.88462848743E-02  0.23277815133E-01  0.00000000000E+00 0. -1.
     999901    1    3    3    0    0 -0.15403809282E+00 -0.54093838238E-01 -0.75689256672E-01  0.85417079144E+00  0.83500000000E+00 0. -1.
        -11    1    4    4    0    0  0.63490514173E-01  0.28632660965E-01  0.33677306343E-01  0.77364699620E-01  0.51100000000E-03 0.  1.
         11    1    4    4    0    0  0.71557349075E-01  0.15313709515E-01  0.50858235204E-01  0.89116693806E-01  0.51100000000E-03 0. -1.
</event>
<event>
 8    1  0.5716970E+005  0.1043930E+01  0.7957747E-01            NaN
         13   -1    0    0    0    0  0.00000000000E+00  0.00000000000E+00  0.74505805969E-08  0.10566000000E+00  0.10566000000E+00 0. -1.
     999900   -1    0    0    0    0 -0.00000000000E+00 -0.00000000000E+00 -0.74505805969E-08  0.93827000000E+00  0.93827000000E+00 0.  1.
     999902    2    1    2    0    0 -0.57055996103E-02 -0.17581274397E-01 -0.14089157421E-01  0.10206886697E+01  0.10204240300E+01 0.  0.
     999903    2    3    3    0    0  0.10320418624E+00 -0.96457517264E-01 -0.96063050818E-01  0.17096664321E+00  0.68063692176E-02 0.  0.
         14    1    1    2    0    0  0.57055996103E-02  0.17581274397E-01  0.14089157421E-01  0.23241330280E-01  0.00000000000E+00 0. -1.
     999901    1    3    3    0    0 -0.10890978585E+00  0.78876242866E-01  0.81973893397E-01  0.84972202651E+00  0.83500000000E+00 0.  1.
        -11    1    4    4    0    0  0.28811966737E-01 -0.29071533627E-01 -0.31017693429E-01  0.51357978166E-01  0.51100000000E-03 0.  1.
         11    1    4    4    0    0  0.74392219507E-01 -0.67385983637E-01 -0.65045357389E-01  0.11960866504E+00  0.51100000000E-03 0. -1.
</event>
<event>
 8    1  0.5716970E+005  0.1043930E+01  0.7957747E-01            NaN
         13   -1    0    0    0    0  0.00000000000E+00  0.00000000000E+00  0.74505805969E-08  0.10566000000E+00  0.10566000000E+00 0.  1.
     999900   -1    0    0    0    0 -0.00000000000E+00 -0.00000000000E+00 -0.74505805969E-08  0.93827000000E+00  0.93827000000E+00 0. -1.
     999902    2    1    2    0    0 -0.98427255459E-02  0.96950783360E-02  0.97023245964E-02  0.10270477936E+01  0.10269090327E+01 0.  0.
     999903    2    3    3    0    0 -0.57712417085E-02 -0.13074413214E+00 -0.10954189395E+00  0.17195485569E+00  0.21016910910E-01 0.  0.
         14    1    1    2    0    0  0.98427255459E-02 -0.96950783360E-02 -0.97023245964E-02  0.16882206393E-01  0.00000000000E+00 0. -1.
     999901    1    3    3    0    0 -0.40714838374E-02  0.14043921048E+00  0.11924421855E+00  0.85509293792E+00  0.83500000000E+00 0.  1.
        -11    1    4    4    0    0 -0.34651777606E-02 -0.39681511548E-01 -0.21493780412E-01  0.45264484235E-01  0.51100000000E-03 0. -1.
         11    1    4    4    0    0 -0.23060639479E-02 -0.91062620595E-01 -0.88048113539E-01  0.12669037145E+00  0.51100000000E-03 0.  1.
</event>
<event>
 8    1  0.5716970E+005  0.1043930E+01  0.7957747E-01            NaN
         13   -1    0    0    0    0  0.00000000000E+00  0.00000000000E+00  0.74505805969E-08  0.10566000000E+00  0.10566000000E+00 0.  1.
     999900   -1    0    0    0    0 -0.00000000000E+00 -0.00000000000E+00 -0.74505805969E-08  0.93827000000E+00  0.93827000000E+00 0.  1.
     999902    2    1    2    0    0  0.58669818667E-02  0.16132231749E-01  0.16089371302E-01  0.10204026065E+01  0.10201313352E+01 0.  0.
     999903    2    3    3    0    0  0.25420647952E-02 -0.11373131650E+00 -0.11739877821E+00  0.16487956043E+00  0.21483060218E-01 0.  0.
         14    1    1    2    0    0 -0.58669818667E-02 -0.16132231749E-01 -0.16089371302E-01  0.23527393530E-01  0.00000000000E+00 0. -1.
     999901    1    3    3    0    0  0.33249170715E-02  0.12986354825E+00  0.13348814952E+00  0.85552304604E+00  0.83500000000E+00 0. -1.
        -11    1    4    4    0    0  0.59224431828E-02 -0.64600332538E-01 -0.52776992256E-01  0.83629841145E-01  0.51100000000E-03 0.  1.
         11    1    4    4    0    0 -0.33803783876E-02 -0.49130983962E-01 -0.64621785958E-01  0.81249719289E-01  0.51100000000E-03 0. -1.
</event>
<event>
 8    1  0.5716970E+005  0.1043930E+01  0.7957747E-01            NaN
         13   -1    0    0    0    0  0.00000000000E+00  0.00000000000E+00  0.74505805969E-08  0.10566000000E+00  0.10566000000E+00 0. -1.
     999900   -1    0    0    0    0 -0.00000000000E+00 -0.00000000000E+00 -0.74505805969E-08  0.93827000000E+00  0.93827000000E+00 0. -1.
     999902    2    1    2    0    0  0.24385139851E-01 -0.50704992248E-02 -0.60130904029E-02  0.10183076999E+01  0.10179852992E+01 0.  0.
     999903    2    3    3    0    0 -0.41630952495E-01 -0.31870295075E-01 -0.15718042046E+00  0.16674859142E+00  0.18723147402E-01 0.  0.
         14    1    1    2    0    0 -0.24385139851E-01  0.50704992248E-02  0.60130904029E-02  0.25622300134E-01  0.00000000000E+00 0.  1.
     999901    1    3    3    0    0  0.66016092347E-01  0.26799795850E-01  0.15116733006E+00  0.85155910845E+00  0.83500000000E+00 0.  1.
        -11    1    4    4    0    0 -0.31758412120E-01 -0.13081343972E-01 -0.10170050782E+00  0.10734511033E+00  0.51100000000E-03 0.  1.
         11    1    4    4    0    0 -0.98725403755E-02 -0.18788951103E-01 -0.55479912647E-01  0.59403481088E-01  0.51100000000E-03 0. -1.
</event>
<event>
 8    1  0.5716970E+005  0.1043930E+01  0.7957747E-01            NaN
         13   -1    0    0    0    0  0.00000000000E+00  0.00000000000E+00  0.74505805969E-08  0.10566000000E+00  0.10566000000E+00 0.  1.
     999900   -1    0    0    0    0 -0.00000000000E+00 -0.00000000000E+00 -0.74505805969E-08  0.93827000000E+00  0.93827000000E+00 0. -1.
     999902    2    1    2    0    0  0.86065763443E-02 -0.21227355300E-02 -0.22619858591E-01  0.10196352029E+01  0.10193457264E+01 0.  0.
     999903    2    3    3    0    0 -0.79152559047E-01  0.13865374664E+00  0.40320575785E-01  0.16599231385E+00  0.20921528736E-01 0.  0.
         14    1    1    2    0    0 -0.86065763443E-02  0.21227355300E-02  0.22619858591E-01  0.24294797081E-01  0.00000000000E+00 0.  1.
     999901    1    3    3    0    0  0.87759135391E-01 -0.14077648217E+00 -0.62940434376E-01  0.85364288907E+00  0.83500000000E+00 0. -1.
        -11    1    4    4    0    0 -0.50320242103E-01  0.86133369261E-01  0.14722439102E-01  0.10083697437E+00  0.51100000000E-03 0. -1.
         11    1    4    4    0    0 -0.28832316944E-01  0.52520377380E-01  0.25598136683E-01  0.65155339483E-01  0.51100000000E-03 0.  1.
</event>
<event>
 8    1  0.5716970E+005  0.1043930E+01  0.7957747E-01            NaN
         13   -1    0    0    0    0  0.00000000000E+00  0.00000000000E+00  0.74505805969E-08  0.10566000000E+00  0.10566000000E+00 0.  1.
     999900   -1    0    0    0    0 -0.00000000000E+00 -0.00000000000E+00 -0.74505805969E-08  0.93827000000E+00  0.93827000000E+00 0.  1.
     999902    2    1    2    0    0 -0.17171418456E-01  0.10864511231E-01  0.93203026746E-02  0.10215746146E+01  0.10213299809E+01 0.  0.
     999903    2    3    3    0    0  0.67411209124E-01  0.11368829050E+00  0.10725312452E+00  0.17037382270E+00  0.73965011443E-02 0.  0.
         14    1    1    2    0    0  0.17171418456E-01 -0.10864511231E-01 -0.93203026746E-02  0.22355385437E-01  0.00000000000E+00 0. -1.
     999901    1    3    3    0    0 -0.84582627581E-01 -0.10282377927E+00 -0.97932821850E-01  0.85120079186E+00  0.83500000000E+00 0.  1.
        -11    1    4    4    0    0  0.50895115811E-02  0.12391394620E-01  0.12130599288E-01  0.18079334856E-01  0.51100000000E-03 0.  1.
         11    1    4    4    0    0  0.62321697543E-01  0.10129689588E+00  0.95122525237E-01  0.15229448784E+00  0.51100000000E-03 0. -1.
</event>
<event>
 8    1  0.5716970E+005  0.1043930E+01  0.7957747E-01            NaN
         13   -1    0    0    0    0  0.00000000000E+00  0.00000000000E+00  0.74505805969E-08  0.10566000000E+00  0.10566000000E+00 0.  1.
     999900   -1    0    0    0    0 -0.00000000000E+00 -0.00000000000E+00 -0.74505805969E-08  0.93827000000E+00  0.93827000000E+00 0.  1.
     999902    2    1    2    0    0 -0.78099094391E-02 -0.10664039187E-01  0.19844412548E-01  0.10200864028E+01  0.10198077035E+01 0.  0.
     999903    2    3    3    0    0  0.80395348733E-01 -0.13577190425E+00  0.60263700610E-01  0.17020943271E+00  0.21026537787E-01 0.  0.
         14    1    1    2    0    0  0.78099094391E-02  0.10664039187E-01 -0.19844412548E-01  0.23843597182E-01  0.00000000000E+00 0. -1.
     999901    1    3    3    0    0 -0.88205258172E-01  0.12510786506E+00 -0.40419288062E-01  0.84987697011E+00  0.83500000000E+00 0. -1.
        -11    1    4    4    0    0  0.61234207435E-01 -0.11470661094E+00  0.43246261188E-01  0.13703187579E+00  0.51100000000E-03 0.  1.
         11    1    4    4    0    0  0.19161141297E-01 -0.21065293306E-01  0.17017439422E-01  0.33177556923E-01  0.51100000000E-03 0. -1.
</event>
<event>
 8    1  0.5716970E+005  0.1043930E+01  0.7957747E-01            NaN
         13   -1    0    0    0    0  0.00000000000E+00  0.00000000000E+00  0.74505805969E-08  0.10566000000E+00  0.10566000000E+00 0.  1.
     999900   -1    0    0    0    0 -0.00000000000E+00 -0.00000000000E+00 -0.74505805969E-08  0.93827000000E+00  0.93827000000E+00 0. -1.
     999902    2    1    2    0    0 -0.10566488039E-01 -0.20842557745E-01 -0.15547239925E-03  0.10205614944E+01  0.10202939169E+01 0.  0.
     999903    2    3    3    0    0 -0.12452509373E+00 -0.57586969585E-01 -0.10032840599E+00  0.17109322998E+00  0.19604751044E-01 0.  0.
         14    1    1    2    0    0  0.10566488039E-01  0.20842557745E-01  0.15547239925E-03  0.23368505611E-01  0.00000000000E+00 0. -1.
     999901    1    3    3    0    0  0.11395860569E+00  0.36744411840E-01  0.10017293359E+00  0.84946826441E+00  0.83500000000E+00 0.  1.
        -11    1    4    4    0    0 -0.59838879596E-01 -0.30327031399E-01 -0.37339006797E-01  0.76778140733E-01  0.51100000000E-03 0.  1.
         11    1    4    4    0    0 -0.64686214133E-01 -0.27259938186E-01 -0.62989399189E-01  0.94315089248E-01  0.51100000000E-03 0. -1.
</event>
<event>
 8    1  0.5716970E+005  0.1043930E+01  0.7957747E-01            NaN
         13   -1    0    0    0    0  0.00000000000E+00  0.00000000000E+00  0.74505805969E-08  0.10566000000E+00  0.10566000000E+00 0.  1.
     999900   -1    0    0    0    0 -0.00000000000E+00 -0.00000000000E+00 -0.74505805969E-08  0.93827000000E+00  0.93827000000E+00 0.  1.
     999902    2    1    2    0    0 -0.12138215604E-02  0.65076890911E-02  0.22392876988E-01  0.10205791045E+01  0.10203119348E+01 0.  0.
     999903    2    3    3    0    0 -0.11703679828E-01  0.41277435544E-01  0.16601567713E+00  0.17253931706E+00  0.19178322922E-01 0.  0.
         14    1    1    2    0    0  0.12138215604E-02 -0.65076890911E-02 -0.22392876988E-01  0.23350895484E-01  0.00000000000E+00 0. -1.
     999901    1    3    3    0    0  0.10489858268E-01 -0.34769746453E-01 -0.14362280014E+00  0.84803978746E+00  0.83500000000E+00 0.  1.
        -11    1    4    4    0    0 -0.38636550361E-02  0.38199437522E-03  0.31029341168E-01  0.31275467770E-01  0.51100000000E-03 0. -1.
         11    1    4    4    0    0 -0.78400247921E-02  0.40895441169E-01  0.13498633596E+00  0.14126384929E+00  0.51100000000E-03 0.  1.
</event>
<event>
 8    1  0.5716970E+005  0.1043930E+01  0.7957747E-01            NaN
         13   -1    0    0    0    0  0.00000000000E+00  0.00000000000E+00  0.74505805969E-08  0.10566000000E+00  0.10566000000E+00 0.  1.
     999900   -1    0    0    0    0 -0.00000000000E+00 -0.00000000000E+00 -0.74505805969E-08  0.93827000000E+00  0.93827000000E+00 0.  1.
     999902    2    1    2    0    0 -0.17370611368E-01 -0.10230754162E-01 -0.90964589470E-02  0.10218132182E+01  0.10215738353E+01 0.  0.
     999903    2    3    3    0    0 -0.15000773541E+00  0.58662866715E-01 -0.56730201056E-01  0.17220571412E+00  0.22199992093E-01 0.  0.
         14    1    1    2    0    0  0.17370611368E-01  0.10230754162E-01  0.90964589470E-02  0.22116781759E-01  0.00000000000E+00 0. -1.
     999901    1    3    3    0    0  0.13263712404E+00 -0.68893620877E-01  0.47633742109E-01  0.84960750412E+00  0.83500000000E+00 0. -1.
        -11    1    4    4    0    0 -0.98141526920E-01  0.49505741000E-01 -0.38484466804E-01  0.11646412754E+00  0.51100000000E-03 0. -1.
         11    1    4    4    0    0 -0.51866208492E-01  0.91571257152E-02 -0.18245734251E-01  0.55741586576E-01  0.51100000000E-03 0.  1.
</event>
<event>
 8    1  0.5716970E+005  0.1043930E+01  0.7957747E-01            NaN
         13   -1    0    0    0    0  0.00000000000E+00  0.00000000000E+00  0.74505805969E-08  0.10566000000E+00  0.10566000000E+00 0.  1.
     999900   -1    0    0    0    0 -0.00000000000E+00 -0.00000000000E+00 -0.74505805969E-08  0.93827000000E+00  0.93827000000E+00 0. -1.
     999902    2    1    2    0    0 -0.99174359540E-02  0.99061665245E-02 -0.18445777503E-01  0.10207624715E+01  0.10204995290E+01 0.  0.
     999903    2    3    3    0    0 -0.80503251410E-01 -0.39957708676E-01  0.13892716614E+00  0.16667816251E+00  0.20086323581E-01 0.  0.
         14    1    1    2    0    0  0.99174359540E-02 -0.99061665245E-02  0.18445777503E-01  0.23167528543E-01  0.00000000000E+00 0.  1.
     999901    1    3    3    0    0  0.70585815456E-01  0.49863875201E-01 -0.15737294365E+00  0.85408430894E+00  0.83500000000E+00 0. -1.
        -11    1    4    4    0    0 -0.13724788806E-01 -0.14789057561E-01  0.38595835142E-01  0.43554398890E-01  0.51100000000E-03 0.  1.
         11    1    4    4    0    0 -0.66778462604E-01 -0.25168651115E-01  0.10033133100E+00  0.12312376362E+00  0.51100000000E-03 0. -1.
</event>
<event>
 8    1  0.5716970E+005  0.1043930E+01  0.7957747E-01            NaN
         13   -1    0    0    0    0  0.00000000000E+00  0.00000000000E+00  0.74505805969E-08  0.10566000000E+00  0.10566000000E+00 0. -1.
     999900   -1    0    0    0    0 -0.00000000000E+00 -0.00000000000E+00 -0.74505805969E-08  0.93827000000E+00  0.93827000000E+00 0.  1.
     999902    2    1    2    0    0 -0.23853142170E-01  0.39391519460E-02 -0.35967509073E-02  0.10194877021E+01  0.10191946570E+01 0.  0.
     999903    2    3    3    0    0  0.23337818962E-01 -0.13501152638E+00 -0.93367232061E-01  0.16695147583E+00  0.19559887797E-01 0.  0.
         14    1    1    2    0    0  0.23853142170E-01 -0.39391519460E-02  0.35967509073E-02  0.24442297898E-01  0.00000000000E+00 0. -1.
     999901    1    3    3    0    0 -0.47190961132E-01  0.13895067832E+00  0.89770481154E-01  0.85253622627E+00  0.83500000000E+00 0.  1.
        -11    1    4    4    0    0  0.19702786677E-01 -0.57293376370E-01 -0.41840846785E-01  0.73631843379E-01  0.51100000000E-03 0.  1.
         11    1    4    4    0    0  0.36350322852E-02 -0.77718150007E-01 -0.51526385276E-01  0.93319632452E-01  0.51100000000E-03 0. -1.
</event>
<event>
 8    1  0.5716970E+005  0.1043930E+01  0.7957747E-01            NaN
         13   -1    0    0    0    0  0.00000000000E+00  0.00000000000E+00  0.74505805969E-08  0.10566000000E+00  0.10566000000E+00 0. -1.
     999900   -1    0    0    0    0 -0.00000000000E+00 -0.00000000000E+00 -0.74505805969E-08  0.93827000000E+00  0.93827000000E+00 0. -1.
     999902    2    1    2    0    0 -0.75105501595E-04  0.33580598864E-02 -0.22756393991E-01  0.10209270507E+01  0.10206678731E+01 0.  0.
     999903    2    3    3    0    0 -0.12341960069E+00  0.11415972124E+00 -0.60769004430E-02  0.16946120988E+00  0.20379723920E-01 0.  0.
         14    1    1    2    0    0  0.75105501595E-04 -0.33580598864E-02  0.22756393991E-01  0.23002949256E-01  0.00000000000E+00 0. -1.
     999901    1    3    3    0    0  0.12334449518E+00 -0.11080166136E+00 -0.16679493548E-01  0.85146584086E+00  0.83500000000E+00 0. -1.
        -11    1    4    4    0    0 -0.20267358416E-01  0.19423381260E-01 -0.86594055135E-02  0.29381626599E-01  0.51100000000E-03 0.  1.
         11    1    4    4    0    0 -0.10315224227E+00  0.94736339984E-01  0.25825050705E-02  0.14007958328E+00  0.51100000000E-03 0. -1.
</event>
<event>
 8    1  0.5716970E+005  0.1043930E+01  0.7957747E-01            NaN
         13   -1    0    0    0    0  0.00000000000E+00  0.00000000000E+00  0.74505805969E-08  0.10566000000E+00  0.10566000000E+00 0. -1.
     999900   -1    0    0    0    0 -0.00000000000E+00 -0.00000000000E+00 -0.74505805969E-08  0.93827000000E+00  0.93827000000E+00 0.  1.
     999902    2    1    2    0    0  0.29850497182E-03 -0.21541741922E-01  0.40448402067E-02  0.10220097700E+01  0.10217746687E+01 0.  0.
     999903    2    3    3    0    0 -0.10889939022E-01 -0.16208148677E+00  0.57510420022E-01  0.17350510333E+00  0.20188445870E-01 0.  0.
         14    1    1    2    0    0 -0.29850497182E-03  0.21541741922E-01 -0.40448402067E-02  0.21920229984E-01  0.00000000000E+00 0.  1.
     999901    1    3    3    0    0  0.11188443994E-01  0.14053974485E+00 -0.53465579815E-01  0.84850466668E+00  0.83500000000E+00 0.  1.
        -11    1    4    4    0    0 -0.63769112464E-02 -0.13640191788E+00  0.40738678450E-01  0.14249929558E+00  0.51100000000E-03 0. -1.
         11    1    4    4    0    0 -0.45130277755E-02 -0.25679568889E-01  0.16771741571E-01  0.31005807752E-01  0.51100000000E-03 0.  1.
</event>
<event>
 8    1  0.5716970E+005  0.1043930E+01  0.7957747E-01            NaN
         13   -1    0    0    0    0  0.00000000000E+00  0.00000000000E+00  0.74505805969E-08  0.10566000000E+00  0.10566000000E+00 0. -1.
     999900   -1    0    0    0    0 -0.00000000000E+00 -0.00000000000E+00 -0.74505805969E-08  0.93827000000E+00  0.93827000000E+00 0. -1.
     999902    2    1    2    0    0 -0.51392883432E-02  0.43356329718E-04  0.22625193037E-01  0.10207284155E+01  0.10204646905E+01 0.  0.
     999903    2    3    3    0    0 -0.84043552110E-01 -0.71842018699E-02 -0.14177479252E+00  0.16601765991E+00  0.18623646249E-01 0.  0.
         14    1    1    2    0    0  0.51392883432E-02 -0.43356329718E-04 -0.22625193037E-01  0.23201584524E-01  0.00000000000E+00 0.  1.
     999901    1    3    3    0    0  0.78904263767E-01  0.72275581996E-02  0.16439998555E+00  0.85471075557E+00  0.83500000000E+00 0.  1.
        -11    1    4    4    0    0 -0.43779939887E-01 -0.11060982470E-01 -0.85756734759E-01  0.96920107033E-01  0.51100000000E-03 0. -1.
         11    1    4    4    0    0 -0.40263612223E-01  0.38767806006E-02 -0.56018057758E-01  0.69097552873E-01  0.51100000000E-03 0.  1.
</event>
<event>
 8    1  0.5716970E+005  0.1043930E+01  0.7957747E-01            NaN
         13   -1    0    0    0    0  0.00000000000E+00  0.00000000000E+00  0.74505805969E-08  0.10566000000E+00  0.10566000000E+00 0. -1.
     999900   -1    0    0    0    0 -0.00000000000E+00 -0.00000000000E+00 -0.74505805969E-08  0.93827000000E+00  0.93827000000E+00 0.  1.
     999902    2    1    2    0    0  0.21908956182E-01  0.18173534331E-01 -0.87011254707E-02  0.10141644277E+01  0.10137275261E+01 0.  0.
     999903    2    3    3    0    0  0.37465618868E-01  0.14013966316E+00  0.77613952095E-01  0.16575825199E+00  0.20225596541E-01 0.  0.
         14    1    1    2    0    0 -0.21908956182E-01 -0.18173534331E-01  0.87011254707E-02  0.29765572320E-01  0.00000000000E+00 0. -1.
     999901    1    3    3    0    0 -0.15556662686E-01 -0.12196612883E+00 -0.86315077566E-01  0.84840617569E+00  0.83500000000E+00 0.  1.
        -11    1    4    4    0    0  0.19746422594E-01  0.57496243314E-01  0.22355388729E-01  0.64774715181E-01  0.51100000000E-03 0.  1.
         11    1    4    4    0    0  0.17719196274E-01  0.82643419844E-01  0.55258563366E-01  0.10098353681E+00  0.51100000000E-03 0. -1.
</event>
<event>
 8    1  0.5716970E+005  0.1043930E+01  0.7957747E-01            NaN
         13   -1    0    0    0    0  0.00000000000E+00  0.00000000000E+00  0.74505805969E-08  0.10566000000E+00  0.10566000000E+00 0. -1.
     999900   -1    0    0    0    0 -0.00000000000E+00 -0.00000000000E+00 -0.74505805969E-08  0.93827000000E+00  0.93827000000E+00 0.  1.
     999902    2    1    2    0    0 -0.14831293422E-01  0.10330025753E-01  0.15854533853E-01  0.10198874764E+01  0.10196040514E+01 0.  0.
     999903    2    3    3    0    0 -0.75889311009E-01  0.13854993005E-01 -0.14670626685E+00  0.16701496494E+00  0.20496863805E-01 0.  0.
         14    1    1    2    0    0  0.14831293422E-01 -0.10330025753E-01 -0.15854533853E-01  0.24042523584E-01  0.00000000000E+00 0.  1.
     999901    1    3    3    0    0  0.61058017587E-01 -0.35249672523E-02  0.16256080070E+00  0.85287251147E+00  0.83500000000E+00 0. -1.
        -11    1    4    4    0    0 -0.33040117310E-01  0.75438262387E-03 -0.44633362519E-01  0.55539324948E-01  0.51100000000E-03 0.  1.
         11    1    4    4    0    0 -0.42849193699E-01  0.13100610381E-01 -0.10207290433E+00  0.11147563999E+00  0.51100000000E-03 0. -1.
</event>
<event>
 8    1  0.5716970E+005  0.1043930E+01  0.7957747E-01            NaN
         13   -1    0    0    0    0  0.00000000000E+00  0.00000000000E+00  0.74505805969E-08  0.10566000000E+00  0.10566000000E+00 0.  1.
     999900   -1    0    0    0    0 -0.00000000000E+00 -0.00000000000E+00 -0.74505805969E-08  0.93827000000E+00  0.93827000000E+00 0. -1.
     999902    2    1    2    0    0 -0.90392369062E-02  0.72559086071E-02 -0.21904904222E-01  0.10191473278E+01  0.10188459623E+01 0.  0.
     999903    2    3    3    0    0 -0.32042772179E-01  0.16450985430E+00  0.26201460040E-02  0.16880360659E+00  0.19938932313E-01 0.  0.
         14    1    1    2    0    0  0.90392369062E-02 -0.72559086071E-02  0.21904904222E-01  0.24782672223E-01  0.00000000000E+00 0.  1.
     999901    1    3    3    0    0  0.23003535273E-01 -0.15725394569E+00 -0.24525050226E-01  0.85034372119E+00  0.83500000000E+00 0.  1.
        -11    1    4    4    0    0 -0.17237486276E-01  0.58549950116E-01 -0.67232143876E-02  0.61405946980E-01  0.51100000000E-03 0. -1.
         11    1    4    4    0    0 -0.14805285903E-01  0.10595990418E+00  0.93433603917E-02  0.10739765961E+00  0.51100000000E-03 0.  1.
</event>
<event>
 8    1  0.5716970E+005  0.1043930E+01  0.7957747E-01            NaN
         13   -1    0    0    0    0  0.00000000000E+00  0.00000000000E+00  0.74505805969E-08  0.10566000000E+00  0.10566000000E+00 0. -1.
     999900   -1    0    0    0    0 -0.00000000000E+00 -0.00000000000E+00 -0.74505805969E-08  0.93827000000E+00  0.93827000000E+00 0.  1.
     999902    2    1    2    0    0 -0.18598709688E-02  0.14333810558E-01  0.19830850712E-01  0.10193906462E+01  0.10190952407E+01 0.  0.
     999903    2    3    3    0    0  0.11919223562E+00  0.11796318331E+00  0.11135772401E-01  0.16927696921E+00  0.20213491284E-01 0.  0.
         14    1    1    2    0    0  0.18598709688E-02 -0.14333810558E-01 -0.19830850712E-01  0.24539353803E-01  0.00000000000E+00 0.  1.
     999901    1    3    3    0    0 -0.12105210659E+00 -0.10362937276E+00  0.86950783112E-02  0.85011367698E+00  0.83500000000E+00 0.  1.
        -11    1    4    4    0    0  0.55316318175E-01  0.65861407840E-01  0.11977836606E-01  0.86840945353E-01  0.51100000000E-03 0.  1.
         11    1    4    4    0    0  0.63875917443E-01  0.52101775475E-01 -0.84206420511E-03  0.82436023860E-01  0.51100000000E-03 0. -1.
</event>
<event>
 8    1  0.5716970E+005  0.1043930E+01  0.7957747E-01            NaN
         13   -1    0    0    0    0  0.00000000000E+00  0.00000000000E+00  0.74505805969E-08  0.10566000000E+00  0.10566000000E+00 0. -1.
     999900   -1    0    0    0    0 -0.00000000000E+00 -0.00000000000E+00 -0.74505805969E-08  0.93827000000E+00  0.93827000000E+00 0. -1.
     999902    2    1    2    0    0  0.21989813206E-01  0.17442368180E-01  0.55182450771E-02  0.10153251207E+01  0.10149220963E+01 0.  0.
     999903    2    3    3    0    0  0.12948033471E+00  0.40749919941E-02  0.10475083612E+00  0.16750143258E+00  0.17384752312E-01 0.  0.
         14    1    1    2    0    0 -0.21989813206E-01 -0.17442368180E-01 -0.55182450771E-02  0.28604879327E-01  0.00000000000E+00 0. -1.
     999901    1    3    3    0    0 -0.10749052151E+00  0.13367376186E-01 -0.99232591041E-01  0.84782368809E+00  0.83500000000E+00 0. -1.
        -11    1    4    4    0    0  0.66752641754E-01 -0.59888795399E-02  0.49747973676E-01  0.83467981077E-01  0.51100000000E-03 0.  1.
         11    1    4    4    0    0  0.62727692961E-01  0.10063871534E-01  0.55002862442E-01  0.84033451507E-01  0.51100000000E-03 0. -1.
</event>
<event>
 8    1  0.5716970E+005  0.1043930E+01  0.7957747E-01            NaN
         13   -1    0    0    0    0  0.00000000000E+00  0.00000000000E+00  0.74505805969E-08  0.10566000000E+00  0.10566000000E+00 0.  1.
     999900   -1    0    0    0    0 -0.00000000000E+00 -0.00000000000E+00 -0.74505805969E-08  0.93827000000E+00  0.93827000000E+00 0.  1.
     999902    2    1    2    0    0  0.22527116825E-01  0.38994672388E-02 -0.55839557232E-02  0.10203958249E+01  0.10201243954E+01 0.  0.
     999903    2    3    3    0    0 -0.10533072468E+00 -0.11626550669E-01  0.12544724567E+00  0.16542046815E+00  0.19929415339E-01 0.  0.
         14    1    1    2    0    0 -0.22527116825E-01 -0.38994672388E-02  0.55839557232E-02  0.23534175122E-01  0.00000000000E+00 0.  1.
     999901    1    3    3    0    0  0.12785784150E+00  0.15526017908E-01 -0.13103120140E+00  0.85497535672E+00  0.83500000000E+00 0.  1.
        -11    1    4    4    0    0 -0.42765405734E-01  0.18420778281E-02  0.39387393351E-01  0.58171307827E-01  0.51100000000E-03 0. -1.
         11    1    4    4    0    0 -0.62565318942E-01 -0.13468628497E-01  0.86059852323E-01  0.10724916033E+00  0.51100000000E-03 0.  1.
</event>
<event>
 8    1  0.5716970E+005  0.1043930E+01  0.7957747E-01            NaN
         13   -1    0    0    0    0  0.00000000000E+00  0.00000000000E+00  0.74505805969E-08  0.10566000000E+00  0.10566000000E+00 0.  1.
     999900   -1    0    0    0    0 -0.00000000000E+00 -0.00000000000E+00 -0.74505805969E-08  0.93827000000E+00  0.93827000000E+00 0. -1.
     999902    2    1    2    0    0 -0.21021813003E-01 -0.46897539602E-02 -0.70204112821E-02  0.10212761573E+01  0.10210248738E+01 0.  0.
     999903    2    3    3    0    0 -0.14136996737E+00  0.72204502598E-01 -0.65137588738E-01  0.17215955091E+00  0.14037365524E-01 0.  0.
         14    1    1    2    0    0  0.21021813003E-01  0.46897539602E-02  0.70204112821E-02  0.22653842691E-01  0.00000000000E+00 0.  1.
     999901    1    3    3    0    0  0.12034815437E+00 -0.76894256558E-01  0.58117177456E-01  0.84911660640E+00  0.83500000000E+00 0. -1.
        -11    1    4    4    0    0 -0.76161805100E-01  0.35631837472E-01 -0.41330997853E-01  0.93695042037E-01  0.51100000000E-03 0.  1.
         11    1    4    4    0    0 -0.65208162274E-01  0.36572665126E-01 -0.23806590885E-01  0.78464508869E-01  0.51100000000E-03 0. -1.
</event>
<event>
 8    1  0.5716970E+005  0.1043930E+01  0.7957747E-01            NaN
         13   -1    0    0    0    0  0.00000000000E+00  0.00000000000E+00  0.74505805969E-08  0.10566000000E+00  0.10566000000E+00 0.  1.
     999900   -1    0    0    0    0 -0.00000000000E+00 -0.00000000000E+00 -0.74505805969E-08  0.93827000000E+00  0.93827000000E+00 0.  1.
     999902    2    1    2    0    0 -0.51517237647E-02 -0.30550970744E-02 -0.22991196994E-01  0.10201714433E+01  0.10198947518E+01 0.  0.
     999903    2    3    3    0    0  0.12943926949E+00 -0.11067866812E-01  0.98805076061E-01  0.16563164199E+00  0.28184669799E-01 0.  0.
         14    1    1    2    0    0  0.51517237647E-02  0.30550970744E-02  0.22991196994E-01  0.23758556671E-01  0.00000000000E+00 0.  1.
     999901    1    3    3    0    0 -0.13459099325E+00  0.80127697372E-02 -0.12179627305E+00  0.85453980134E+00  0.83500000000E+00 0.  1.
        -11    1    4    4    0    0  0.12764198531E+00 -0.14996928448E-01  0.96430376757E-01  0.16067502283E+00  0.51100000000E-03 0.  1.
         11    1    4    4    0    0  0.17972841728E-02  0.39290616368E-02  0.23746993041E-02  0.49566191631E-02  0.51100000000E-03 0. -1.
</event>
<event>
 8    1  0.5716970E+005  0.1043930E+01  0.7957747E-01            NaN
         13   -1    0    0    0    0  0.00000000000E+00  0.00000000000E+00  0.74505805969E-08  0.10566000000E+00  0.10566000000E+00 0. -1.
     999900   -1    0    0    0    0 -0.00000000000E+00 -0.00000000000E+00 -0.74505805969E-08  0.93827000000E+00  0.93827000000E+00 0. -1.
     999902    2    1    2    0    0 -0.21581010001E-01  0.51233960278E-02  0.53843512310E-02  0.10211050045E+01  0.10208498665E+01 0.  0.
     999903    2    3    3    0    0  0.51168273399E-01  0.14514175128E+00  0.67069624466E-01  0.16909111324E+00  0.20227453692E-01 0.  0.
         14    1    1    2    0    0  0.21581010001E-01 -0.51233960278E-02 -0.53843512310E-02  0.22824995459E-01  0.00000000000E+00 0.  1.
     999901    1    3    3    0    0 -0.72749283400E-01 -0.14001835525E+00 -0.61685273235E-01  0.85201389130E+00  0.83500000000E+00 0.  1.
        -11    1    4    4    0    0  0.19869865886E-01  0.54877140568E-01  0.36240808380E-01  0.68702033742E-01  0.51100000000E-03 0. -1.
         11    1    4    4    0    0  0.31298407513E-01  0.90264610710E-01  0.30828816085E-01  0.10038907949E+00  0.51100000000E-03 0.  1.
</event>
<event>
 8    1  0.5716970E+005  0.1043930E+01  0.7957747E-01            NaN
         13   -1    0    0    0    0  0.00000000000E+00  0.00000000000E+00  0.74505805969E-08  0.10566000000E+00  0.10566000000E+00 0.  1.
     999900   -1    0    0    0    0 -0.00000000000E+00 -0.00000000000E+00 -0.74505805969E-08  0.93827000000E+00  0.93827000000E+00 0. -1.
     999902    2    1    2    0    0 -0.53390133286E-02 -0.20372499983E-01  0.10361726805E-01  0.10204585450E+01  0.10201885771E+01 0.  0.
     999903    2    3    3    0    0 -0.15069969827E+00  0.70988903976E-01 -0.13404002024E-02  0.16791026209E+00  0.21029405534E-01 0.  0.
         14    1    1    2    0    0  0.53390133286E-02  0.20372499983E-01 -0.10361726805E-01  0.23471455031E-01  0.00000000000E+00 0. -1.
     999901    1    3    3    0    0  0.14536068494E+00 -0.91361403959E-01  0.11702127008E-01  0.85254828288E+00  0.83500000000E+00 0.  1.
        -11    1    4    4    0    0 -0.42519531921E-01  0.30746883228E-01  0.29210015653E-03  0.52475021358E-01  0.51100000000E-03 0. -1.
         11    1    4    4    0    0 -0.10818016635E+00  0.40242020748E-01 -0.16325003589E-02  0.11543524073E+00  0.51100000000E-03 0.  1.
</event>
<event>
 8    1  0.5716970E+005  0.1043930E+01  0.7957747E-01            NaN
         13   -1    0    0    0    0  0.00000000000E+00  0.00000000000E+00  0.74505805969E-08  0.10566000000E+00  0.10566000000E+00 0. -1.
     999900   -1    0    0    0    0 -0.00000000000E+00 -0.00000000000E+00 -0.74505805969E-08  0.93827000000E+00  0.93827000000E+00 0. -1.
     999902    2    1    2    0    0 -0.60646248421E-02  0.96485437805E-02 -0.15440123323E-01  0.10247395993E+01  0.10245598932E+01 0.  0.
     999903    2    3    3    0    0  0.12944323778E+00  0.77907206702E-01  0.77626856763E-01  0.17097845664E+00  0.19560651322E-01 0.  0.
         14    1    1    2    0    0  0.60646248421E-02 -0.96485437805E-02  0.15440123323E-01  0.19190400720E-01  0.00000000000E+00 0. -1.
     999901    1    3    3    0    0 -0.13550786263E+00 -0.68258662922E-01 -0.93066980087E-01  0.85376114264E+00  0.83500000000E+00 0. -1.
        -11    1    4    4    0    0  0.56688189243E-01  0.40964707955E-01  0.44583543991E-01  0.82943424172E-01  0.51100000000E-03 0. -1.
         11    1    4    4    0    0  0.72755048541E-01  0.36942498747E-01  0.33043312772E-01  0.88035032469E-01  0.51100000000E-03 0.  1.
</event>
<event>
 8    1  0.5716970E+005  0.1043930E+01  0.7957747E-01            NaN
         13   -1    0    0    0    0  0.00000000000E+00  0.00000000000E+00  0.74505805969E-08  0.10566000000E+00  0.10566000000E+00 0.  1.
     999900   -1    0    0    0    0 -0.00000000000E+00 -0.00000000000E+00 -0.74505805969E-08  0.93827000000E+00  0.93827000000E+00 0.  1.
     999902    2    1    2    0    0 -0.22198630201E-01  0.13410110226E-01 -0.42348267070E-02  0.10176517962E+01  0.10173124566E+01 0.  0.
     999903    2    3    3    0    0 -0.44037078382E-01  0.15969392981E+00  0.26226723669E-01  0.16910670029E+00  0.21629136836E-01 0.  0.
         14    1    1    2    0    0  0.22198630201E-01 -0.13410110226E-01  0.42348267070E-02  0.26278203826E-01  0.00000000000E+00 0. -1.
     999901    1    3    3    0    0  0.21838448181E-01 -0.14628381958E+00 -0.30461550376E-01  0.84854509588E+00  0.83500000000E+00 0.  1.
        -11    1    4    4    0    0 -0.13738065525E-01  0.21141795321E-01  0.31551170081E-02  0.25415071082E-01  0.51100000000E-03 0.  1.
         11    1    4    4    0    0 -0.30299012857E-01  0.13855213449E+00  0.23071606661E-01  0.14369162921E+00  0.51100000000E-03 0. -1.
</event>
<event>
 8    1  0.5716970E+005  0.1043930E+01  0.7957747E-01            NaN
         13   -1    0    0    0    0  0.00000000000E+00  0.00000000000E+00  0.74505805969E-08  0.10566000000E+00  0.10566000000E+00 0. -1.
     999900   -1    0    0    0    0 -0.00000000000E+00 -0.00000000000E+00 -0.74505805969E-08  0.93827000000E+00  0.93827000000E+00 0.  1.
     999902    2    1    2    0    0 -0.13962491468E-01 -0.19445221598E-01  0.37276459306E-02  0.10197026775E+01  0.10194148259E+01 0.  0.
     999903    2    3    3    0    0 -0.58910841645E-01  0.10810048894E+00 -0.11007292442E+00  0.16620175058E+00  0.18728860914E-01 0.  0.
         14    1    1    2    0    0  0.13962491468E-01  0.19445221598E-01 -0.37276459306E-02  0.24227322492E-01  0.00000000000E+00 0.  1.
     999901    1    3    3    0    0  0.44948350177E-01 -0.12754571054E+00  0.11380057036E+00  0.85350092693E+00  0.83500000000E+00 0. -1.
        -11    1    4    4    0    0 -0.60960379446E-02  0.37066931745E-02 -0.35836247869E-02  0.80002962773E-02  0.51100000000E-03 0. -1.
         11    1    4    4    0    0 -0.52814803700E-01  0.10439379576E+00 -0.10648929964E+00  0.15820145430E+00  0.51100000000E-03 0.  1.
</event>
<event>
 8    1  0.5716970E+005  0.1043930E+01  0.7957747E-01            NaN
         13   -1    0    0    0    0  0.00000000000E+00  0.00000000000E+00  0.74505805969E-08  0.10566000000E+00  0.10566000000E+00 0. -1.
     999900   -1    0    0    0    0 -0.00000000000E+00 -0.00000000000E+00 -0.74505805969E-08  0.93827000000E+00  0.93827000000E+00 0. -1.
     999902    2    1    2    0    0  0.16393047802E-01 -0.90949872326E-02  0.14543217939E-01  0.10202033062E+01  0.10199273651E+01 0.  0.
     999903    2    3    3    0    0 -0.13743569298E+00  0.51075259334E-01 -0.72300146461E-01  0.16460380296E+00  0.19231457344E-01 0.  0.
         14    1    1    2    0    0 -0.16393047802E-01  0.90949872326E-02 -0.14543217939E-01  0.23726693765E-01  0.00000000000E+00 0.  1.
     999901    1    3    3    0    0  0.15382874078E+00 -0.60170246566E-01  0.86843364400E-01  0.85559950327E+00  0.83500000000E+00 0.  1.
        -11    1    4    4    0    0 -0.43851883135E-01  0.85978179324E-02 -0.27632071606E-01  0.52542388887E-01  0.51100000000E-03 0.  1.
         11    1    4    4    0    0 -0.93583809840E-01  0.42477441401E-01 -0.44668074855E-01  0.11206141407E+00  0.51100000000E-03 0. -1.
</event>
<event>
 8    1  0.5716970E+005  0.1043930E+01  0.7957747E-01            NaN
         13   -1    0    0    0    0  0.00000000000E+00  0.00000000000E+00  0.74505805969E-08  0.10566000000E+00  0.10566000000E+00 0.  1.
     999900   -1    0    0    0    0 -0.00000000000E+00 -0.00000000000E+00 -0.74505805969E-08  0.93827000000E+00  0.93827000000E+00 0. -1.
     999902    2    1    2    0    0  0.11116678483E-01 -0.27600002021E-02  0.20828187762E-01  0.10201600285E+01  0.10198830679E+01 0.  0.
     999903    2    3    3    0    0 -0.12024126427E+00  0.86236054513E-01 -0.70867598387E-01  0.16528674892E+00  0.20071724795E-01 0.  0.
         14    1    1    2    0    0 -0.11116678483E-01  0.27600002021E-02 -0.20828187762E-01  0.23769971541E-01  0.00000000000E+00 0. -1.
     999901    1    3    3    0    0  0.13135794275E+00 -0.88996054715E-01  0.91695786149E-01  0.85487327954E+00  0.83500000000E+00 0.  1.
        -11    1    4    4    0    0 -0.51020938460E-01  0.35077340388E-01 -0.18889782932E-01  0.64735160386E-01  0.51100000000E-03 0. -1.
         11    1    4    4    0    0 -0.69220325805E-01  0.51158714125E-01 -0.51977815455E-01  0.10055158853E+00  0.51100000000E-03 0.  1.
</event>
<event>
 8    1  0.5716970E+005  0.1043930E+01  0.7957747E-01            NaN
         13   -1    0    0    0    0  0.00000000000E+00  0.00000000000E+00  0.74505805969E-08  0.10566000000E+00  0.10566000000E+00 0.  1.
     999900   -1    0    0    0    0 -0.00000000000E+00 -0.00000000000E+00 -0.74505805969E-08  0.93827000000E+00  0.93827000000E+00 0. -1.
     999902    2    1    2    0    0 -0.12996887051E-01  0.16515585377E-01 -0.10318939823E-01  0.10205170943E+01  0.10202484872E+01 0.  0.
     999903    2    3    3    0    0  0.11934347377E+00  0.40152199430E-01  0.10723585404E+00  0.16663373567E+00  0.20302946097E-01 0.  0.
         14    1    1    2    0    0  0.12996887051E-01 -0.16515585377E-01  0.10318939823E-01  0.23412905681E-01  0.00000000000E+00 0.  1.
     999901    1    3    3    0    0 -0.13234036082E+00 -0.23636614053E-01 -0.11755479386E+00  0.85388335865E+00  0.83500000000E+00 0. -1.
        -11    1    4    4    0    0  0.97435054769E-01  0.31740757288E-01  0.76106056272E-01  0.12764583226E+00  0.51100000000E-03 0.  1.
         11    1    4    4    0    0  0.21908418999E-01  0.84114421420E-02  0.31129797767E-01  0.38987903406E-01  0.51100000000E-03 0. -1.
</event>
<event>
 8    1  0.5716970E+005  0.1043930E+01  0.7957747E-01            NaN
         13   -1    0    0    0    0  0.00000000000E+00  0.00000000000E+00  0.74505805969E-08  0.10566000000E+00  0.10566000000E+00 0. -1.
     999900   -1    0    0    0    0 -0.00000000000E+00 -0.00000000000E+00 -0.74505805969E-08  0.93827000000E+00  0.93827000000E+00 0.  1.
     999902    2    1    2    0    0 -0.62055681559E-02 -0.21822627702E-01  0.62099632574E-02  0.10204076744E+01  0.10201365214E+01 0.  0.
     999903    2    3    3    0    0 -0.11064836038E+00 -0.12984293323E+00 -0.61359535658E-02  0.17190658139E+00  0.20297187789E-01 0.  0.
         14    1    1    2    0    0  0.62055681559E-02  0.21822627702E-01 -0.62099632574E-02  0.23522325557E-01  0.00000000000E+00 0.  1.
     999901    1    3    3    0    0  0.10444279222E+00  0.10802030553E+00  0.12345916823E-01  0.84850109306E+00  0.83500000000E+00 0. -1.
        -11    1    4    4    0    0 -0.96800147052E-01 -0.12240563594E+00 -0.49607512353E-02  0.15613544874E+00  0.51100000000E-03 0. -1.
         11    1    4    4    0    0 -0.13848213328E-01 -0.74372972908E-02 -0.11752023305E-02  0.15771132645E-01  0.51100000000E-03 0.  1.
</event>
<event>
 8    1  0.5716970E+005  0.1043930E+01  0.7957747E-01            NaN
         13   -1    0    0    0    0  0.00000000000E+00  0.00000000000E+00  0.74505805969E-08  0.10566000000E+00  0.10566000000E+00 0.  1.
     999900   -1    0    0    0    0 -0.00000000000E+00 -0.00000000000E+00 -0.74505805969E-08  0.93827000000E+00  0.93827000000E+00 0.  1.
     999902    2    1    2    0    0 -0.22524002440E-01 -0.83015190577E-02 -0.10897997247E-02  0.10199001526E+01  0.10196170299E+01 0.  0.
     999903    2    3    3    0    0  0.53649021313E-01  0.12598038916E+00 -0.91750319414E-01  0.16592223115E+00  0.19047040134E-01 0.  0.
         14    1    1    2    0    0  0.22524002440E-01  0.83015190577E-02  0.10897997247E-02  0.24029847441E-01  0.00000000000E+00 0. -1.
     999901    1    3    3    0    0 -0.76173023753E-01 -0.13428190821E+00  0.90660519689E-01  0.85397792141E+00  0.83500000000E+00 0. -1.
        -11    1    4    4    0    0  0.40547811780E-01  0.10693374500E+00 -0.69464398527E-01  0.13380775255E+00  0.51100000000E-03 0.  1.
         11    1    4    4    0    0  0.13101209533E-01  0.19046644160E-01 -0.22285920887E-01  0.32114478601E-01  0.51100000000E-03 0. -1.
</event>
<event>
 8    1  0.5716970E+005  0.1043930E+01  0.7957747E-01            NaN
         13   -1    0    0    0    0  0.00000000000E+00  0.00000000000E+00  0.74505805969E-08  0.10566000000E+00  0.10566000000E+00 0. -1.
     999900   -1    0    0    0    0 -0.00000000000E+00 -0.00000000000E+00 -0.74505805969E-08  0.93827000000E+00  0.93827000000E+00 0. -1.
     999902    2    1    2    0    0  0.44054505578E-02 -0.21995621756E-01  0.68123896036E-02  0.10204859384E+01  0.10202166076E+01 0.  0.
     999903    2    3    3    0    0  0.58778593541E-01 -0.58772556909E-01  0.14810702508E+00  0.17107546306E+00  0.20542314365E-01 0.  0.
         14    1    1    2    0    0 -0.44054505578E-02  0.21995621756E-01 -0.68123896036E-02  0.23444061576E-01  0.00000000000E+00 0.  1.
     999901    1    3    3    0    0 -0.54373142983E-01  0.36776935152E-01 -0.14129463548E+00  0.84941047536E+00  0.83500000000E+00 0. -1.
        -11    1    4    4    0    0  0.68273589879E-02 -0.15337151302E-01  0.41604176631E-01  0.44866576368E-01  0.51100000000E-03 0.  1.
         11    1    4    4    0    0  0.51951234553E-01 -0.43435405607E-01  0.10650284845E+00  0.12620888670E+00  0.51100000000E-03 0. -1.
</event>
<event>
 8    1  0.5716970E+005  0.1043930E+01  0.7957747E-01            NaN
         13   -1    0    0    0    0  0.00000000000E+00  0.00000000000E+00  0.74505805969E-08  0.10566000000E+00  0.10566000000E+00 0. -1.
     999900   -1    0    0    0    0 -0.00000000000E+00 -0.00000000000E+00 -0.74505805969E-08  0.93827000000E+00  0.93827000000E+00 0. -1.
     999902    2    1    2    0    0  0.13785103893E-01 -0.18244876070E-01  0.23761079960E-02  0.10209397742E+01  0.10206808865E+01 0.  0.
     999903    2    3    3    0    0 -0.79407930397E-01 -0.14932648911E+00  0.16524546188E-02  0.17059110774E+00  0.22239057385E-01 0.  0.
         14    1    1    2    0    0 -0.13785103893E-01  0.18244876070E-01 -0.23761079960E-02  0.22990225779E-01  0.00000000000E+00 0. -1.
     999901    1    3    3    0    0  0.93193034290E-01  0.13108161304E+00  0.72365337727E-03  0.85034866648E+00  0.83500000000E+00 0. -1.
        -11    1    4    4    0    0 -0.38815110087E-01 -0.53968249402E-01  0.67844601618E-02  0.66824207704E-01  0.51100000000E-03 0. -1.
         11    1    4    4    0    0 -0.40592820310E-01 -0.95358239706E-01 -0.51320055431E-02  0.10376690003E+00  0.51100000000E-03 0.  1.
</event>
<event>
 8    1  0.5716970E+005  0.1043930E+01  0.7957747E-01            NaN
         13   -1    0    0    0    0  0.00000000000E+00  0.00000000000E+00  0.74505805969E-08  0.10566000000E+00  0.10566000000E+00 0. -1.
     999900   -1    0    0    0    0 -0.00000000000E+00 -0.00000000000E+00 -0.74505805969E-08  0.93827000000E+00  0.93827000000E+00 0.  1.
     999902    2    1    2    0    0 -0.11650669326E-02  0.20782749321E-01 -0.10510061848E-01  0.10206117357E+01  0.10203453208E+01 0.  0.
     999903    2    3    3    0    0  0.27367573515E-01  0.16268847475E+00  0.42864934908E-01  0.17147968662E+00  0.18744502722E-01 0.  0.
         14    1    1    2    0    0  0.11650669326E-02 -0.20782749321E-01  0.10510061848E-01  0.23318264308E-01  0.00000000000E+00 0. -1.
     999901    1    3    3    0    0 -0.28532640447E-01 -0.14190572543E+00 -0.53374996756E-01  0.84913204907E+00  0.83500000000E+00 0.  1.
        -11    1    4    4    0    0  0.10723699878E-01  0.55280212830E-01  0.23767731071E-01  0.61123365671E-01  0.51100000000E-03 0.  1.
         11    1    4    4    0    0  0.16643873637E-01  0.10740826192E+00  0.19097203837E-01  0.11035632095E+00  0.51100000000E-03 0. -1.
</event>
<event>
 8    1  0.5716970E+005  0.1043930E+01  0.7957747E-01            NaN
         13   -1    0    0    0    0  0.00000000000E+00  0.00000000000E+00  0.74505805969E-08  0.10566000000E+00  0.10566000000E+00 0. -1.
     999900   -1    0    0    0    0 -0.00000000000E+00 -0.00000000000E+00 -0.74505805969E-08  0.93827000000E+00  0.93827000000E+00 0.  1.
     999902    2    1    2    0    0 -0.68069690299E-02  0.10997891771E-01 -0.20357528983E-01  0.10198111809E+01  0.10195259326E+01 0.  0.
     999903    2    3    3    0    0 -0.85544453816E-01  0.14322419782E+00  0.22335878561E-01  0.16967524198E+00  0.21442291135E-01 0.  0.
         14    1    1    2    0    0  0.68069690299E-02 -0.10997891771E-01  0.20357528983E-01  0.24118819147E-01  0.00000000000E+00 0. -1.
     999901    1    3    3    0    0  0.78737484786E-01 -0.13222630605E+00 -0.42693407543E-01  0.85013593888E+00  0.83500000000E+00 0.  1.
        -11    1    4    4    0    0 -0.81267315059E-01  0.13501783993E+00  0.25979445305E-01  0.15971658115E+00  0.51100000000E-03 0.  1.
         11    1    4    4    0    0 -0.42771387575E-02  0.82063578901E-02 -0.36435667445E-02  0.99586608233E-02  0.51100000000E-03 0. -1.
</event>
<event>
 8    1  0.5716970E+005  0.1043930E+01  0.7957747E-01            NaN
         13   -1    0    0    0    0  0.00000000000E+00  0.00000000000E+00  0.74505805969E-08  0.10566000000E+00  0.10566000000E+00 0.  1.
     999900   -1    0    0    0    0 -0.00000000000E+00 -0.00000000000E+00 -0.74505805969E-08  0.93827000000E+00  0.93827000000E+00 0. -1.
     999902    2    1    2    0    0 -0.82924324385E-02 -0.33622053706E-02 -0.21776374073E-01  0.10203868624E+01  0.10201152237E+01 0.  0.
     999903    2    3    3    0    0 -0.36729343137E-01  0.15556225990E+00  0.45290701729E-01  0.16728157217E+00  0.19575887535E-01 0.  0.
         14    1    1    2    0    0  0.82924324385E-02  0.33622053706E-02  0.21776374073E-01  0.23543137609E-01  0.00000000000E+00 0.  1.
     999901    1    3    3    0    0  0.28436910698E-01 -0.15892446527E+00 -0.67067075802E-01  0.85310529022E+00  0.83500000000E+00 0. -1.
        -11    1    4    4    0    0 -0.37178037215E-01  0.13490887125E+00  0.43479170304E-01  0.14653774041E+00  0.51100000000E-03 0. -1.
         11    1    4    4    0    0  0.44869407797E-03  0.20653388641E-01  0.18115314251E-02  0.20743831754E-01  0.51100000000E-03 0.  1.
</event>
<event>
 8    1  0.5716970E+005  0.1043930E+01  0.7957747E-01            NaN
         13   -1    0    0    0    0  0.00000000000E+00  0.00000000000E+00  0.74505805969E-08  0.10566000000E+00  0.10566000000E+00 0.  1.
     999900   -1    0    0    0    0 -0.00000000000E+00 -0.00000000000E+00 -0.74505805969E-08  0.93827000000E+00  0.93827000000E+00 0.  1.
     999902    2    1    2    0    0 -0.13012979054E-01 -0.11940437817E-01 -0.15259920814E-01  0.10205895445E+01  0.10203226164E+01 0.  0.
     999903    2    3    3    0    0 -0.27712945255E-01  0.10146818494E+00 -0.13215110264E+00  0.16972753860E+00  0.16724937664E-01 0.  0.
         14    1    1    2    0    0  0.13012979054E-01  0.11940437817E-01  0.15259920814E-01  0.23340455488E-01  0.00000000000E+00 0.  1.
     999901    1    3    3    0    0  0.14699966201E-01 -0.11340862276E+00  0.11689118183E+00  0.85086200592E+00  0.83500000000E+00 0.  1.
        -11    1    4    4    0    0 -0.36363187277E-02  0.39482849278E-01 -0.42788882735E-01  0.58337533438E-01  0.51100000000E-03 0.  1.
         11    1    4    4    0    0 -0.24076626527E-01  0.61985335662E-01 -0.89362219904E-01  0.11139000516E+00  0.51100000000E-03 0. -1.
</event>
<event>
 8    1  0.5716970E+005  0.1043930E+01  0.7957747E-01            NaN
         13   -1    0    0    0    0  0.00000000000E+00  0.00000000000E+00  0.74505805969E-08  0.10566000000E+00  0.10566000000E+00 0. -1.
     999900   -1    0    0    0    0 -0.00000000000E+00 -0.00000000000E+00 -0.74505805969E-08  0.93827000000E+00  0.93827000000E+00 0.  1.
     999902    2    1    2    0    0  0.12883879651E-01 -0.11770415240E-01 -0.16426958314E-01  0.10199637323E+01  0.10196821236E+01 0.  0.
     999903    2    3    3    0    0  0.67086564612E-01  0.14970789102E+00 -0.28858970635E-01  0.16767696751E+00  0.19226686127E-01 0.  0.
         14    1    1    2    0    0 -0.12883879651E-01  0.11770415240E-01  0.16426958314E-01  0.23966267737E-01  0.00000000000E+00 0.  1.
     999901    1    3    3    0    0 -0.54202684960E-01 -0.16147830626E+00  0.12432012321E-01  0.85228676476E+00  0.83500000000E+00 0.  1.
        -11    1    4    4    0    0 -0.12151065923E-03  0.10064111508E-01 -0.24046013863E-03  0.10080676930E-01  0.51100000000E-03 0. -1.
         11    1    4    4    0    0  0.67208075271E-01  0.13964377952E+00 -0.28618510497E-01  0.15759629058E+00  0.51100000000E-03 0.  1.
</event>
<event>
 8    1  0.5716970E+005  0.1043930E+01  0.7957747E-01            NaN
         13   -1    0    0    0    0  0.00000000000E+00  0.00000000000E+00  0.74505805969E-08  0.10566000000E+00  0.10566000000E+00 0.  1.
     999900   -1    0    0    0    0 -0.00000000000E+00 -0.00000000000E+00 -0.74505805969E-08  0.93827000000E+00  0.93827000000E+00 0.  1.
     999902    2    1    2    0    0 -0.13292902838E-01  0.73805015421E-02  0.18683794479E-01  0.10198414707E+01  0.10195569469E+01 0.  0.
     999903    2    3    3    0    0  0.63540609772E-01 -0.89530055058E-01 -0.12063492076E+00  0.16431254127E+00  0.19818861230E-01 0.  0.
         14    1    1    2    0    0  0.13292902838E-01 -0.73805015421E-02 -0.18683794479E-01  0.24088529324E-01  0.00000000000E+00 0. -1.
     999901    1    3    3    0    0 -0.76833512610E-01  0.96910556600E-01  0.13931871524E+00  0.85552892941E+00  0.83500000000E+00 0. -1.
        -11    1    4    4    0    0  0.28384273699E-01 -0.56705290438E-01 -0.70913641908E-01  0.95132343011E-01  0.51100000000E-03 0.  1.
         11    1    4    4    0    0  0.35156336074E-01 -0.32824764620E-01 -0.49721278857E-01  0.69180198255E-01  0.51100000000E-03 0. -1.
</event>
<event>
 8    1  0.5716970E+005  0.1043930E+01  0.7957747E-01            NaN
         13   -1    0    0    0    0  0.00000000000E+00  0.00000000000E+00  0.74505805969E-08  0.10566000000E+00  0.10566000000E+00 0.  1.
     999900   -1    0    0    0    0 -0.00000000000E+00 -0.00000000000E+00 -0.74505805969E-08  0.93827000000E+00  0.93827000000E+00 0. -1.
     999902    2    1    2    0    0 -0.12197391138E-01 -0.18427972513E-01  0.53060825616E-02  0.10212029009E+01  0.10209499712E+01 0.  0.
     999903    2    3    3    0    0 -0.62299746606E-01 -0.14287803760E+00 -0.70159863919E-01  0.17213389675E+00  0.20304675539E-01 0.  0.
         14    1    1    2    0    0  0.12197391138E-01  0.18427972513E-01 -0.53060825616E-02  0.22727099104E-01  0.00000000000E+00 0.  1.
     999901    1    3    3    0    0  0.50102355468E-01  0.12445006509E+00  0.75465946480E-01  0.84906900415E+00  0.83500000000E+00 0. -1.
        -11    1    4    4    0    0 -0.52698088267E-01 -0.98004505708E-01 -0.48448652728E-01  0.12136517094E+00  0.51100000000E-03 0.  1.
         11    1    4    4    0    0 -0.96016583385E-02 -0.44873531895E-01 -0.21711211191E-01  0.50768725806E-01  0.51100000000E-03 0. -1.
</event>
<event>
 8    1  0.5716970E+005  0.1043930E+01  0.7957747E-01            NaN
         13   -1    0    0    0    0  0.00000000000E+00  0.00000000000E+00  0.74505805969E-08  0.10566000000E+00  0.10566000000E+00 0. -1.
     999900   -1    0    0    0    0 -0.00000000000E+00 -0.00000000000E+00 -0.74505805969E-08  0.93827000000E+00  0.93827000000E+00 0.  1.
     999902    2    1    2    0    0 -0.17148223320E-01 -0.10270043368E-01 -0.20175285219E-02  0.10238400579E+01  0.10236429350E+01 0.  0.
     999903    2    3    3    0    0  0.81051849867E-01 -0.80660325770E-01  0.12501511147E+00  0.17063414025E+00  0.20291407100E-01 0.  0.
         14    1    1    2    0    0  0.17148223320E-01  0.10270043368E-01  0.20175285219E-02  0.20089942139E-01  0.00000000000E+00 0. -1.
     999901    1    3    3    0    0 -0.98200073187E-01  0.70390282402E-01 -0.12703263999E+00  0.85320591761E+00  0.83500000000E+00 0.  1.
        -11    1    4    4    0    0  0.31149042940E-01 -0.44394819177E-01  0.63607229743E-01  0.83590092968E-01  0.51100000000E-03 0.  1.
         11    1    4    4    0    0  0.49902806927E-01 -0.36265506593E-01  0.61407881724E-01  0.87044047278E-01  0.51100000000E-03 0. -1.
</event>
<event>
 8    1  0.5716970E+005  0.1043930E+01  0.7957747E-01            NaN
         13   -1    0    0    0    0  0.00000000000E+00  0.00000000000E+00  0.74505805969E-08  0.10566000000E+00  0.10566000000E+00 0. -1.
     999900   -1    0    0    0    0 -0.00000000000E+00 -0.00000000000E+00 -0.74505805969E-08  0.93827000000E+00  0.93827000000E+00 0.  1.
     999902    2    1    2    0    0 -0.22778142940E-01  0.42381094125E-02  0.16995332643E-02  0.10206986897E+01  0.10204342807E+01 0.  0.
     999903    2    3    3    0    0 -0.10746631088E+00 -0.88550882668E-01 -0.96539648761E-01  0.17060585959E+00  0.19904490608E-01 0.  0.
         14    1    1    2    0    0  0.22778142940E-01 -0.42381094125E-02 -0.16995332643E-02  0.23231310349E-01  0.00000000000E+00 0. -1.
     999901    1    3    3    0    0  0.84688167944E-01  0.92788992080E-01  0.98239182026E-01  0.85009283006E+00  0.83500000000E+00 0. -1.
        -11    1    4    4    0    0 -0.74694112797E-01 -0.66679425869E-01 -0.59194537796E-01  0.11631685496E+00  0.51100000000E-03 0.  1.
         11    1    4    4    0    0 -0.32772198087E-01 -0.21871456798E-01 -0.37345110966E-01  0.54289004632E-01  0.51100000000E-03 0. -1.
</event>
<event>
 8    1  0.5716970E+005  0.1043930E+01  0.7957747E-01            NaN
         13   -1    0    0    0    0  0.00000000000E+00  0.00000000000E+00  0.74505805969E-08  0.10566000000E+00  0.10566000000E+00 0.  1.
     999900   -1    0    0    0    0 -0.00000000000E+00 -0.00000000000E+00 -0.74505805969E-08  0.93827000000E+00  0.93827000000E+00 0.  1.
     999902    2    1    2    0    0  0.26509106823E-02 -0.69744230693E-02 -0.22794915824E-01  0.10199450445E+01  0.10196629912E+01 0.  0.
     999903    2    3    3    0    0  0.15842616655E+00 -0.53298587261E-01  0.10956526676E-01  0.16860726285E+00  0.19203488228E-01 0.  0.
         14    1    1    2    0    0 -0.26509106823E-02  0.69744230693E-02  0.22794915824E-01  0.23984955535E-01  0.00000000000E+00 0.  1.
     999901    1    3    3    0    0 -0.15577525586E+00  0.46324164192E-01 -0.33751442500E-01  0.85133778161E+00  0.83500000000E+00 0.  1.
        -11    1    4    4    0    0  0.88812004059E-01 -0.33794944649E-01 -0.25488790483E-02  0.95060129677E-01  0.51100000000E-03 0.  1.
         11    1    4    4    0    0  0.69614162486E-01 -0.19503642612E-01  0.13505405724E-01  0.73547133177E-01  0.51100000000E-03 0. -1.
</event>
<event>
 8    1  0.5716970E+005  0.1043930E+01  0.7957747E-01            NaN
         13   -1    0    0    0    0  0.00000000000E+00  0.00000000000E+00  0.74505805969E-08  0.10566000000E+00  0.10566000000E+00 0.  1.
     999900   -1    0    0    0    0 -0.00000000000E+00 -0.00000000000E+00 -0.74505805969E-08  0.93827000000E+00  0.93827000000E+00 0.  1.
     999902    2    1    2    0    0 -0.11537544031E-01 -0.14965321910E-01  0.14653799684E-01  0.10200174588E+01  0.10197371262E+01 0.  0.
     999903    2    3    3    0    0  0.47979643495E-01 -0.15954501899E+00  0.31452907196E-01  0.17033940538E+00  0.16418537691E-01 0.  0.
         14    1    1    2    0    0  0.11537544031E-01  0.14965321910E-01 -0.14653799684E-01  0.23912541214E-01  0.00000000000E+00 0. -1.
     999901    1    3    3    0    0 -0.59517187525E-01  0.14457969708E+00 -0.16799107512E-01  0.84967805340E+00  0.83500000000E+00 0. -1.
        -11    1    4    4    0    0  0.32284218572E-01 -0.80154999034E-01  0.18671755524E-01  0.88408089078E-01  0.51100000000E-03 0.  1.
         11    1    4    4    0    0  0.15695424923E-01 -0.79390019959E-01  0.12781151671E-01  0.81931316307E-01  0.51100000000E-03 0. -1.
</event>
<event>
 8    1  0.5716970E+005  0.1043930E+01  0.7957747E-01            NaN
         13   -1    0    0    0    0  0.00000000000E+00  0.00000000000E+00  0.74505805969E-08  0.10566000000E+00  0.10566000000E+00 0. -1.
     999900   -1    0    0    0    0 -0.00000000000E+00 -0.00000000000E+00 -0.74505805969E-08  0.93827000000E+00  0.93827000000E+00 0.  1.
     999902    2    1    2    0    0  0.27325176526E-02 -0.22186434598E-01  0.63648687289E-02  0.10206874509E+01  0.10204227832E+01 0.  0.
     999903    2    3    3    0    0  0.15090178734E+00  0.31538790268E-01 -0.63951530311E-01  0.16803867903E+00  0.19523183863E-01 0.  0.
         14    1    1    2    0    0 -0.27325176526E-02  0.22186434598E-01 -0.63648687289E-02  0.23242549060E-01  0.00000000000E+00 0. -1.
     999901    1    3    3    0    0 -0.14816926968E+00 -0.53725224866E-01  0.70316399040E-01  0.85264877191E+00  0.83500000000E+00 0. -1.
        -11    1    4    4    0    0  0.80843337167E-01  0.26492547752E-01 -0.32396578264E-01  0.91034606909E-01  0.51100000000E-03 0.  1.
         11    1    4    4    0    0  0.70058450169E-01  0.50462425158E-02 -0.31554952047E-01  0.77004072121E-01  0.51100000000E-03 0. -1.
</event>
<event>
 8    1  0.5716970E+005  0.1043930E+01  0.7957747E-01            NaN
         13   -1    0    0    0    0  0.00000000000E+00  0.00000000000E+00  0.74505805969E-08  0.10566000000E+00  0.10566000000E+00 0. -1.
     999900   -1    0    0    0    0 -0.00000000000E+00 -0.00000000000E+00 -0.74505805969E-08  0.93827000000E+00  0.93827000000E+00 0. -1.
     999902    2    1    2    0    0 -0.53893645596E-02 -0.53781922482E-02  0.20905081728E-01  0.10216815698E+01  0.10214392970E+01 0.  0.
     999903    2    3    3    0    0  0.13638727065E+00  0.78738916170E-01  0.60310903418E-01  0.16965215662E+00  0.18524164237E-01 0.  0.
         14    1    1    2    0    0  0.53893645596E-02  0.53781922482E-02 -0.20905081728E-01  0.22248430153E-01  0.00000000000E+00 0.  1.
     999901    1    3    3    0    0 -0.14177663521E+00 -0.84117108418E-01 -0.39405821690E-01  0.85202941323E+00  0.83500000000E+00 0.  1.
        -11    1    4    4    0    0  0.20074168913E-01  0.15348898041E-01  0.34942386639E-02  0.25515323895E-01  0.51100000000E-03 0. -1.
         11    1    4    4    0    0  0.11631310173E+00  0.63390018129E-01  0.56816664754E-01  0.14413683273E+00  0.51100000000E-03 0.  1.
</event>
<event>
 8    1  0.6168103E+005  0.1043930E+01  0.7957747E-01            NaN
         13   -1    0    0    0    0  0.00000000000E+00  0.00000000000E+00  0.74505805969E-08  0.10566000000E+00  0.10566000000E+00 0. -1.
     999900   -1    0    0    0    0 -0.00000000000E+00 -0.00000000000E+00 -0.74505805969E-08  0.93827000000E+00  0.93827000000E+00 0.  1.
     999902    2    1    2    0    0 -0.11745046096E-02 -0.22463120411E-01 -0.45381304437E-02  0.10209829769E+01  0.10207250723E+01 0.  0.
     999903    2    3    3    0    0 -0.13655503222E+00 -0.72914660454E-01  0.68392333946E-01  0.17044367873E+00  0.20241337468E-01 0.  0.
         14    1    1    2    0    0  0.11745046096E-02  0.22463120411E-01  0.45381304437E-02  0.22947023066E-01  0.00000000000E+00 0. -1.
     999901    1    3    3    0    0  0.13538052761E+00  0.50451540043E-01 -0.72930464389E-01  0.85053929820E+00  0.83500000000E+00 0.  1.
        -11    1    4    4    0    0 -0.50321945246E-01 -0.19016574488E-01  0.31026468803E-01  0.62103390938E-01  0.51100000000E-03 0. -1.
         11    1    4    4    0    0 -0.86233086977E-01 -0.53898085966E-01  0.37365865143E-01  0.10834028779E+00  0.51100000000E-03 0.  1.
</event>
<event>
 8    1  0.5716970E+005  0.1043930E+01  0.7957747E-01            NaN
         13   -1    0    0    0    0  0.00000000000E+00  0.00000000000E+00  0.74505805969E-08  0.10566000000E+00  0.10566000000E+00 0. -1.
     999900   -1    0    0    0    0 -0.00000000000E+00 -0.00000000000E+00 -0.74505805969E-08  0.93827000000E+00  0.93827000000E+00 0.  1.
     999902    2    1    2    0    0 -0.18376010501E-01 -0.11886937184E-01 -0.13177224245E-01  0.10183836446E+01  0.10180631764E+01 0.  0.
     999903    2    3    3    0    0 -0.16080050405E+00 -0.30162284836E-02 -0.52711407504E-01  0.17035571018E+00  0.19408136775E-01 0.  0.
         14    1    1    2    0    0  0.18376010501E-01  0.11886937184E-01  0.13177224245E-01  0.25546355441E-01  0.00000000000E+00 0. -1.
     999901    1    3    3    0    0  0.14242449355E+00 -0.88707087002E-02  0.39534183259E-01  0.84802793438E+00  0.83500000000E+00 0.  1.
        -11    1    4    4    0    0 -0.10050190592E+00  0.74709094643E-02 -0.33674458663E-01  0.10625760147E+00  0.51100000000E-03 0. -1.
         11    1    4    4    0    0 -0.60298598131E-01 -0.10487137948E-01 -0.19036948841E-01  0.64098108717E-01  0.51100000000E-03 0.  1.
</event>
<event>
 8    1  0.5716970E+005  0.1043930E+01  0.7957747E-01            NaN
         13   -1    0    0    0    0  0.00000000000E+00  0.00000000000E+00  0.74505805969E-08  0.10566000000E+00  0.10566000000E+00 0.  1.
     999900   -1    0    0    0    0 -0.00000000000E+00 -0.00000000000E+00 -0.74505805969E-08  0.93827000000E+00  0.93827000000E+00 0. -1.
     999902    2    1    2    0    0 -0.99661977738E-02 -0.18016761483E-01 -0.96156704342E-02  0.10212057858E+01  0.10209529211E+01 0.  0.
     999903    2    3    3    0    0  0.10296283588E+00  0.52010586241E-01  0.11779054553E+00  0.16615365879E+00  0.20639260142E-01 0.  0.
         14    1    1    2    0    0  0.99661977738E-02  0.18016761483E-01  0.96156704342E-02  0.22724214185E-01  0.00000000000E+00 0. -1.
     999901    1    3    3    0    0 -0.11292903365E+00 -0.70027347724E-01 -0.12740621596E+00  0.85505212703E+00  0.83500000000E+00 0. -1.
        -11    1    4    4    0    0  0.72537796447E-01  0.27775723149E-01  0.70298430123E-01  0.10476331948E+00  0.51100000000E-03 0.  1.
         11    1    4    4    0    0  0.30425039431E-01  0.24234863091E-01  0.47492115405E-01  0.61390339306E-01  0.51100000000E-03 0. -1.
</event>
<event>
 8    1  0.5716970E+005  0.1043930E+01  0.7957747E-01            NaN
         13   -1    0    0    0    0  0.00000000000E+00  0.00000000000E+00  0.74505805969E-08  0.10566000000E+00  0.10566000000E+00 0. -1.
     999900   -1    0    0    0    0 -0.00000000000E+00 -0.00000000000E+00 -0.74505805969E-08  0.93827000000E+00  0.93827000000E+00 0. -1.
     999902    2    1    2    0    0 -0.13673052911E-02  0.24409335763E-01 -0.18239608827E-02  0.10194144533E+01  0.10191196277E+01 0.  0.
     999903    2    3    3    0    0 -0.14993446945E+00  0.88237265089E-02 -0.72667135695E-01  0.16820421553E+00  0.21305920158E-01 0.  0.
         14    1    1    2    0    0  0.13673052911E-02 -0.24409335763E-01  0.18239608827E-02  0.24515546689E-01  0.00000000000E+00 0.  1.
     999901    1    3    3    0    0  0.14856716416E+00  0.15585609254E-01  0.70843174812E-01  0.85121023778E+00  0.83500000000E+00 0.  1.
        -11    1    4    4    0    0 -0.78483081467E-01 -0.30455395425E-02 -0.45976056648E-01  0.91010594403E-01  0.51100000000E-03 0. -1.
         11    1    4    4    0    0 -0.71451387983E-01  0.11869266051E-01 -0.26691079047E-01  0.77193621129E-01  0.51100000000E-03 0.  1.
</event>
<event>
 8    1  0.5716970E+005  0.1043930E+01  0.7957747E-01            NaN
         13   -1    0    0    0    0  0.00000000000E+00  0.00000000000E+00  0.74505805969E-08  0.10566000000E+00  0.10566000000E+00 0.  1.
     999900   -1    0    0    0    0 -0.00000000000E+00 -0.00000000000E+00 -0.74505805969E-08  0.93827000000E+00  0.93827000000E+00 0. -1.
     999902    2    1    2    0    0  0.17225784838E-01  0.67964858620E-02  0.14986339483E-01  0.10201075263E+01  0.10198293264E+01 0.  0.
     999903    2    3    3    0    0  0.16020235240E+00 -0.10774331404E-02 -0.53613824896E-01  0.17014559770E+00  0.20226903415E-01 0.  0.
         14    1    1    2    0    0 -0.17225784838E-01 -0.67964858620E-02 -0.14986339483E-01  0.23822473726E-01  0.00000000000E+00 0. -1.
     999901    1    3    3    0    0 -0.14297656756E+00  0.78739190024E-02  0.68600164378E-01  0.84996192857E+00  0.83500000000E+00 0.  1.
        -11    1    4    4    0    0  0.48227035917E-01  0.49853307457E-02 -0.24309754493E-01  0.54239522496E-01  0.51100000000E-03 0.  1.
         11    1    4    4    0    0  0.11197531648E+00 -0.60627638861E-02 -0.29304070402E-01  0.11590607520E+00  0.51100000000E-03 0. -1.
</event>
<event>
 8    1  0.5716970E+005  0.1043930E+01  0.7957747E-01            NaN
         13   -1    0    0    0    0  0.00000000000E+00  0.00000000000E+00  0.74505805969E-08  0.10566000000E+00  0.10566000000E+00 0.  1.
     999900   -1    0    0    0    0 -0.00000000000E+00 -0.00000000000E+00 -0.74505805969E-08  0.93827000000E+00  0.93827000000E+00 0.  1.
     999902    2    1    2    0    0 -0.65802012266E-02 -0.17769337848E-01  0.35375441334E-02  0.10246540400E+01  0.10244727127E+01 0.  0.
     999903    2    3    3    0    0  0.16029585465E-01  0.16478566416E+00 -0.27975373659E-01  0.16905156501E+00  0.19609879546E-01 0.  0.
         14    1    1    2    0    0  0.65802012266E-02  0.17769337848E-01 -0.35375441334E-02  0.19275960008E-01  0.00000000000E+00 0. -1.
     999901    1    3    3    0    0 -0.22609786692E-01 -0.18255500201E+00  0.31512917792E-01  0.85560247499E+00  0.83500000000E+00 0.  1.
        -11    1    4    4    0    0  0.12216507335E-01  0.72533370659E-01 -0.40423558551E-02  0.73667731556E-01  0.51100000000E-03 0. -1.
         11    1    4    4    0    0  0.38130781301E-02  0.92252293504E-01 -0.23933017804E-01  0.95383833450E-01  0.51100000000E-03 0.  1.
</event>
<event>
 8    1  0.5716970E+005  0.1043930E+01  0.7957747E-01            NaN
         13   -1    0    0    0    0  0.00000000000E+00  0.00000000000E+00  0.74505805969E-08  0.10566000000E+00  0.10566000000E+00 0.  1.
     999900   -1    0    0    0    0 -0.00000000000E+00 -0.00000000000E+00 -0.74505805969E-08  0.93827000000E+00  0.93827000000E+00 0. -1.
     999902    2    1    2    0    0  0.51824852198E-02 -0.23171536556E-01  0.67576262068E-02  0.10192430850E+01  0.10189440724E+01 0.  0.
     999903    2    3    3    0    0  0.12504179433E+00  0.23368576640E-01 -0.10613599098E+00  0.16689209809E+00  0.20163906340E-01 0.  0.
         14    1    1    2    0    0 -0.51824852198E-02  0.23171536556E-01 -0.67576262068E-02  0.24686914983E-01  0.00000000000E+00 0. -1.
     999901    1    3    3    0    0 -0.11985930911E+00 -0.46540113196E-01  0.11289361719E+00  0.85235098693E+00  0.83500000000E+00 0.  1.
        -11    1    4    4    0    0  0.11422968077E+00  0.15408958357E-01 -0.96944001974E-01  0.15061293638E+00  0.51100000000E-03 0. -1.
         11    1    4    4    0    0  0.10812113558E-01  0.79596182832E-02 -0.91919890095E-02  0.16279161703E-01  0.51100000000E-03 0.  1.
</event>
<event>
 8    1  0.5716970E+005  0.1043930E+01  0.7957747E-01            NaN
         13   -1    0    0    0    0  0.00000000000E+00  0.00000000000E+00  0.74505805969E-08  0.10566000000E+00  0.10566000000E+00 0. -1.
     999900   -1    0    0    0    0 -0.00000000000E+00 -0.00000000000E+00 -0.74505805969E-08  0.93827000000E+00  0.93827000000E+00 0. -1.
     999902    2    1    2    0    0  0.10983772307E-01 -0.60440410853E-02  0.20696989452E-01  0.10197320856E+01  0.10194449409E+01 0.  0.
     999903    2    3    3    0    0  0.13807773751E+00  0.95228611830E-01  0.86444132600E-02  0.16897989446E+00  0.18588403489E-01 0.  0.
         14    1    1    2    0    0 -0.10983772307E-01  0.60440410853E-02 -0.20696989452E-01  0.24197914354E-01  0.00000000000E+00 0.  1.
     999901    1    3    3    0    0 -0.12709396520E+00 -0.10127265292E+00  0.12052576192E-01  0.85075219119E+00  0.83500000000E+00 0.  1.
        -11    1    4    4    0    0  0.97142868331E-01  0.63226694101E-01  0.13965917615E-01  0.11674613351E+00  0.51100000000E-03 0. -1.
         11    1    4    4    0    0  0.40934869176E-01  0.32001917729E-01 -0.53215043554E-02  0.52233760944E-01  0.51100000000E-03 0.  1.
</event>
<event>
 8    1  0.5716970E+005  0.1043930E+01  0.7957747E-01            NaN
         13   -1    0    0    0    0  0.00000000000E+00  0.00000000000E+00  0.74505805969E-08  0.10566000000E+00  0.10566000000E+00 0. -1.
     999900   -1    0    0    0    0 -0.00000000000E+00 -0.00000000000E+00 -0.74505805969E-08  0.93827000000E+00  0.93827000000E+00 0.  1.
     999902    2    1    2    0    0 -0.37339947656E-03  0.20900385319E-01  0.10610731150E-01  0.10204874500E+01  0.10202181544E+01 0.  0.
     999903    2    3    3    0    0  0.55181338420E-01 -0.93945221813E-02 -0.15577405749E+00  0.16672342630E+00  0.19947599714E-01 0.  0.
         14    1    1    2    0    0  0.37339947656E-03 -0.20900385319E-01 -0.10610731150E-01  0.23442549972E-01  0.00000000000E+00 0.  1.
     999901    1    3    3    0    0 -0.55554737896E-01  0.30294907500E-01  0.16638478864E+00  0.85376402373E+00  0.83500000000E+00 0. -1.
        -11    1    4    4    0    0  0.32921679156E-01  0.36304100339E-02 -0.76673803369E-01  0.83523350504E-01  0.51100000000E-03 0.  1.
         11    1    4    4    0    0  0.22259659263E-01 -0.13024932215E-01 -0.79100254119E-01  0.83200075795E-01  0.51100000000E-03 0. -1.
</event>
<event>
 8    1  0.5716970E+005  0.1043930E+01  0.7957747E-01            NaN
         13   -1    0    0    0    0  0.00000000000E+00  0.00000000000E+00  0.74505805969E-08  0.10566000000E+00  0.10566000000E+00 0. -1.
     999900   -1    0    0    0    0 -0.00000000000E+00 -0.00000000000E+00 -0.74505805969E-08  0.93827000000E+00  0.93827000000E+00 0. -1.
     999902    2    1    2    0    0  0.22166739860E-01 -0.24386948181E-02  0.12246815780E-01  0.10184879858E+01  0.10181701632E+01 0.  0.
     999903    2    3    3    0    0 -0.14741217136E+00 -0.41578502450E-01  0.56218386357E-01  0.16441103924E+00  0.20282078981E-01 0.  0.
         14    1    1    2    0    0 -0.22166739860E-01  0.24386948181E-02 -0.12246815780E-01  0.25442014173E-01  0.00000000000E+00 0.  1.
     999901    1    3    3    0    0  0.16957891122E+00  0.39139807632E-01 -0.43971570576E-01  0.85407694659E+00  0.83500000000E+00 0.  1.
        -11    1    4    4    0    0 -0.72311434536E-01 -0.98926928714E-02  0.26269496974E-01  0.77570332790E-01  0.51100000000E-03 0.  1.
         11    1    4    4    0    0 -0.75100736825E-01 -0.31685809578E-01  0.29948889383E-01  0.86840706449E-01  0.51100000000E-03 0. -1.
</event>
<event>
 8    1  0.5716970E+005  0.1043930E+01  0.7957747E-01            NaN
         13   -1    0    0    0    0  0.00000000000E+00  0.00000000000E+00  0.74505805969E-08  0.10566000000E+00  0.10566000000E+00 0. -1.
     999900   -1    0    0    0    0 -0.00000000000E+00 -0.00000000000E+00 -0.74505805969E-08  0.93827000000E+00  0.93827000000E+00 0. -1.
     999902    2    1    2    0    0  0.13386252971E-01 -0.39003675659E-02  0.19922394043E-01  0.10196132070E+01  0.10193231997E+01 0.  0.
     999903    2    3    3    0    0  0.12666014503E+00  0.52505765705E-01  0.10050979147E+00  0.17124303127E+00  0.20550177778E-01 0.  0.
         14    1    1    2    0    0 -0.13386252971E-01  0.39003675659E-02 -0.19922394043E-01  0.24316792966E-01  0.00000000000E+00 0.  1.
     999901    1    3    3    0    0 -0.11327389206E+00 -0.56406133271E-01 -0.80587397427E-01  0.84837017576E+00  0.83500000000E+00 0. -1.
        -11    1    4    4    0    0  0.45997237581E-01  0.16667654780E-01  0.47983752219E-01  0.68529250535E-01  0.51100000000E-03 0. -1.
         11    1    4    4    0    0  0.80662907453E-01  0.35838110926E-01  0.52526039251E-01  0.10271378074E+00  0.51100000000E-03 0.  1.
</event>
<event>
 8    1  0.5716970E+005  0.1043930E+01  0.7957747E-01            NaN
         13   -1    0    0    0    0  0.00000000000E+00  0.00000000000E+00  0.74505805969E-08  0.10566000000E+00  0.10566000000E+00 0. -1.
     999900   -1    0    0    0    0 -0.00000000000E+00 -0.00000000000E+00 -0.74505805969E-08  0.93827000000E+00  0.93827000000E+00 0.  1.
     999902    2    1    2    0    0 -0.23967904538E-01 -0.59847599231E-02  0.50136560710E-03  0.10192211116E+01  0.10189215599E+01 0.  0.
     999903    2    3    3    0    0  0.77871956999E-01 -0.12028802667E-02  0.14489321789E+00  0.16571760792E+00  0.20069687990E-01 0.  0.
         14    1    1    2    0    0  0.23967904538E-01  0.59847599231E-02 -0.50136560710E-03  0.24708888416E-01  0.00000000000E+00 0. -1.
     999901    1    3    3    0    0 -0.10183986154E+00 -0.47818796564E-02 -0.14439185228E+00  0.85350350367E+00  0.83500000000E+00 0.  1.
        -11    1    4    4    0    0  0.16666350368E-01  0.39655824076E-02  0.18684866802E-01  0.25355047759E-01  0.51100000000E-03 0. -1.
         11    1    4    4    0    0  0.61205606631E-01 -0.51684626743E-02  0.12620835108E+00  0.14036256016E+00  0.51100000000E-03 0.  1.
</event>
<event>
 8    1  0.5716970E+005  0.1043930E+01  0.7957747E-01            NaN
         13   -1    0    0    0    0  0.00000000000E+00  0.00000000000E+00  0.74505805969E-08  0.10566000000E+00  0.10566000000E+00 0. -1.
     999900   -1    0    0    0    0 -0.00000000000E+00 -0.00000000000E+00 -0.74505805969E-08  0.93827000000E+00  0.93827000000E+00 0.  1.
     999902    2    1    2    0    0  0.73749565252E-02  0.13059657188E-01  0.23810214444E-01  0.10157897985E+01  0.10153999428E+01 0.  0.
     999903    2    3    3    0    0  0.16003905200E+00 -0.32783992557E-01 -0.10458766093E-01  0.16502112881E+00  0.20863816335E-01 0.  0.
         14    1    1    2    0    0 -0.73749565252E-02 -0.13059657188E-01 -0.23810214444E-01  0.28140201518E-01  0.00000000000E+00 0.  1.
     999901    1    3    3    0    0 -0.15266409548E+00  0.45843649745E-01  0.34268980537E-01  0.85076866967E+00  0.83500000000E+00 0. -1.
        -11    1    4    4    0    0  0.85267705158E-01 -0.72212015294E-02 -0.82066602990E-02  0.85967073283E-01  0.51100000000E-03 0. -1.
         11    1    4    4    0    0  0.74771346842E-01 -0.25562791027E-01 -0.22521057943E-02  0.79054055527E-01  0.51100000000E-03 0.  1.
</event>
<event>
 8    1  0.5716970E+005  0.1043930E+01  0.7957747E-01            NaN
         13   -1    0    0    0    0  0.00000000000E+00  0.00000000000E+00  0.74505805969E-08  0.10566000000E+00  0.10566000000E+00 0.  1.
     999900   -1    0    0    0    0 -0.00000000000E+00 -0.00000000000E+00 -0.74505805969E-08  0.93827000000E+00  0.93827000000E+00 0.  1.
     999902    2    1    2    0    0 -0.79630913953E-02  0.55727016526E-02  0.21478960564E-01  0.10203543436E+01  0.10200819452E+01 0.  0.
     999903    2    3    3    0    0 -0.15837773088E+00 -0.43127738130E-01  0.40548625512E-01  0.17030437522E+00  0.20393179096E-01 0.  0.
         14    1    1    2    0    0  0.79630913953E-02 -0.55727016526E-02 -0.21478960564E-01  0.23575656411E-01  0.00000000000E+00 0. -1.
     999901    1    3    3    0    0  0.15041463948E+00  0.48700439783E-01 -0.19069664948E-01  0.85004996837E+00  0.83500000000E+00 0. -1.
        -11    1    4    4    0    0 -0.11036967888E+00 -0.35204851548E-01  0.36558259396E-01  0.12148092459E+00  0.51100000000E-03 0.  1.
         11    1    4    4    0    0 -0.48008051998E-01 -0.79228865820E-02  0.39903661157E-02  0.48823450628E-01  0.51100000000E-03 0. -1.
</event>
<event>
 8    1  0.5716970E+005  0.1043930E+01  0.7957747E-01            NaN
         13   -1    0    0    0    0  0.00000000000E+00  0.00000000000E+00  0.74505805969E-08  0.10566000000E+00  0.10566000000E+00 0.  1.
     999900   -1    0    0    0    0 -0.00000000000E+00 -0.00000000000E+00 -0.74505805969E-08  0.93827000000E+00  0.93827000000E+00 0.  1.
     999902    2    1    2    0    0  0.71508140135E-02  0.24029413624E-01  0.13269596793E-02  0.10188240708E+01  0.10185146928E+01 0.  0.
     999903    2    3    3    0    0 -0.12613410282E+00 -0.96316562801E-01 -0.35651285993E-01  0.16393202277E+00  0.20396120496E-01 0.  0.
         14    1    1    2    0    0 -0.71508140135E-02 -0.24029413624E-01 -0.13269596793E-02  0.25105929223E-01  0.00000000000E+00 0. -1.
     999901    1    3    3    0    0  0.13328491683E+00  0.12034597643E+00  0.36978245673E-01  0.85489204801E+00  0.83500000000E+00 0. -1.
        -11    1    4    4    0    0 -0.67610648512E-02 -0.10837913705E-01 -0.61019926517E-02  0.14165726481E-01  0.51100000000E-03 0.  1.
         11    1    4    4    0    0 -0.11937303797E+00 -0.85478649096E-01 -0.29549293342E-01  0.14976629629E+00  0.51100000000E-03 0. -1.
</event>
<event>
 8    1  0.5716970E+005  0.1043930E+01  0.7957747E-01            NaN
         13   -1    0    0    0    0  0.00000000000E+00  0.00000000000E+00  0.74505805969E-08  0.10566000000E+00  0.10566000000E+00 0.  1.
     999900   -1    0    0    0    0 -0.00000000000E+00 -0.00000000000E+00 -0.74505805969E-08  0.93827000000E+00  0.93827000000E+00 0.  1.
     999902    2    1    2    0    0 -0.67976747122E-03  0.64044712910E-02  0.23065132360E-01  0.10199825645E+01  0.10197014035E+01 0.  0.
     999903    2    3    3    0    0  0.14597825471E+00 -0.58172766594E-02  0.84372483793E-01  0.16989931097E+00  0.20089009165E-01 0.  0.
         14    1    1    2    0    0  0.67976747122E-03 -0.64044712910E-02 -0.23065132360E-01  0.23947435502E-01  0.00000000000E+00 0. -1.
     999901    1    3    3    0    0 -0.14665802218E+00  0.12221747950E-01 -0.61307351433E-01  0.85008325353E+00  0.83500000000E+00 0.  1.
        -11    1    4    4    0    0  0.78871682518E-01  0.67481522706E-02  0.43518802818E-01  0.90335082787E-01  0.51100000000E-03 0.  1.
         11    1    4    4    0    0  0.67106572194E-01 -0.12565428930E-01  0.40853680975E-01  0.79564228181E-01  0.51100000000E-03 0. -1.
</event>
<event>
 8    1  0.5716970E+005  0.1043930E+01  0.7957747E-01            NaN
         13   -1    0    0    0    0  0.00000000000E+00  0.00000000000E+00  0.74505805969E-08  0.10566000000E+00  0.10566000000E+00 0.  1.
     999900   -1    0    0    0    0 -0.00000000000E+00 -0.00000000000E+00 -0.74505805969E-08  0.93827000000E+00  0.93827000000E+00 0.  1.
     999902    2    1    2    0    0  0.23179811238E-01  0.72506414245E-02 -0.57099445980E-02  0.10189804726E+01  0.10186749848E+01 0.  0.
     999903    2    3    3    0    0  0.76342321492E-01  0.14932538539E+00 -0.21029546306E-01  0.17017473772E+00  0.19773183033E-01 0.  0.
         14    1    1    2    0    0 -0.23179811238E-01 -0.72506414245E-02  0.57099445980E-02  0.24949527399E-01  0.00000000000E+00 0. -1.
     999901    1    3    3    0    0 -0.53162510254E-01 -0.14207474397E+00  0.15319601708E-01  0.84880573488E+00  0.83500000000E+00 0.  1.
        -11    1    4    4    0    0  0.31995604966E-01  0.74583628300E-01 -0.18772995318E-02  0.81180180598E-01  0.51100000000E-03 0. -1.
         11    1    4    4    0    0  0.44346716527E-01  0.74741757092E-01 -0.19152246774E-01  0.88994557122E-01  0.51100000000E-03 0.  1.
</event>
<event>
 8    1  0.5716970E+005  0.1043930E+01  0.7957747E-01            NaN
         13   -1    0    0    0    0  0.00000000000E+00  0.00000000000E+00  0.74505805969E-08  0.10566000000E+00  0.10566000000E+00 0. -1.
     999900   -1    0    0    0    0 -0.00000000000E+00 -0.00000000000E+00 -0.74505805969E-08  0.93827000000E+00  0.93827000000E+00 0.  1.
     999902    2    1    2    0    0 -0.87743735365E-02 -0.22193826602E-01  0.79899076615E-02  0.10187626761E+01  0.10184517642E+01 0.  0.
     999903    2    3    3    0    0 -0.12034137512E+00  0.93873823045E-01  0.63367723512E-01  0.16658276686E+00  0.20976382282E-01 0.  0.
         14    1    1    2    0    0  0.87743735365E-02  0.22193826602E-01 -0.79899076615E-02  0.25167323947E-01  0.00000000000E+00 0. -1.
     999901    1    3    3    0    0  0.11156700159E+00 -0.11606764965E+00 -0.55377815851E-01  0.85217990919E+00  0.83500000000E+00 0. -1.
        -11    1    4    4    0    0 -0.40495600104E-02  0.95409534973E-02  0.34613872664E-02  0.10939426526E-01  0.51100000000E-03 0.  1.
         11    1    4    4    0    0 -0.11629181511E+00  0.84332869548E-01  0.59906336246E-01  0.15564334034E+00  0.51100000000E-03 0. -1.
</event>
<event>
 8    1  0.5716970E+005  0.1043930E+01  0.7957747E-01            NaN
         13   -1    0    0    0    0  0.00000000000E+00  0.00000000000E+00  0.74505805969E-08  0.10566000000E+00  0.10566000000E+00 0. -1.
     999900   -1    0    0    0    0 -0.00000000000E+00 -0.00000000000E+00 -0.74505805969E-08  0.93827000000E+00  0.93827000000E+00 0. -1.
     999902    2    1    2    0    0  0.30721156228E-02 -0.68837108512E-02 -0.22499791633E-01  0.10202010305E+01  0.10199250358E+01 0.  0.
     999903    2    3    3    0    0  0.12683370482E+00  0.50359456894E-01  0.92862369261E-01  0.16631161180E+00  0.20329019137E-01 0.  0.
         14    1    1    2    0    0 -0.30721156228E-02  0.68837108512E-02  0.22499791633E-01  0.23728969489E-01  0.00000000000E+00 0. -1.
     999901    1    3    3    0    0 -0.12376158920E+00 -0.57243167745E-01 -0.11536216089E+00  0.85388941871E+00  0.83500000000E+00 0. -1.
        -11    1    4    4    0    0  0.10719881405E+00  0.49694866308E-01  0.82347835374E-01  0.14402288909E+00  0.51100000000E-03 0.  1.
         11    1    4    4    0    0  0.19634890772E-01  0.66459058631E-03  0.10514533888E-01  0.22288722712E-01  0.51100000000E-03 0. -1.
</event>
<event>
 8    1  0.5716970E+005  0.1043930E+01  0.7957747E-01            NaN
         13   -1    0    0    0    0  0.00000000000E+00  0.00000000000E+00  0.74505805969E-08  0.10566000000E+00  0.10566000000E+00 0. -1.
     999900   -1    0    0    0    0 -0.00000000000E+00 -0.00000000000E+00 -0.74505805969E-08  0.93827000000E+00  0.93827000000E+00 0.  1.
     999902    2    1    2    0    0  0.17242063685E-01  0.14239911877E-01 -0.78199940466E-02  0.10202399988E+01  0.10199649205E+01 0.  0.
     999903    2    3    3    0    0 -0.60316527053E-01  0.11819148546E+00 -0.10394133658E+00  0.16977802014E+00  0.20333814267E-01 0.  0.
         14    1    1    2    0    0 -0.17242063685E-01 -0.14239911877E-01  0.78199940466E-02  0.23690001208E-01  0.00000000000E+00 0. -1.
     999901    1    3    3    0    0  0.77558590737E-01 -0.10395157358E+00  0.96121342529E-01  0.85046197865E+00  0.83500000000E+00 0.  1.
        -11    1    4    4    0    0 -0.46637553325E-01  0.82911959433E-01 -0.84472414350E-01  0.12722147737E+00  0.51100000000E-03 0. -1.
         11    1    4    4    0    0 -0.13678973728E-01  0.35279526024E-01 -0.19468922225E-01  0.42556542767E-01  0.51100000000E-03 0.  1.
</event>
<event>
 8    1  0.5716970E+005  0.1043930E+01  0.7957747E-01            NaN
         13   -1    0    0    0    0  0.00000000000E+00  0.00000000000E+00  0.74505805969E-08  0.10566000000E+00  0.10566000000E+00 0.  1.
     999900   -1    0    0    0    0 -0.00000000000E+00 -0.00000000000E+00 -0.74505805969E-08  0.93827000000E+00  0.93827000000E+00 0. -1.
     999902    2    1    2    0    0 -0.33169811480E-02 -0.11106390520E-01  0.18726027701E-01  0.10219068670E+01  0.10216695290E+01 0.  0.
     999903    2    3    3    0    0  0.15596574590E+00  0.55711428946E-01  0.29300480122E-01  0.16916280973E+00  0.18123488981E-01 0.  0.
         14    1    1    2    0    0  0.33169811480E-02  0.11106390520E-01 -0.18726027701E-01  0.22023133014E-01  0.00000000000E+00 0. -1.
     999901    1    3    3    0    0 -0.15928272705E+00 -0.66817819466E-01 -0.10574452421E-01  0.85274405725E+00  0.83500000000E+00 0.  1.
        -11    1    4    4    0    0  0.12418080980E+00  0.41621636177E-01  0.30085167089E-01  0.13438233709E+00  0.51100000000E-03 0.  1.
         11    1    4    4    0    0  0.31784936098E-01  0.14089792769E-01 -0.78468696691E-03  0.34780472648E-01  0.51100000000E-03 0. -1.
</event>
<event>
 8    1  0.5716970E+005  0.1043930E+01  0.7957747E-01            NaN
         13   -1    0    0    0    0  0.00000000000E+00  0.00000000000E+00  0.74505805969E-08  0.10566000000E+00  0.10566000000E+00 0. -1.
     999900   -1    0    0    0    0 -0.00000000000E+00 -0.00000000000E+00 -0.74505805969E-08  0.93827000000E+00  0.93827000000E+00 0.  1.
     999902    2    1    2    0    0 -0.77885840238E-02 -0.91613890275E-02  0.39072213823E-02  0.10312864456E+01  0.10312089378E+01 0.  0.
     999903    2    3    3    0    0 -0.52330844432E-01 -0.10561962445E+00  0.13389424653E+00  0.17957650030E+00  0.20640442315E-01 0.  0.
         14    1    1    2    0    0  0.77885840238E-02  0.91613890275E-02 -0.39072213823E-02  0.12643554442E-01  0.00000000000E+00 0.  1.
     999901    1    3    3    0    0  0.44542260408E-01  0.96458235422E-01 -0.12998702515E+00  0.85170994526E+00  0.83500000000E+00 0.  1.
        -11    1    4    4    0    0 -0.50669368753E-01 -0.88716094788E-01  0.12019165256E+00  0.15774734505E+00  0.51100000000E-03 0.  1.
         11    1    4    4    0    0 -0.16614756787E-02 -0.16903529662E-01  0.13702593964E-01  0.21829155247E-01  0.51100000000E-03 0. -1.
</event>
<event>
 8    1  0.5716970E+005  0.1043930E+01  0.7957747E-01            NaN
         13   -1    0    0    0    0  0.00000000000E+00  0.00000000000E+00  0.74505805969E-08  0.10566000000E+00  0.10566000000E+00 0.  1.
     999900   -1    0    0    0    0 -0.00000000000E+00 -0.00000000000E+00 -0.74505805969E-08  0.93827000000E+00  0.93827000000E+00 0. -1.
     999902    2    1    2    0    0  0.60513819411E-02  0.22626707241E-01 -0.15135478594E-02  0.10204592111E+01  0.10201892587E+01 0.  0.
     999903    2    3    3    0    0 -0.41257492203E-01 -0.15550738031E+00 -0.30126811793E-01  0.16488127685E+00  0.19836448058E-01 0.  0.
         14    1    1    2    0    0 -0.60513819411E-02 -0.22626707241E-01  0.15135478594E-02  0.23470788889E-01  0.00000000000E+00 0.  1.
     999901    1    3    3    0    0  0.47308874144E-01  0.17813408756E+00  0.28613263933E-01  0.85557793426E+00  0.83500000000E+00 0.  1.
        -11    1    4    4    0    0 -0.24840198489E-01 -0.70172618888E-01 -0.21877715102E-01  0.77589480225E-01  0.51100000000E-03 0. -1.
         11    1    4    4    0    0 -0.16417293713E-01 -0.85334761427E-01 -0.82490966907E-02  0.87291796624E-01  0.51100000000E-03 0.  1.
</event>
<event>
 8    1  0.5716970E+005  0.1043930E+01  0.7957747E-01            NaN
         13   -1    0    0    0    0  0.00000000000E+00  0.00000000000E+00  0.74505805969E-08  0.10566000000E+00  0.10566000000E+00 0.  1.
     999900   -1    0    0    0    0 -0.00000000000E+00 -0.00000000000E+00 -0.74505805969E-08  0.93827000000E+00  0.93827000000E+00 0. -1.
     999902    2    1    2    0    0 -0.70550765677E-02  0.19699813377E-01  0.11841457485E-01  0.10198867709E+01  0.10196033290E+01 0.  0.
     999903    2    3    3    0    0  0.72906177378E-01 -0.13499955440E+00  0.58968667278E-01  0.16562002655E+00  0.20310073476E-01 0.  0.
         14    1    1    2    0    0  0.70550765677E-02 -0.19699813377E-01 -0.11841457485E-01  0.24043229148E-01  0.00000000000E+00 0. -1.
     999901    1    3    3    0    0 -0.79961253946E-01  0.15469936778E+00 -0.47127209792E-01  0.85426674431E+00  0.83500000000E+00 0.  1.
        -11    1    4    4    0    0  0.17919133732E-01 -0.50508789344E-01  0.15123302847E-01  0.55688495802E-01  0.51100000000E-03 0. -1.
         11    1    4    4    0    0  0.54987043646E-01 -0.84490765057E-01  0.43845364431E-01  0.10993153074E+00  0.51100000000E-03 0.  1.
</event>
<event>
 8    1  0.5716970E+005  0.1043930E+01  0.7957747E-01            NaN
         13   -1    0    0    0    0  0.00000000000E+00  0.00000000000E+00  0.74505805969E-08  0.10566000000E+00  0.10566000000E+00 0.  1.
     999900   -1    0    0    0    0 -0.00000000000E+00 -0.00000000000E+00 -0.74505805969E-08  0.93827000000E+00  0.93827000000E+00 0. -1.
     999902    2    1    2    0    0 -0.86347396528E-02 -0.12864792870E-01  0.18646125379E-01  0.10196866583E+01  0.10193984214E+01 0.  0.
     999903    2    3    3    0    0  0.48368229788E-01  0.15607310861E+00 -0.13391700952E-01  0.16526242212E+00  0.20833377732E-01 0.  0.
         14    1    1    2    0    0  0.86347396528E-02  0.12864792870E-01 -0.18646125379E-01  0.24243341686E-01  0.00000000000E+00 0. -1.
     999901    1    3    3    0    0 -0.57002969441E-01 -0.16893790148E+00  0.32037826331E-01  0.85442423619E+00  0.83500000000E+00 0.  1.
        -11    1    4    4    0    0  0.96302974582E-02  0.15990164708E-01 -0.64484009909E-02  0.19755277595E-01  0.51100000000E-03 0. -1.
         11    1    4    4    0    0  0.38737932330E-01  0.14008294390E+00 -0.69432999613E-02  0.14550714452E+00  0.51100000000E-03 0.  1.
</event>
<event>
 8    1  0.5716970E+005  0.1043930E+01  0.7957747E-01            NaN
         13   -1    0    0    0    0  0.00000000000E+00  0.00000000000E+00  0.74505805969E-08  0.10566000000E+00  0.10566000000E+00 0.  1.
     999900   -1    0    0    0    0 -0.00000000000E+00 -0.00000000000E+00 -0.74505805969E-08  0.93827000000E+00  0.93827000000E+00 0. -1.
     999902    2    1    2    0    0 -0.17712114738E-01  0.16450283318E-01 -0.93777513251E-02  0.10180017712E+01  0.10176715251E+01 0.  0.
     999903    2    3    3    0    0 -0.11846385063E+00  0.20611274775E-01 -0.11807663057E+00  0.16994005616E+00  0.21886604303E-01 0.  0.
         14    1    1    2    0    0  0.17712114738E-01 -0.16450283318E-01  0.93777513251E-02  0.25928228818E-01  0.00000000000E+00 0.  1.
     999901    1    3    3    0    0  0.10075173589E+00 -0.41609914563E-02  0.10869887924E+00  0.84806171502E+00  0.83500000000E+00 0.  1.
        -11    1    4    4    0    0 -0.63534166508E-01  0.20369521989E-01 -0.56583751977E-01  0.87484226285E-01  0.51100000000E-03 0. -1.
         11    1    4    4    0    0 -0.54929684122E-01  0.24175278551E-03 -0.61492878591E-01  0.82455829876E-01  0.51100000000E-03 0.  1.
</event>
<event>
 8    1  0.5716970E+005  0.1043930E+01  0.7957747E-01            NaN
         13   -1    0    0    0    0  0.00000000000E+00  0.00000000000E+00  0.74505805969E-08  0.10566000000E+00  0.10566000000E+00 0.  1.
     999900   -1    0    0    0    0 -0.00000000000E+00 -0.00000000000E+00 -0.74505805969E-08  0.93827000000E+00  0.93827000000E+00 0.  1.
     999902    2    1    2    0    0  0.17134246494E-01 -0.46146594916E-03 -0.45214024811E-02  0.10262032283E+01  0.10260501096E+01 0.  0.
     999903    2    3    3    0    0  0.65629472555E-01 -0.96831647598E-01  0.12718769165E+00  0.17402291622E+00  0.20583265444E-01 0.  0.
         14    1    1    2    0    0 -0.17134246494E-01  0.46146594916E-03  0.45214024811E-02  0.17726771679E-01  0.00000000000E+00 0.  1.
     999901    1    3    3    0    0 -0.48495226060E-01  0.96370181649E-01 -0.13170909413E+00  0.85218031210E+00  0.83500000000E+00 0.  1.
        -11    1    4    4    0    0  0.26469510118E-01 -0.25826859472E-01  0.31363961320E-01  0.48493513244E-01  0.51100000000E-03 0.  1.
         11    1    4    4    0    0  0.39159962437E-01 -0.71004788126E-01  0.95823730332E-01  0.12552940297E+00  0.51100000000E-03 0. -1.
</event>
<event>
 8    1  0.5716970E+005  0.1043930E+01  0.7957747E-01            NaN
         13   -1    0    0    0    0  0.00000000000E+00  0.00000000000E+00  0.74505805969E-08  0.10566000000E+00  0.10566000000E+00 0. -1.
     999900   -1    0    0    0    0 -0.00000000000E+00 -0.00000000000E+00 -0.74505805969E-08  0.93827000000E+00  0.93827000000E+00 0.  1.
     999902    2    1    2    0    0  0.50873919732E-02 -0.18564104728E-01  0.53077203076E-02  0.10239630414E+01  0.10237683482E+01 0.  0.
     999903    2    3    3    0    0 -0.15074823425E+00  0.32379019825E-01  0.69986409385E-01  0.17056496478E+00  0.20515327385E-01 0.  0.
         14    1    1    2    0    0 -0.50873919732E-02  0.18564104728E-01 -0.53077203076E-02  0.19966958614E-01  0.00000000000E+00 0. -1.
     999901    1    3    3    0    0  0.15583562622E+00 -0.50943124553E-01 -0.64678689077E-01  0.85339807661E+00  0.83500000000E+00 0.  1.
        -11    1    4    4    0    0 -0.74107835860E-01  0.16188101970E-01  0.23211865196E-01  0.79328921511E-01  0.51100000000E-03 0.  1.
         11    1    4    4    0    0 -0.76640398386E-01  0.16190917855E-01  0.46774544189E-01  0.91236043266E-01  0.51100000000E-03 0. -1.
</event>
<event>
 8    1  0.5716970E+005  0.1043930E+01  0.7957747E-01            NaN
         13   -1    0    0    0    0  0.00000000000E+00  0.00000000000E+00  0.74505805969E-08  0.10566000000E+00  0.10566000000E+00 0.  1.
     999900   -1    0    0    0    0 -0.00000000000E+00 -0.00000000000E+00 -0.74505805969E-08  0.93827000000E+00  0.93827000000E+00 0. -1.
     999902    2    1    2    0    0 -0.20611747464E-01 -0.13649956437E-01  0.19789588697E-02  0.10191291588E+01  0.10188273459E+01 0.  0.
     999903    2    3    3    0    0 -0.52112401804E-01 -0.56268814590E-01 -0.14915608037E+00  0.16890832965E+00  0.20015134224E-01 0.  0.
         14    1    1    2    0    0  0.20611747464E-01  0.13649956437E-01 -0.19789588697E-02  0.24800841165E-01  0.00000000000E+00 0.  1.
     999901    1    3    3    0    0  0.31500654340E-01  0.42618858154E-01  0.15113503924E+00  0.85022082918E+00  0.83500000000E+00 0.  1.
        -11    1    4    4    0    0 -0.23398297258E-01 -0.38140905775E-01 -0.94511934792E-01  0.10457043534E+00  0.51100000000E-03 0.  1.
         11    1    4    4    0    0 -0.28714104546E-01 -0.18127908816E-01 -0.54644145575E-01  0.64337894312E-01  0.51100000000E-03 0. -1.
</event>
<event>
 8    1  0.5716970E+005  0.1043930E+01  0.7957747E-01            NaN
         13   -1    0    0    0    0  0.00000000000E+00  0.00000000000E+00  0.74505805969E-08  0.10566000000E+00  0.10566000000E+00 0. -1.
     999900   -1    0    0    0    0 -0.00000000000E+00 -0.00000000000E+00 -0.74505805969E-08  0.93827000000E+00  0.93827000000E+00 0. -1.
     999902    2    1    2    0    0  0.52986621935E-02 -0.13046974124E-01 -0.17203668458E-01  0.10216979159E+01  0.10214560029E+01 0.  0.
     999903    2    3    3    0    0 -0.89114849158E-01 -0.39672604410E-01 -0.14039731455E+00  0.17197766208E+00  0.18695947188E-01 0.  0.
         14    1    1    2    0    0 -0.52986621935E-02  0.13046974124E-01  0.17203668458E-01  0.22232084096E-01  0.00000000000E+00 0. -1.
     999901    1    3    3    0    0  0.94413511351E-01  0.26625630286E-01  0.12319364609E+00  0.84972025382E+00  0.83500000000E+00 0.  1.
        -11    1    4    4    0    0 -0.38295245675E-01 -0.23230408967E-01 -0.51382958876E-01  0.68166321053E-01  0.51100000000E-03 0. -1.
         11    1    4    4    0    0 -0.50819603483E-01 -0.16442195444E-01 -0.89014355676E-01  0.10381134103E+00  0.51100000000E-03 0.  1.
</event>
<event>
 8    1  0.5716970E+005  0.1043930E+01  0.7957747E-01            NaN
         13   -1    0    0    0    0  0.00000000000E+00  0.00000000000E+00  0.74505805969E-08  0.10566000000E+00  0.10566000000E+00 0.  1.
     999900   -1    0    0    0    0 -0.00000000000E+00 -0.00000000000E+00 -0.74505805969E-08  0.93827000000E+00  0.93827000000E+00 0. -1.
     999902    2    1    2    0    0 -0.18371119495E-01 -0.45830526590E-03 -0.13052244428E-01  0.10213896105E+01  0.10211408655E+01 0.  0.
     999903    2    3    3    0    0  0.44130227338E-01 -0.10472844496E+00 -0.12523074292E+00  0.17016243991E+00  0.18894253996E-01 0.  0.
         14    1    1    2    0    0  0.18371119495E-01  0.45830526590E-03  0.13052244428E-01  0.22540389523E-01  0.00000000000E+00 0.  1.
     999901    1    3    3    0    0 -0.62501346833E-01  0.10427013970E+00  0.11217849849E+00  0.85122717057E+00  0.83500000000E+00 0. -1.
        -11    1    4    4    0    0  0.10749602360E-01 -0.49341069919E-01 -0.52842980369E-01  0.73094027300E-01  0.51100000000E-03 0. -1.
         11    1    4    4    0    0  0.33380624978E-01 -0.55387375043E-01 -0.72387762554E-01  0.97068412610E-01  0.51100000000E-03 0.  1.
</event>
<event>
 8    1  0.5716970E+005  0.1043930E+01  0.7957747E-01            NaN
         13   -1    0    0    0    0  0.00000000000E+00  0.00000000000E+00  0.74505805969E-08  0.10566000000E+00  0.10566000000E+00 0. -1.
     999900   -1    0    0    0    0 -0.00000000000E+00 -0.00000000000E+00 -0.74505805969E-08  0.93827000000E+00  0.93827000000E+00 0. -1.
     999902    2    1    2    0    0  0.22935170388E-01 -0.74830733915E-02 -0.13145753764E-02  0.10197691528E+01  0.10194828976E+01 0.  0.
     999903    2    3    3    0    0  0.14770095619E-01 -0.15389073023E+00 -0.66391939205E-01  0.16949747052E+00  0.20518049305E-01 0.  0.
         14    1    1    2    0    0 -0.22935170388E-01  0.74830733915E-02  0.13145753764E-02  0.24160847182E-01  0.00000000000E+00 0. -1.
     999901    1    3    3    0    0  0.81650747692E-02  0.14640765684E+00  0.65077363828E-01  0.85027168229E+00  0.83500000000E+00 0. -1.
        -11    1    4    4    0    0 -0.49461973708E-02 -0.43202745598E-01 -0.20114672164E-01  0.47914541143E-01  0.51100000000E-03 0.  1.
         11    1    4    4    0    0  0.19716292990E-01 -0.11068798463E+00 -0.46277267040E-01  0.12158292938E+00  0.51100000000E-03 0. -1.
</event>
<event>
 8    1  0.5716970E+005  0.1043930E+01  0.7957747E-01            NaN
         13   -1    0    0    0    0  0.00000000000E+00  0.00000000000E+00  0.74505805969E-08  0.10566000000E+00  0.10566000000E+00 0. -1.
     999900   -1    0    0    0    0 -0.00000000000E+00 -0.00000000000E+00 -0.74505805969E-08  0.93827000000E+00  0.93827000000E+00 0. -1.
     999902    2    1    2    0    0  0.56212664847E-02  0.20981779119E-01  0.96425723777E-02  0.10201642075E+01  0.10198873454E+01 0.  0.
     999903    2    3    3    0    0 -0.14329879479E+00  0.77492008283E-01 -0.38573192442E-01  0.16874166219E+00  0.21125847910E-01 0.  0.
         14    1    1    2    0    0 -0.56212664847E-02 -0.20981779119E-01 -0.96425723777E-02  0.23765792516E-01  0.00000000000E+00 0.  1.
     999901    1    3    3    0    0  0.14892006127E+00 -0.56510229164E-01  0.48215764819E-01  0.85142254529E+00  0.83500000000E+00 0.  1.
        -11    1    4    4    0    0 -0.66994972886E-01  0.41185610278E-01 -0.28464721194E-01  0.83636608968E-01  0.51100000000E-03 0.  1.
         11    1    4    4    0    0 -0.76303821901E-01  0.36306398005E-01 -0.10108471248E-01  0.85105053226E-01  0.51100000000E-03 0. -1.
</event>
<event>
 8    1  0.5716970E+005  0.1043930E+01  0.7957747E-01            NaN
         13   -1    0    0    0    0  0.00000000000E+00  0.00000000000E+00  0.74505805969E-08  0.10566000000E+00  0.10566000000E+00 0.  1.
     999900   -1    0    0    0    0 -0.00000000000E+00 -0.00000000000E+00 -0.74505805969E-08  0.93827000000E+00  0.93827000000E+00 0. -1.
     999902    2    1    2    0    0  0.11955591867E-01 -0.12780569476E-01 -0.15257361431E-01  0.10207122006E+01  0.10204481026E+01 0.  0.
     999903    2    3    3    0    0  0.12353020726E+00  0.60543751289E-01 -0.99236377511E-01  0.17094586447E+00  0.21198396905E-01 0.  0.
         14    1    1    2    0    0 -0.11955591867E-01  0.12780569476E-01  0.15257361431E-01  0.23217799440E-01  0.00000000000E+00 0.  1.
     999901    1    3    3    0    0 -0.11157461539E+00 -0.73324320766E-01  0.83979016081E-01  0.84976633609E+00  0.83500000000E+00 0.  1.
        -11    1    4    4    0    0  0.11186982446E+00  0.47085170218E-01 -0.86212327721E-01  0.14887812953E+00  0.51100000000E-03 0.  1.
         11    1    4    4    0    0  0.11660382797E-01  0.13458581072E-01 -0.13024049791E-01  0.22067734940E-01  0.51100000000E-03 0. -1.
</event>
<event>
 8    1  0.5716970E+005  0.1043930E+01  0.7957747E-01            NaN
         13   -1    0    0    0    0  0.00000000000E+00  0.00000000000E+00  0.74505805969E-08  0.10566000000E+00  0.10566000000E+00 0. -1.
     999900   -1    0    0    0    0 -0.00000000000E+00 -0.00000000000E+00 -0.74505805969E-08  0.93827000000E+00  0.93827000000E+00 0.  1.
     999902    2    1    2    0    0 -0.20859844601E-01 -0.11155562603E-01 -0.34007895141E-02  0.10200313586E+01  0.10197513557E+01 0.  0.
     999903    2    3    3    0    0 -0.16774740265E+00  0.25739527998E-01  0.10809696564E-01  0.17128867650E+00  0.20524296817E-01 0.  0.
         14    1    1    2    0    0  0.20859844601E-01  0.11155562603E-01  0.34007895141E-02  0.23898641449E-01  0.00000000000E+00 0.  1.
     999901    1    3    3    0    0  0.14688755805E+00 -0.36895090601E-01 -0.14210486078E-01  0.84874268205E+00  0.83500000000E+00 0. -1.
        -11    1    4    4    0    0 -0.71934571676E-01  0.14309948327E-01 -0.49672942621E-02  0.73513892269E-01  0.51100000000E-03 0.  1.
         11    1    4    4    0    0 -0.95812830975E-01  0.11429579671E-01  0.15776990826E-01  0.97774784231E-01  0.51100000000E-03 0. -1.
</event>
<event>
 8    1  0.5716970E+005  0.1043930E+01  0.7957747E-01            NaN
         13   -1    0    0    0    0  0.00000000000E+00  0.00000000000E+00  0.74505805969E-08  0.10566000000E+00  0.10566000000E+00 0.  1.
     999900   -1    0    0    0    0 -0.00000000000E+00 -0.00000000000E+00 -0.74505805969E-08  0.93827000000E+00  0.93827000000E+00 0. -1.
     999902    2    1    2    0    0  0.19323651276E-01 -0.12415473159E-01 -0.53387134858E-02  0.10203493017E+01  0.10200767854E+01 0.  0.
     999903    2    3    3    0    0 -0.12341647647E+00  0.86503590939E-01  0.63279468396E-01  0.16472486291E+00  0.20383606880E-01 0.  0.
         14    1    1    2    0    0 -0.19323651276E-01  0.12415473159E-01  0.53387134858E-02  0.23580698338E-01  0.00000000000E+00 0.  1.
     999901    1    3    3    0    0  0.14274012775E+00 -0.98919064098E-01 -0.68618181882E-01  0.85562443876E+00  0.83500000000E+00 0.  1.
        -11    1    4    4    0    0 -0.65168211348E-01  0.42396347464E-01  0.43234139906E-01  0.88959530254E-01  0.51100000000E-03 0.  1.
         11    1    4    4    0    0 -0.58248265122E-01  0.44107243476E-01  0.20045328491E-01  0.75765332653E-01  0.51100000000E-03 0. -1.
</event>
<event>
 8    1  0.5716970E+005  0.1043930E+01  0.7957747E-01            NaN
         13   -1    0    0    0    0  0.00000000000E+00  0.00000000000E+00  0.74505805969E-08  0.10566000000E+00  0.10566000000E+00 0.  1.
     999900   -1    0    0    0    0 -0.00000000000E+00 -0.00000000000E+00 -0.74505805969E-08  0.93827000000E+00  0.93827000000E+00 0. -1.
     999902    2    1    2    0    0  0.15253919586E-01 -0.74995712518E-02  0.17789253223E-01  0.10193254646E+01  0.10190284685E+01 0.  0.
     999903    2    3    3    0    0  0.59618077275E-01 -0.88279916585E-02  0.15909269768E+00  0.17129149913E+00  0.19951006100E-01 0.  0.
         14    1    1    2    0    0 -0.15253919586E-01  0.74995712518E-02 -0.17789253223E-01  0.24604535394E-01  0.00000000000E+00 0. -1.
     999901    1    3    3    0    0 -0.44364157689E-01  0.13284204067E-02 -0.14130344446E+00  0.84803396548E+00  0.83500000000E+00 0. -1.
        -11    1    4    4    0    0  0.46076548769E-01 -0.78492174470E-03  0.13355777528E+00  0.14128554387E+00  0.51100000000E-03 0. -1.
         11    1    4    4    0    0  0.13541528507E-01 -0.80430699138E-02  0.25534922397E-01  0.30005955255E-01  0.51100000000E-03 0.  1.
</event>
<event>
 8    1  0.5716970E+005  0.1043930E+01  0.7957747E-01            NaN
         13   -1    0    0    0    0  0.00000000000E+00  0.00000000000E+00  0.74505805969E-08  0.10566000000E+00  0.10566000000E+00 0.  1.
     999900   -1    0    0    0    0 -0.00000000000E+00 -0.00000000000E+00 -0.74505805969E-08  0.93827000000E+00  0.93827000000E+00 0. -1.
     999902    2    1    2    0    0 -0.60415252246E-02  0.15075344740E-01 -0.17312711196E-01  0.10201919290E+01  0.10199157200E+01 0.  0.
     999903    2    3    3    0    0 -0.78719449693E-02  0.15818103700E+00 -0.63460930214E-01  0.17175969970E+00  0.19771110080E-01 0.  0.
         14    1    1    2    0    0  0.60415252246E-02 -0.15075344740E-01  0.17312711196E-01  0.23738071005E-01  0.00000000000E+00 0.  1.
     999901    1    3    3    0    0  0.18304197447E-02 -0.14310569226E+00  0.46148219018E-01  0.84843222930E+00  0.83500000000E+00 0.  1.
        -11    1    4    4    0    0  0.40460874665E-02  0.60247994482E-01 -0.31147670208E-01  0.67945788267E-01  0.51100000000E-03 0. -1.
         11    1    4    4    0    0 -0.11918032436E-01  0.97933042514E-01 -0.32313260006E-01  0.10381391143E+00  0.51100000000E-03 0.  1.
</event>
<event>
 8    1  0.5716970E+005  0.1043930E+01  0.7957747E-01            NaN
         13   -1    0    0    0    0  0.00000000000E+00  0.00000000000E+00  0.74505805969E-08  0.10566000000E+00  0.10566000000E+00 0. -1.
     999900   -1    0    0    0    0 -0.00000000000E+00 -0.00000000000E+00 -0.74505805969E-08  0.93827000000E+00  0.93827000000E+00 0.  1.
     999902    2    1    2    0    0  0.57739441963E-02  0.40812821039E-03  0.22759682213E-01  0.10204457897E+01  0.10201755249E+01 0.  0.
     999903    2    3    3    0    0 -0.46388198591E-01  0.10945825935E+00 -0.11364910739E+00  0.16578493406E+00  0.20869816553E-01 0.  0.
         14    1    1    2    0    0 -0.57739441963E-02 -0.40812821039E-03 -0.22759682213E-01  0.23484210326E-01  0.00000000000E+00 0.  1.
     999901    1    3    3    0    0  0.52162142788E-01 -0.10905013114E+00  0.13640878960E+00  0.85466085562E+00  0.83500000000E+00 0.  1.
        -11    1    4    4    0    0 -0.66124536289E-02  0.38599753450E-01 -0.42283959363E-01  0.57635577987E-01  0.51100000000E-03 0.  1.
         11    1    4    4    0    0 -0.39775744962E-01  0.70858505898E-01 -0.71365148023E-01  0.10814935607E+00  0.51100000000E-03 0. -1.
</event>
<event>
 8    1  0.5716970E+005  0.1043930E+01  0.7957747E-01            NaN
         13   -1    0    0    0    0  0.00000000000E+00  0.00000000000E+00  0.74505805969E-08  0.10566000000E+00  0.10566000000E+00 0. -1.
     999900   -1    0    0    0    0 -0.00000000000E+00 -0.00000000000E+00 -0.74505805969E-08  0.93827000000E+00  0.93827000000E+00 0.  1.
     999902    2    1    2    0    0 -0.35967539181E-02 -0.13807203048E-01  0.14987755768E-01  0.10232368050E+01  0.10230275416E+01 0.  0.
     999903    2    3    3    0    0  0.14943865164E+00  0.10689829303E-01  0.80876411461E-01  0.17142329558E+00  0.19969208360E-01 0.  0.
         14    1    1    2    0    0  0.35967539181E-02  0.13807203048E-01 -0.14987755768E-01  0.20693194962E-01  0.00000000000E+00 0.  1.
     999901    1    3    3    0    0 -0.15303540556E+00 -0.24497032351E-01 -0.65888655693E-01  0.85181350946E+00  0.83500000000E+00 0. -1.
        -11    1    4    4    0    0  0.10079410374E+00  0.16632225197E-02  0.45512215459E-01  0.11060669299E+00  0.51100000000E-03 0.  1.
         11    1    4    4    0    0  0.48644547897E-01  0.90266067836E-02  0.35364196002E-01  0.60816602586E-01  0.51100000000E-03 0. -1.
</event>
<event>
 8    1  0.5716970E+005  0.1043930E+01  0.7957747E-01            NaN
         13   -1    0    0    0    0  0.00000000000E+00  0.00000000000E+00  0.74505805969E-08  0.10566000000E+00  0.10566000000E+00 0. -1.
     999900   -1    0    0    0    0 -0.00000000000E+00 -0.00000000000E+00 -0.74505805969E-08  0.93827000000E+00  0.93827000000E+00 0.  1.
     999902    2    1    2    0    0 -0.22235284189E-01 -0.54880571376E-02 -0.70177144069E-02  0.10199764001E+01  0.10196950925E+01 0.  0.
     999903    2    3    3    0    0 -0.49999895956E-01 -0.12465487635E+00  0.10106635659E+00  0.16916574495E+00  0.19073883589E-01 0.  0.
         14    1    1    2    0    0  0.22235284189E-01  0.54880571376E-02  0.70177144069E-02  0.23953599930E-01  0.00000000000E+00 0.  1.
     999901    1    3    3    0    0  0.27764611767E-01  0.11916681921E+00 -0.10808407100E+00  0.85081065512E+00  0.83500000000E+00 0.  1.
        -11    1    4    4    0    0 -0.32538648432E-01 -0.56410099037E-01  0.45519502894E-01  0.79455328203E-01  0.51100000000E-03 0. -1.
         11    1    4    4    0    0 -0.17461247525E-01 -0.68244777313E-01  0.55546853697E-01  0.89710416743E-01  0.51100000000E-03 0.  1.
</event>
<event>
 8    1  0.5716970E+005  0.1043930E+01  0.7957747E-01            NaN
         13   -1    0    0    0    0  0.00000000000E+00  0.00000000000E+00  0.74505805969E-08  0.10566000000E+00  0.10566000000E+00 0. -1.
     999900   -1    0    0    0    0 -0.00000000000E+00 -0.00000000000E+00 -0.74505805969E-08  0.93827000000E+00  0.93827000000E+00 0. -1.
     999902    2    1    2    0    0 -0.26122650203E-02 -0.19922430022E-01 -0.14735086144E-01  0.10190131400E+01  0.10187084616E+01 0.  0.
     999903    2    3    3    0    0  0.60300731389E-01 -0.13788598312E-01  0.15187737482E+00  0.16520966080E+00  0.20029762628E-01 0.  0.
         14    1    1    2    0    0  0.26122650203E-02  0.19922430022E-01  0.14735086144E-01  0.24916859958E-01  0.00000000000E+00 0. -1.
     999901    1    3    3    0    0 -0.62912996409E-01 -0.61338317100E-02 -0.16661246097E+00  0.85380347924E+00  0.83500000000E+00 0. -1.
        -11    1    4    4    0    0  0.51904770923E-01 -0.18543301161E-01  0.13387352586E+00  0.14477686731E+00  0.51100000000E-03 0. -1.
         11    1    4    4    0    0  0.83959604657E-02  0.47547028492E-02  0.18003848965E-01  0.20432793492E-01  0.51100000000E-03 0.  1.
</event>
<event>
 8    1  0.5716970E+005  0.1043930E+01  0.7957747E-01            NaN
         13   -1    0    0    0    0  0.00000000000E+00  0.00000000000E+00  0.74505805969E-08  0.10566000000E+00  0.10566000000E+00 0. -1.
     999900   -1    0    0    0    0 -0.00000000000E+00 -0.00000000000E+00 -0.74505805969E-08  0.93827000000E+00  0.93827000000E+00 0.  1.
     999902    2    1    2    0    0 -0.14548243880E-02  0.50285216112E-02 -0.23088840177E-01  0.10202551804E+01  0.10199804586E+01 0.  0.
     999903    2    3    3    0    0 -0.16321611340E+00 -0.10290946774E-01 -0.39709803149E-01  0.16943048801E+00  0.19606594349E-01 0.  0.
         14    1    1    2    0    0  0.14548243880E-02 -0.50285216112E-02  0.23088840177E-01  0.23674819626E-01  0.00000000000E+00 0. -1.
     999901    1    3    3    0    0  0.16176128901E+00  0.15319468386E-01  0.16620962972E-01  0.85082469237E+00  0.83500000000E+00 0. -1.
        -11    1    4    4    0    0 -0.14091428151E+00 -0.78881189559E-02 -0.40958953490E-01  0.14695902199E+00  0.51100000000E-03 0.  1.
         11    1    4    4    0    0 -0.22301831890E-01 -0.24028278185E-02  0.12491503417E-02  0.22471466013E-01  0.51100000000E-03 0. -1.
</event>
<event>
 8    1  0.5716970E+005  0.1043930E+01  0.7957747E-01            NaN
         13   -1    0    0    0    0  0.00000000000E+00  0.00000000000E+00  0.74505805969E-08  0.10566000000E+00  0.10566000000E+00 0.  1.
     999900   -1    0    0    0    0 -0.00000000000E+00 -0.00000000000E+00 -0.74505805969E-08  0.93827000000E+00  0.93827000000E+00 0. -1.
     999902    2    1    2    0    0 -0.19359854622E-01  0.36749169381E-02 -0.84511878864E-02  0.10224886483E+01  0.10222638135E+01 0.  0.
     999903    2    3    3    0    0 -0.42711178879E-01  0.13973363677E+00 -0.90643123116E-01  0.17217236962E+00  0.87985820612E-02 0.  0.
         14    1    1    2    0    0  0.19359854622E-01 -0.36749169381E-02  0.84511878864E-02  0.21441351687E-01  0.00000000000E+00 0.  1.
     999901    1    3    3    0    0  0.23351324257E-01 -0.13605871984E+00  0.82191935230E-01  0.85031627869E+00  0.83500000000E+00 0.  1.
        -11    1    4    4    0    0 -0.37677058639E-01  0.12278935643E+00 -0.76228693549E-01  0.14935816563E+00  0.51100000000E-03 0.  1.
         11    1    4    4    0    0 -0.50341202400E-02  0.16944280344E-01 -0.14414429568E-01  0.22814203991E-01  0.51100000000E-03 0. -1.
</event>
<event>
 8    1  0.5716970E+005  0.1043930E+01  0.7957747E-01            NaN
         13   -1    0    0    0    0  0.00000000000E+00  0.00000000000E+00  0.74505805969E-08  0.10566000000E+00  0.10566000000E+00 0.  1.
     999900   -1    0    0    0    0 -0.00000000000E+00 -0.00000000000E+00 -0.74505805969E-08  0.93827000000E+00  0.93827000000E+00 0.  1.
     999902    2    1    2    0    0 -0.30028175803E-02 -0.18730524268E-01  0.14748581463E-01  0.10199014730E+01  0.10196183818E+01 0.  0.
     999903    2    3    3    0    0 -0.92829286732E-01 -0.11986341693E+00  0.78637943320E-01  0.17160700347E+00  0.16748800453E-01 0.  0.
         14    1    1    2    0    0  0.30028175803E-02  0.18730524268E-01 -0.14748581463E-01  0.24028526962E-01  0.00000000000E+00 0. -1.
     999901    1    3    3    0    0  0.89826469152E-01  0.10113289267E+00 -0.63889361857E-01  0.84829446957E+00  0.83500000000E+00 0. -1.
        -11    1    4    4    0    0 -0.12867459772E-01 -0.25073626122E-01  0.10291553285E-01  0.30007256420E-01  0.51100000000E-03 0.  1.
         11    1    4    4    0    0 -0.79961826960E-01 -0.94789790812E-01  0.68346390036E-01  0.14159974705E+00  0.51100000000E-03 0. -1.
</event>
<event>
 8    1  0.5716970E+005  0.1043930E+01  0.7957747E-01            NaN
         13   -1    0    0    0    0  0.00000000000E+00  0.00000000000E+00  0.74505805969E-08  0.10566000000E+00  0.10566000000E+00 0. -1.
     999900   -1    0    0    0    0 -0.00000000000E+00 -0.00000000000E+00 -0.74505805969E-08  0.93827000000E+00  0.93827000000E+00 0. -1.
     999902    2    1    2    0    0  0.19763404000E-01 -0.97923787727E-03  0.13374481896E-01  0.10200463694E+01  0.10197667223E+01 0.  0.
     999903    2    3    3    0    0  0.80600061667E-01 -0.67659439259E-01  0.13443079384E+00  0.17150233470E+00  0.16347562874E-01 0.  0.
         14    1    1    2    0    0 -0.19763404000E-01  0.97923787727E-03 -0.13374481896E-01  0.23883630596E-01  0.00000000000E+00 0.  1.
     999901    1    3    3    0    0 -0.60836657667E-01  0.66680201382E-01 -0.12105631195E+00  0.84854403471E+00  0.83500000000E+00 0. -1.
        -11    1    4    4    0    0  0.88946229638E-02 -0.85113715190E-02  0.25364478595E-01  0.28198859165E-01  0.51100000000E-03 0.  1.
         11    1    4    4    0    0  0.71705438703E-01 -0.59148067740E-01  0.10906631525E+00  0.14330347553E+00  0.51100000000E-03 0. -1.
</event>
<event>
 8    1  0.5716970E+005  0.1043930E+01  0.7957747E-01            NaN
         13   -1    0    0    0    0  0.00000000000E+00  0.00000000000E+00  0.74505805969E-08  0.10566000000E+00  0.10566000000E+00 0. -1.
     999900   -1    0    0    0    0 -0.00000000000E+00 -0.00000000000E+00 -0.74505805969E-08  0.93827000000E+00  0.93827000000E+00 0. -1.
     999902    2    1    2    0    0 -0.15117863000E-01  0.82513899327E-02 -0.16758148792E-01  0.10198993785E+01  0.10196162374E+01 0.  0.
     999903    2    3    3    0    0 -0.13773636282E+00 -0.40343125730E-01 -0.91819475317E-01  0.17122044855E+00  0.16933768551E-01 0.  0.
         14    1    1    2    0    0  0.15117863000E-01 -0.82513899327E-02  0.16758148792E-01  0.24030621474E-01  0.00000000000E+00 0.  1.
     999901    1    3    3    0    0  0.12261849982E+00  0.48594515662E-01  0.75061326525E-01  0.84867892998E+00  0.83500000000E+00 0.  1.
        -11    1    4    4    0    0 -0.10630185064E+00 -0.24679948002E-01 -0.64935763416E-01  0.12698857340E+00  0.51100000000E-03 0. -1.
         11    1    4    4    0    0 -0.31434512174E-01 -0.15663177728E-01 -0.26883711901E-01  0.44231875144E-01  0.51100000000E-03 0.  1.
</event>
<event>
 8    1  0.5716970E+005  0.1043930E+01  0.7957747E-01            NaN
         13   -1    0    0    0    0  0.00000000000E+00  0.00000000000E+00  0.74505805969E-08  0.10566000000E+00  0.10566000000E+00 0.  1.
     999900   -1    0    0    0    0 -0.00000000000E+00 -0.00000000000E+00 -0.74505805969E-08  0.93827000000E+00  0.93827000000E+00 0.  1.
     999902    2    1    2    0    0 -0.22977015926E-01 -0.26575085013E-02  0.14251984558E-02  0.10207559455E+01  0.10204928532E+01 0.  0.
     999903    2    3    3    0    0  0.58547970823E-02  0.74452551401E-01 -0.14942653095E+00  0.16825463812E+00  0.20096617572E-01 0.  0.
         14    1    1    2    0    0  0.22977015926E-01  0.26575085013E-02 -0.14251984558E-02  0.23174054521E-01  0.00000000000E+00 0.  1.
     999901    1    3    3    0    0 -0.28831813008E-01 -0.77110059903E-01  0.15085172941E+00  0.85250130736E+00  0.83500000000E+00 0. -1.
        -11    1    4    4    0    0  0.13370560287E-01  0.46724940184E-01 -0.94667491482E-01  0.10641516331E+00  0.51100000000E-03 0. -1.
         11    1    4    4    0    0 -0.75157632042E-02  0.27727611217E-01 -0.54759039472E-01  0.61839474814E-01  0.51100000000E-03 0.  1.
</event>
<event>
 8    1  0.5716970E+005  0.1043930E+01  0.7957747E-01            NaN
         13   -1    0    0    0    0  0.00000000000E+00  0.00000000000E+00  0.74505805969E-08  0.10566000000E+00  0.10566000000E+00 0. -1.
     999900   -1    0    0    0    0 -0.00000000000E+00 -0.00000000000E+00 -0.74505805969E-08  0.93827000000E+00  0.93827000000E+00 0.  1.
     999902    2    1    2    0    0  0.14796721630E-01 -0.90970671960E-02 -0.15966310580E-01  0.10203371478E+01  0.10200643472E+01 0.  0.
     999903    2    3    3    0    0  0.14158782417E+00 -0.93063225957E-01  0.16002124382E-01  0.17100018265E+00  0.16646876645E-01 0.  0.
         14    1    1    2    0    0 -0.14796721630E-01  0.90970671960E-02  0.15966310580E-01  0.23592852225E-01  0.00000000000E+00 0.  1.
     999901    1    3    3    0    0 -0.12679110254E+00  0.83966158761E-01 -0.31968434962E-01  0.84933696513E+00  0.83500000000E+00 0.  1.
        -11    1    4    4    0    0  0.33853505860E-01 -0.15053752396E-01  0.21557090440E-03  0.37053784044E-01  0.51100000000E-03 0. -1.
         11    1    4    4    0    0  0.10773431831E+00 -0.78009473561E-01  0.15786553478E-01  0.13394639860E+00  0.51100000000E-03 0.  1.
</event>
<event>
 8    1  0.5716970E+005  0.1043930E+01  0.7957747E-01            NaN
         13   -1    0    0    0    0  0.00000000000E+00  0.00000000000E+00  0.74505805969E-08  0.10566000000E+00  0.10566000000E+00 0. -1.
     999900   -1    0    0    0    0 -0.00000000000E+00 -0.00000000000E+00 -0.74505805969E-08  0.93827000000E+00  0.93827000000E+00 0. -1.
     999902    2    1    2    0    0  0.46301805047E-02 -0.21166982327E-01 -0.99981602565E-02  0.10200669968E+01  0.10197878383E+01 0.  0.
     999903    2    3    3    0    0  0.53069625407E-01  0.43520586619E-02 -0.16014603231E+00  0.16990996147E+00  0.19680390885E-01 0.  0.
         14    1    1    2    0    0 -0.46301805047E-02  0.21166982327E-01  0.99981602565E-02  0.23863003182E-01  0.00000000000E+00 0. -1.
     999901    1    3    3    0    0 -0.48439444903E-01 -0.25519040989E-01  0.15014787205E+00  0.85015703535E+00  0.83500000000E+00 0.  1.
        -11    1    4    4    0    0  0.29480270570E-01  0.29436397395E-02 -0.11721214957E+00  0.12089954713E+00  0.51100000000E-03 0. -1.
         11    1    4    4    0    0  0.23589354838E-01  0.14084189224E-02 -0.42933882737E-01  0.49010414336E-01  0.51100000000E-03 0.  1.
</event>
<event>
 8    1  0.5716970E+005  0.1043930E+01  0.7957747E-01            NaN
         13   -1    0    0    0    0  0.00000000000E+00  0.00000000000E+00  0.74505805969E-08  0.10566000000E+00  0.10566000000E+00 0. -1.
     999900   -1    0    0    0    0 -0.00000000000E+00 -0.00000000000E+00 -0.74505805969E-08  0.93827000000E+00  0.93827000000E+00 0. -1.
     999902    2    1    2    0    0 -0.23661534102E-02  0.10205330086E-01  0.19896538931E-01  0.10214440109E+01  0.10211964785E+01 0.  0.
     999903    2    3    3    0    0 -0.51226992450E-01 -0.40919280510E-01  0.15794350793E+00  0.17216015197E+00  0.19858850857E-01 0.  0.
         14    1    1    2    0    0  0.23661534102E-02 -0.10205330086E-01 -0.19896538931E-01  0.22485989094E-01  0.00000000000E+00 0.  1.
     999901    1    3    3    0    0  0.48860839039E-01  0.51124610596E-01 -0.13804696899E+00  0.84928385894E+00  0.83500000000E+00 0. -1.
        -11    1    4    4    0    0 -0.41874151352E-01 -0.21793126913E-01  0.10873849193E+00  0.11854410859E+00  0.51100000000E-03 0.  1.
         11    1    4    4    0    0 -0.93528410980E-02 -0.19126153598E-01  0.49205015996E-01  0.53616043385E-01  0.51100000000E-03 0. -1.
</event>
<event>
 8    1  0.5716970E+005  0.1043930E+01  0.7957747E-01            NaN
         13   -1    0    0    0    0  0.00000000000E+00  0.00000000000E+00  0.74505805969E-08  0.10566000000E+00  0.10566000000E+00 0.  1.
     999900   -1    0    0    0    0 -0.00000000000E+00 -0.00000000000E+00 -0.74505805969E-08  0.93827000000E+00  0.93827000000E+00 0. -1.
     999902    2    1    2    0    0  0.66835230273E-02  0.17234115402E-01 -0.15690552797E-01  0.10196838114E+01  0.10193955060E+01 0.  0.
     999903    2    3    3    0    0 -0.17475394991E-01  0.13725878624E+00  0.94576952778E-01  0.16858246744E+00  0.18162722863E-01 0.  0.
         14    1    1    2    0    0 -0.66835230273E-02 -0.17234115402E-01  0.15690552797E-01  0.24246188583E-01  0.00000000000E+00 0.  1.
     999901    1    3    3    0    0  0.24158918018E-01 -0.12002467084E+00 -0.11026750558E+00  0.85110134397E+00  0.83500000000E+00 0. -1.
        -11    1    4    4    0    0 -0.67497771094E-02  0.75116487850E-01  0.41068240731E-01  0.85877283118E-01  0.51100000000E-03 0.  1.
         11    1    4    4    0    0 -0.10725617881E-01  0.62142298390E-01  0.53508712047E-01  0.82705184324E-01  0.51100000000E-03 0. -1.
</event>
<event>
 8    1  0.5716970E+005  0.1043930E+01  0.7957747E-01            NaN
         13   -1    0    0    0    0  0.00000000000E+00  0.00000000000E+00  0.74505805969E-08  0.10566000000E+00  0.10566000000E+00 0.  1.
     999900   -1    0    0    0    0 -0.00000000000E+00 -0.00000000000E+00 -0.74505805969E-08  0.93827000000E+00  0.93827000000E+00 0.  1.
     999902    2    1    2    0    0 -0.28671679064E-02  0.20767511685E-01  0.10156223057E-01  0.10206349563E+01  0.10203690778E+01 0.  0.
     999903    2    3    3    0    0 -0.80671532399E-01 -0.68836476040E-01  0.12983968392E+00  0.16879487476E+00  0.19672560830E-01 0.  0.
         14    1    1    2    0    0  0.28671679064E-02 -0.20767511685E-01 -0.10156223057E-01  0.23295043682E-01  0.00000000000E+00 0.  1.
     999901    1    3    3    0    0  0.77804364492E-01  0.89603987725E-01 -0.11968346087E+00  0.85184008156E+00  0.83500000000E+00 0.  1.
        -11    1    4    4    0    0 -0.63068034391E-01 -0.42402319789E-01  0.88272689313E-01  0.11648116794E+00  0.51100000000E-03 0.  1.
         11    1    4    4    0    0 -0.17603498008E-01 -0.26434156251E-01  0.41566994610E-01  0.52313706815E-01  0.51100000000E-03 0. -1.
</event>
<event>
 7    1  0.5716970E+005  0.1043930E+01  0.7957747E-01            NaN
         13   -1    0    0    0    0  0.00000000000E+00  0.00000000000E+00  0.74505805969E-08  0.10566000000E+00  0.10566000000E+00 0.  1.
     999900   -1    0    0    0    0 -0.00000000000E+00 -0.00000000000E+00 -0.74505805969E-08  0.93827000000E+00  0.93827000000E+00 0.  1.
     999903    2    1    2    0    0  0.10464637022E+00 -0.32300027481E-01  0.90527148320E-01  0.14363467405E+00  0.21014291123E-01 0.  0.
         14    1    1    2    0    0 -0.34967634966E-01 -0.38103176675E-01  0.12349830414E-01  0.53170535818E-01  0.00000000000E+00 0. -1.
     999901    1    1    2    0    0 -0.69678735252E-01  0.70403204156E-01 -0.10287697873E+00  0.84712479013E+00  0.83500000000E+00 0.  1.
        -11    1    3    3    0    0  0.87684149789E-01 -0.28907970012E-01  0.65479425239E-01  0.11319009279E+00  0.51100000000E-03 0.  1.
         11    1    3    3    0    0  0.16962220430E-01 -0.33920574688E-02  0.25047723081E-01  0.30444581264E-01  0.51100000000E-03 0. -1.
</event>
<event>
 8    1  0.5716970E+005  0.1043930E+01  0.7957747E-01            NaN
         13   -1    0    0    0    0  0.00000000000E+00  0.00000000000E+00  0.74505805969E-08  0.10566000000E+00  0.10566000000E+00 0.  1.
     999900   -1    0    0    0    0 -0.00000000000E+00 -0.00000000000E+00 -0.74505805969E-08  0.93827000000E+00  0.93827000000E+00 0. -1.
     999902    2    1    2    0    0  0.23921014683E-06  0.22593448371E-01 -0.71689281974E-02  0.10202264678E+01  0.10199510714E+01 0.  0.
     999903    2    3    3    0    0  0.12829929138E+00  0.20181454216E-01 -0.10719446125E+00  0.16952289320E+00  0.19477154061E-01 0.  0.
         14    1    1    2    0    0 -0.23921014684E-06 -0.22593448371E-01  0.71689281974E-02  0.23703532244E-01  0.00000000000E+00 0.  1.
     999901    1    3    3    0    0 -0.12829905217E+00  0.24119941552E-02  0.10002553306E+00  0.85070357456E+00  0.83500000000E+00 0.  1.
        -11    1    4    4    0    0  0.89190344394E-01  0.59873845054E-02 -0.67469576247E-01  0.11199629970E+00  0.51100000000E-03 0.  1.
         11    1    4    4    0    0  0.39108946989E-01  0.14194069711E-01 -0.39724885008E-01  0.57526593498E-01  0.51100000000E-03 0. -1.
</event>
<event>
 8    1  0.5716970E+005  0.1043930E+01  0.7957747E-01            NaN
         13   -1    0    0    0    0  0.00000000000E+00  0.00000000000E+00  0.74505805969E-08  0.10566000000E+00  0.10566000000E+00 0. -1.
     999900   -1    0    0    0    0 -0.00000000000E+00 -0.00000000000E+00 -0.74505805969E-08  0.93827000000E+00  0.93827000000E+00 0. -1.
     999902    2    1    2    0    0 -0.64932838748E-02  0.12668137746E-01  0.18948241465E-01  0.10202302046E+01  0.10199548961E+01 0.  0.
     999903    2    3    3    0    0 -0.14061772171E+00  0.87504524016E-01 -0.31823882325E-01  0.16970527365E+00  0.18887430701E-01 0.  0.
         14    1    1    2    0    0  0.64932838748E-02 -0.12668137746E-01 -0.18948241465E-01  0.23699795443E-01  0.00000000000E+00 0.  1.
     999901    1    3    3    0    0  0.13412443783E+00 -0.74836386270E-01  0.50772123789E-01  0.85052493090E+00  0.83500000000E+00 0. -1.
        -11    1    4    4    0    0 -0.66416378800E-01  0.32390935305E-01 -0.19742003100E-01  0.76487357585E-01  0.51100000000E-03 0. -1.
         11    1    4    4    0    0 -0.74201342907E-01  0.55113588711E-01 -0.12081879225E-01  0.93217916070E-01  0.51100000000E-03 0.  1.
</event>
<event>
 8    1  0.5716970E+005  0.1043930E+01  0.7957747E-01            NaN
         13   -1    0    0    0    0  0.00000000000E+00  0.00000000000E+00  0.74505805969E-08  0.10566000000E+00  0.10566000000E+00 0.  1.
     999900   -1    0    0    0    0 -0.00000000000E+00 -0.00000000000E+00 -0.74505805969E-08  0.93827000000E+00  0.93827000000E+00 0. -1.
     999902    2    1    2    0    0  0.14018873734E-01 -0.13517260840E-01  0.14938181718E-01  0.10193862751E+01  0.10190907630E+01 0.  0.
     999903    2    3    3    0    0  0.11362691974E+00 -0.12601191651E+00 -0.15674206737E-02  0.17081438930E+00  0.19621895689E-01 0.  0.
         14    1    1    2    0    0 -0.14018873734E-01  0.13517260840E-01 -0.14938181718E-01  0.24543724950E-01  0.00000000000E+00 0. -1.
     999901    1    3    3    0    0 -0.99608046002E-01  0.11249465568E+00  0.16505602392E-01  0.84857188576E+00  0.83500000000E+00 0. -1.
        -11    1    4    4    0    0  0.75250202796E-01 -0.84200148347E-01  0.81981970004E-02  0.11322424457E+00  0.51100000000E-03 0. -1.
         11    1    4    4    0    0  0.38376716939E-01 -0.41811768168E-01 -0.97656176741E-02  0.57590144729E-01  0.51100000000E-03 0.  1.
</event>
<event>
 8    1  0.5716970E+005  0.1043930E+01  0.7957747E-01            NaN
         13   -1    0    0    0    0  0.00000000000E+00  0.00000000000E+00  0.74505805969E-08  0.10566000000E+00  0.10566000000E+00 0. -1.
     999900   -1    0    0    0    0 -0.00000000000E+00 -0.00000000000E+00 -0.74505805969E-08  0.93827000000E+00  0.93827000000E+00 0. -1.
     999902    2    1    2    0    0  0.94924248862E-02 -0.22056070911E-01 -0.12065848994E-02  0.10198876989E+01  0.10196042792E+01 0.  0.
     999903    2    3    3    0    0  0.12666613308E+00 -0.62388806931E-01  0.93206302972E-01  0.17047896286E+00  0.20952073088E-01 0.  0.
         14    1    1    2    0    0 -0.94924248862E-02  0.22056070911E-01  0.12065848994E-02  0.24042301083E-01  0.00000000000E+00 0. -1.
     999901    1    3    3    0    0 -0.11717370819E+00  0.40332736020E-01 -0.94412887871E-01  0.84940873605E+00  0.83500000000E+00 0.  1.
        -11    1    4    4    0    0  0.87405156025E-01 -0.36715008445E-01  0.52517475341E-01  0.10837896236E+00  0.51100000000E-03 0.  1.
         11    1    4    4    0    0  0.39260977052E-01 -0.25673798486E-01  0.40688827630E-01  0.62100000505E-01  0.51100000000E-03 0. -1.
</event>
<event>
 8    1  0.5716970E+005  0.1043930E+01  0.7957747E-01            NaN
         13   -1    0    0    0    0  0.00000000000E+00  0.00000000000E+00  0.74505805969E-08  0.10566000000E+00  0.10566000000E+00 0. -1.
     999900   -1    0    0    0    0 -0.00000000000E+00 -0.00000000000E+00 -0.74505805969E-08  0.93827000000E+00  0.93827000000E+00 0.  1.
     999902    2    1    2    0    0 -0.71820603765E-03  0.19446950021E-01 -0.13035135410E-01  0.10205074801E+01  0.10202386497E+01 0.  0.
     999903    2    3    3    0    0 -0.15082265308E+00  0.74312844692E-01  0.14206653732E-01  0.16991431850E+00  0.19979365650E-01 0.  0.
         14    1    1    2    0    0  0.71820603765E-03 -0.19446950021E-01  0.13035135410E-01  0.23422519937E-01  0.00000000000E+00 0. -1.
     999901    1    3    3    0    0  0.15010444705E+00 -0.54865894671E-01 -0.27241789142E-01  0.85059316156E+00  0.83500000000E+00 0.  1.
        -11    1    4    4    0    0 -0.41000955055E-01  0.30299241663E-01  0.55053840183E-02  0.51280529785E-01  0.51100000000E-03 0.  1.
         11    1    4    4    0    0 -0.10982169803E+00  0.44013603029E-01  0.87012697133E-02  0.11863378872E+00  0.51100000000E-03 0. -1.
</event>
<event>
 8    1  0.5716970E+005  0.1043930E+01  0.7957747E-01            NaN
         13   -1    0    0    0    0  0.00000000000E+00  0.00000000000E+00  0.74505805969E-08  0.10566000000E+00  0.10566000000E+00 0. -1.
     999900   -1    0    0    0    0 -0.00000000000E+00 -0.00000000000E+00 -0.74505805969E-08  0.93827000000E+00  0.93827000000E+00 0.  1.
     999902    2    1    2    0    0 -0.16718747286E-01 -0.14746878492E-01  0.78239308617E-02  0.10203037259E+01  0.10200301428E+01 0.  0.
     999903    2    3    3    0    0  0.39636909212E-01  0.84823467432E-01 -0.13488375863E+00  0.16550509550E+00  0.20789494874E-01 0.  0.
         14    1    1    2    0    0  0.16718747286E-01  0.14746878492E-01 -0.78239308617E-02  0.23626274150E-01  0.00000000000E+00 0.  1.
     999901    1    3    3    0    0 -0.56355656499E-01 -0.99570345923E-01  0.14270768949E+00  0.85479863035E+00  0.83500000000E+00 0. -1.
        -11    1    4    4    0    0  0.28745545568E-01  0.48524569957E-01 -0.95024836629E-01  0.11050303605E+00  0.51100000000E-03 0. -1.
         11    1    4    4    0    0  0.10891363644E-01  0.36298897475E-01 -0.39858921997E-01  0.55002059449E-01  0.51100000000E-03 0.  1.
</event>
<event>
 8    1  0.5716970E+005  0.1043930E+01  0.7957747E-01            NaN
         13   -1    0    0    0    0  0.00000000000E+00  0.00000000000E+00  0.74505805969E-08  0.10566000000E+00  0.10566000000E+00 0.  1.
     999900   -1    0    0    0    0 -0.00000000000E+00 -0.00000000000E+00 -0.74505805969E-08  0.93827000000E+00  0.93827000000E+00 0.  1.
     999902    2    1    2    0    0 -0.65239980622E-02 -0.12178941787E-02  0.22630227267E-01  0.10203466796E+01  0.10200741020E+01 0.  0.
     999903    2    3    3    0    0 -0.54530521177E-01 -0.13902723739E+00  0.80206901594E-01  0.17073729003E+00  0.20394231232E-01 0.  0.
         14    1    1    2    0    0  0.65239980622E-02  0.12178941787E-02 -0.22630227267E-01  0.23583320443E-01  0.00000000000E+00 0. -1.
     999901    1    3    3    0    0  0.48006523115E-01  0.13780934322E+00 -0.57576674327E-01  0.84960938952E+00  0.83500000000E+00 0.  1.
        -11    1    4    4    0    0 -0.23713679190E-02 -0.16139037297E-01  0.14985781533E-01  0.22156865298E-01  0.51100000000E-03 0.  1.
         11    1    4    4    0    0 -0.52159153258E-01 -0.12288820010E+00  0.65221120062E-01  0.14858042474E+00  0.51100000000E-03 0. -1.
</event>
<event>
 8    1  0.5716970E+005  0.1043930E+01  0.7957747E-01            NaN
         13   -1    0    0    0    0  0.00000000000E+00  0.00000000000E+00  0.74505805969E-08  0.10566000000E+00  0.10566000000E+00 0. -1.
     999900   -1    0    0    0    0 -0.00000000000E+00 -0.00000000000E+00 -0.74505805969E-08  0.93827000000E+00  0.93827000000E+00 0.  1.
     999902    2    1    2    0    0 -0.18290202045E-01 -0.11143364897E-01  0.12080895029E-01  0.10193402847E+01  0.10190436507E+01 0.  0.
     999903    2    3    3    0    0  0.11276698384E+00 -0.11994373132E+00  0.18710782676E-01  0.16711821208E+00  0.21806239761E-01 0.  0.
         14    1    1    2    0    0  0.18290202045E-01  0.11143364897E-01 -0.12080895029E-01  0.24589715264E-01  0.00000000000E+00 0. -1.
     999901    1    3    3    0    0 -0.13105718589E+00  0.10880036643E+00 -0.66298876471E-02  0.85222207265E+00  0.83500000000E+00 0. -1.
        -11    1    4    4    0    0  0.10735217719E+00 -0.10885255071E+00  0.12786551245E-01  0.15341813699E+00  0.51100000000E-03 0. -1.
         11    1    4    4    0    0  0.54148066487E-02 -0.11091180610E-01  0.59242314311E-02  0.13700075088E-01  0.51100000000E-03 0.  1.
</event>
<event>
 8    1  0.5716970E+005  0.1043930E+01  0.7957747E-01            NaN
         13   -1    0    0    0    0  0.00000000000E+00  0.00000000000E+00  0.74505805969E-08  0.10566000000E+00  0.10566000000E+00 0.  1.
     999900   -1    0    0    0    0 -0.00000000000E+00 -0.00000000000E+00 -0.74505805969E-08  0.93827000000E+00  0.93827000000E+00 0. -1.
     999902    2    1    2    0    0 -0.85479129045E-02  0.63639375166E-02 -0.20006961375E-01  0.10212618501E+01  0.10210102455E+01 0.  0.
     999903    2    3    3    0    0 -0.35865784559E-01  0.15890622592E+00 -0.49560379477E-01  0.17148904496E+00  0.20364630800E-01 0.  0.
         14    1    1    2    0    0  0.85479129045E-02 -0.63639375166E-02  0.20006961375E-01  0.22668149885E-01  0.00000000000E+00 0.  1.
     999901    1    3    3    0    0  0.27317871654E-01 -0.15254228841E+00  0.29553418102E-01  0.84977280516E+00  0.83500000000E+00 0. -1.
        -11    1    4    4    0    0 -0.14254747274E-01  0.63326763354E-01 -0.94212465404E-02  0.65593427903E-01  0.51100000000E-03 0. -1.
         11    1    4    4    0    0 -0.21611037285E-01  0.95579462568E-01 -0.40139132936E-01  0.10589561705E+00  0.51100000000E-03 0.  1.
</event>
<event>
 8    1  0.5716970E+005  0.1043930E+01  0.7957747E-01            NaN
         13   -1    0    0    0    0  0.00000000000E+00  0.00000000000E+00  0.74505805969E-08  0.10566000000E+00  0.10566000000E+00 0. -1.
     999900   -1    0    0    0    0 -0.00000000000E+00 -0.00000000000E+00 -0.74505805969E-08  0.93827000000E+00  0.93827000000E+00 0. -1.
     999902    2    1    2    0    0 -0.11603722967E-01 -0.11713667277E-01  0.16383201115E-01  0.10206863844E+01  0.10204216921E+01 0.  0.
     999903    2    3    3    0    0 -0.89110235318E-01 -0.12797076525E+00  0.70678844480E-01  0.17233740598E+00  0.19685823490E-01 0.  0.
         14    1    1    2    0    0  0.11603722967E-01  0.11713667277E-01 -0.16383201115E-01  0.23243615608E-01  0.00000000000E+00 0. -1.
     999901    1    3    3    0    0  0.77506512351E-01  0.11625709797E+00 -0.54295643366E-01  0.84834897841E+00  0.83500000000E+00 0. -1.
        -11    1    4    4    0    0 -0.43096891327E-01 -0.46355849059E-01  0.32635953877E-01  0.71214980099E-01  0.51100000000E-03 0.  1.
         11    1    4    4    0    0 -0.46013343991E-01 -0.81614916187E-01  0.38042890604E-01  0.10112242588E+00  0.51100000000E-03 0. -1.
</event>
<event>
 8    1  0.5716970E+005  0.1043930E+01  0.7957747E-01            NaN
         13   -1    0    0    0    0  0.00000000000E+00  0.00000000000E+00  0.74505805969E-08  0.10566000000E+00  0.10566000000E+00 0. -1.
     999900   -1    0    0    0    0 -0.00000000000E+00 -0.00000000000E+00 -0.74505805969E-08  0.93827000000E+00  0.93827000000E+00 0.  1.
     999902    2    1    2    0    0  0.10246254382E-01  0.62397941857E-02 -0.19532494715E-01  0.10210075414E+01  0.10207501949E+01 0.  0.
     999903    2    3    3    0    0 -0.58547107326E-01 -0.39767243606E-01  0.14810878826E+00  0.16533367013E+00  0.19743654180E-01 0.  0.
         14    1    1    2    0    0 -0.10246254382E-01 -0.62397941857E-02  0.19532494715E-01  0.22922458641E-01  0.00000000000E+00 0. -1.
     999901    1    3    3    0    0  0.68793361708E-01  0.46007037792E-01 -0.16764128297E+00  0.85567387123E+00  0.83500000000E+00 0.  1.
        -11    1    4    4    0    0 -0.22627586724E-01 -0.27210553418E-01  0.73742023854E-01  0.81795899050E-01  0.51100000000E-03 0. -1.
         11    1    4    4    0    0 -0.35919520602E-01 -0.12556690188E-01  0.74366764403E-01  0.83537771083E-01  0.51100000000E-03 0.  1.
</event>
<event>
 8    1  0.5716970E+005  0.1043930E+01  0.7957747E-01            NaN
         13   -1    0    0    0    0  0.00000000000E+00  0.00000000000E+00  0.74505805969E-08  0.10566000000E+00  0.10566000000E+00 0.  1.
     999900   -1    0    0    0    0 -0.00000000000E+00 -0.00000000000E+00 -0.74505805969E-08  0.93827000000E+00  0.93827000000E+00 0. -1.
     999902    2    1    2    0    0 -0.21989770545E-01  0.57287056634E-02 -0.65523786393E-03  0.10211968213E+01  0.10209437548E+01 0.  0.
     999903    2    3    3    0    0  0.13031220216E+00 -0.95140232292E-01 -0.32808906384E-01  0.16584350720E+00  0.19867327745E-01 0.  0.
         14    1    1    2    0    0  0.21989770545E-01 -0.57287056634E-02  0.65523786393E-03  0.22733178701E-01  0.00000000000E+00 0. -1.
     999901    1    3    3    0    0 -0.15230197270E+00  0.10086893795E+00  0.32153668520E-01  0.85535331409E+00  0.83500000000E+00 0.  1.
        -11    1    4    4    0    0  0.76145001518E-01 -0.46783118451E-01 -0.25063147236E-01  0.92817799470E-01  0.51100000000E-03 0. -1.
         11    1    4    4    0    0  0.54167200641E-01 -0.48357113841E-01 -0.77457591486E-02  0.73025707734E-01  0.51100000000E-03 0.  1.
</event>
<event>
 8    1  0.5716970E+005  0.1043930E+01  0.7957747E-01            NaN
         13   -1    0    0    0    0  0.00000000000E+00  0.00000000000E+00  0.74505805969E-08  0.10566000000E+00  0.10566000000E+00 0. -1.
     999900   -1    0    0    0    0 -0.00000000000E+00 -0.00000000000E+00 -0.74505805969E-08  0.93827000000E+00  0.93827000000E+00 0.  1.
     999902    2    1    2    0    0  0.20186501765E-02 -0.14451791875E-01 -0.25595187470E-01  0.10144674329E+01  0.10140395109E+01 0.  0.
     999903    2    3    3    0    0 -0.52786208722E-01 -0.14978244279E+00 -0.45979156128E-01  0.16655324870E+00  0.20118097681E-01 0.  0.
         14    1    1    2    0    0 -0.20186501765E-02  0.14451791875E-01  0.25595187470E-01  0.29462567073E-01  0.00000000000E+00 0. -1.
     999901    1    3    3    0    0  0.54804858898E-01  0.13533065092E+00  0.20383968658E-01  0.84791418423E+00  0.83500000000E+00 0.  1.
        -11    1    4    4    0    0 -0.12441521746E-01 -0.41948500372E-01 -0.37502258425E-02  0.43918031169E-01  0.51100000000E-03 0. -1.
         11    1    4    4    0    0 -0.40344686976E-01 -0.10783394242E+00 -0.42228930285E-01  0.12263521753E+00  0.51100000000E-03 0.  1.
</event>
<event>
 8    1  0.5716970E+005  0.1043930E+01  0.7957747E-01            NaN
         13   -1    0    0    0    0  0.00000000000E+00  0.00000000000E+00  0.74505805969E-08  0.10566000000E+00  0.10566000000E+00 0.  1.
     999900   -1    0    0    0    0 -0.00000000000E+00 -0.00000000000E+00 -0.74505805969E-08  0.93827000000E+00  0.93827000000E+00 0. -1.
     999902    2    1    2    0    0  0.81531608936E-02 -0.21302838978E-01  0.43207929426E-02  0.10207146122E+01  0.10204505697E+01 0.  0.
     999903    2    3    3    0    0  0.14602370052E-01 -0.80571288376E-01 -0.14749627474E+00  0.16993393335E+00  0.20431077249E-01 0.  0.
         14    1    1    2    0    0 -0.81531608936E-02  0.21302838978E-01 -0.43207929426E-02  0.23215387844E-01  0.00000000000E+00 0. -1.
     999901    1    3    3    0    0 -0.64492091589E-02  0.59268449397E-01  0.15181706769E+00  0.85078067881E+00  0.83500000000E+00 0.  1.
        -11    1    4    4    0    0  0.16575622263E-01 -0.52894240580E-01 -0.84051274034E-01  0.10068480386E+00  0.51100000000E-03 0. -1.
         11    1    4    4    0    0 -0.19732522103E-02 -0.27677047795E-01 -0.63445000711E-01  0.69249129491E-01  0.51100000000E-03 0.  1.
</event>
<event>
 8    1  0.6606174E+005  0.1043930E+01  0.7957747E-01            NaN
         13   -1    0    0    0    0  0.00000000000E+00  0.00000000000E+00  0.74505805969E-08  0.10566000000E+00  0.10566000000E+00 0. -1.
     999900   -1    0    0    0    0 -0.00000000000E+00 -0.00000000000E+00 -0.74505805969E-08  0.93827000000E+00  0.93827000000E+00 0. -1.
     999902    2    1    2    0    0 -0.18269733154E-01  0.13466890970E-01 -0.67596595512E-02  0.10202480808E+01  0.10199731923E+01 0.  0.
     999903    2    3    3    0    0  0.10181801963E+00  0.11589170928E+00  0.63109759358E-01  0.16759419583E+00  0.17526418634E-01 0.  0.
         14    1    1    2    0    0  0.18269733154E-01 -0.13466890970E-01  0.67596595512E-02  0.23681919246E-01  0.00000000000E+00 0. -1.
     999901    1    3    3    0    0 -0.12008775278E+00 -0.10242481830E+00 -0.69869418909E-01  0.85265388492E+00  0.83500000000E+00 0. -1.
        -11    1    4    4    0    0  0.33078009053E-01  0.29978645725E-01  0.24899923854E-01  0.51118892900E-01  0.51100000000E-03 0. -1.
         11    1    4    4    0    0  0.68740010577E-01  0.85913063551E-01  0.38209835504E-01  0.11647530293E+00  0.51100000000E-03 0.  1.
</event>
<event>
 8    1  0.5817588E+005  0.1043930E+01  0.7957747E-01            NaN
         13   -1    0    0    0    0  0.00000000000E+00  0.00000000000E+00  0.74505805969E-08  0.10566000000E+00  0.10566000000E+00 0.  1.
     999900   -1    0    0    0    0 -0.00000000000E+00 -0.00000000000E+00 -0.74505805969E-08  0.93827000000E+00  0.93827000000E+00 0.  1.
     999902    2    1    2    0    0 -0.17896142537E-01 -0.28900283807E-02 -0.16891353477E-01  0.10191521469E+01  0.10188509001E+01 0.  0.
     999903    2    3    3    0    0  0.90962122344E-01  0.34723166154E-01  0.12975408972E+00  0.16358522360E+00  0.21075948690E-01 0.  0.
         14    1    1    2    0    0  0.17896142537E-01  0.28900283807E-02  0.16891353477E-01  0.24777853096E-01  0.00000000000E+00 0.  1.
     999901    1    3    3    0    0 -0.10885826488E+00 -0.37613194535E-01 -0.14664544320E+00  0.85556692330E+00  0.83500000000E+00 0.  1.
        -11    1    4    4    0    0  0.19220313242E-01  0.13335544385E-01  0.43334604881E-01  0.49248414049E-01  0.51100000000E-03 0.  1.
         11    1    4    4    0    0  0.71741809102E-01  0.21387621768E-01  0.86419484839E-01  0.11433680955E+00  0.51100000000E-03 0. -1.
</event>
<event>
 8    1  0.5716970E+005  0.1043930E+01  0.7957747E-01            NaN
         13   -1    0    0    0    0  0.00000000000E+00  0.00000000000E+00  0.74505805969E-08  0.10566000000E+00  0.10566000000E+00 0.  1.
     999900   -1    0    0    0    0 -0.00000000000E+00 -0.00000000000E+00 -0.74505805969E-08  0.93827000000E+00  0.93827000000E+00 0. -1.
     999902    2    1    2    0    0  0.10037497358E-01 -0.17922861811E-02 -0.17997320137E-01  0.10232450496E+01  0.10230359545E+01 0.  0.
     999903    2    3    3    0    0 -0.15881417201E+00  0.37123796615E-01  0.37540709184E-01  0.16864875863E+00  0.20808205946E-01 0.  0.
         14    1    1    2    0    0 -0.10037497358E-01  0.17922861811E-02  0.17997320137E-01  0.20684950449E-01  0.00000000000E+00 0.  1.
     999901    1    3    3    0    0  0.16885166937E+00 -0.38916082796E-01 -0.55538029320E-01  0.85459629092E+00  0.83500000000E+00 0. -1.
        -11    1    4    4    0    0 -0.98836938092E-01  0.18763879895E-01  0.13644524688E-01  0.10152466545E+00  0.51100000000E-03 0.  1.
         11    1    4    4    0    0 -0.59977233923E-01  0.18359916720E-01  0.23896184496E-01  0.67124093182E-01  0.51100000000E-03 0. -1.
</event>
<event>
 8    1  0.5716970E+005  0.1043930E+01  0.7957747E-01            NaN
         13   -1    0    0    0    0  0.00000000000E+00  0.00000000000E+00  0.74505805969E-08  0.10566000000E+00  0.10566000000E+00 0. -1.
     999900   -1    0    0    0    0 -0.00000000000E+00 -0.00000000000E+00 -0.74505805969E-08  0.93827000000E+00  0.93827000000E+00 0.  1.
     999902    2    1    2    0    0  0.63860239732E-02 -0.12694155943E-01 -0.18394072798E-01  0.10206864028E+01  0.10204217109E+01 0.  0.
     999903    2    3    3    0    0 -0.93654561594E-02 -0.42105904499E-01  0.15941152068E+00  0.16631353972E+00  0.19686076413E-01 0.  0.
         14    1    1    2    0    0 -0.63860239732E-02  0.12694155943E-01  0.18394072798E-01  0.23243597213E-01  0.00000000000E+00 0.  1.
     999901    1    3    3    0    0  0.15751480133E-01  0.29411748556E-01 -0.17780559348E+00  0.85437286307E+00  0.83500000000E+00 0.  1.
        -11    1    4    4    0    0  0.15126196509E-02 -0.22836213865E-01  0.10697422017E+00  0.10939618634E+00  0.51100000000E-03 0.  1.
         11    1    4    4    0    0 -0.10878075810E-01 -0.19269690634E-01  0.52437300506E-01  0.56917353380E-01  0.51100000000E-03 0. -1.
</event>
<event>
 8    1  0.5716970E+005  0.1043930E+01  0.7957747E-01            NaN
         13   -1    0    0    0    0  0.00000000000E+00  0.00000000000E+00  0.74505805969E-08  0.10566000000E+00  0.10566000000E+00 0. -1.
     999900   -1    0    0    0    0 -0.00000000000E+00 -0.00000000000E+00 -0.74505805969E-08  0.93827000000E+00  0.93827000000E+00 0.  1.
     999902    2    1    2    0    0  0.18661373187E-01 -0.62341984469E-02  0.13404647200E-01  0.10201225086E+01  0.10198446627E+01 0.  0.
     999903    2    3    3    0    0  0.31430172758E-01  0.21815676115E-01 -0.16093702257E+00  0.16655947314E+00  0.19430732785E-01 0.  0.
         14    1    1    2    0    0 -0.18661373187E-01  0.62341984469E-02 -0.13404647200E-01  0.23807491385E-01  0.00000000000E+00 0. -1.
     999901    1    3    3    0    0 -0.12768799571E-01 -0.28049874561E-01  0.17434166977E+00  0.85356303547E+00  0.83500000000E+00 0. -1.
        -11    1    4    4    0    0  0.19217354828E-01  0.96053678342E-02 -0.52076408291E-01  0.56336340308E-01  0.51100000000E-03 0.  1.
         11    1    4    4    0    0  0.12212817930E-01  0.12210308280E-01 -0.10886061428E+00  0.11022313284E+00  0.51100000000E-03 0. -1.
</event>
<event>
 8    1  0.5716970E+005  0.1043930E+01  0.7957747E-01            NaN
         13   -1    0    0    0    0  0.00000000000E+00  0.00000000000E+00  0.74505805969E-08  0.10566000000E+00  0.10566000000E+00 0. -1.
     999900   -1    0    0    0    0 -0.00000000000E+00 -0.00000000000E+00 -0.74505805969E-08  0.93827000000E+00  0.93827000000E+00 0. -1.
     999902    2    1    2    0    0 -0.23725110367E-02  0.22875170542E-01 -0.59623109597E-02  0.10201718143E+01  0.10198951315E+01 0.  0.
     999903    2    3    3    0    0 -0.11373978596E+00 -0.42698447843E-01  0.11253636712E+00  0.16696052390E+00  0.21248206011E-01 0.  0.
         14    1    1    2    0    0  0.23725110367E-02 -0.22875170542E-01  0.59623109597E-02  0.23758185704E-01  0.00000000000E+00 0. -1.
     999901    1    3    3    0    0  0.11136727492E+00  0.65573618386E-01 -0.11849867808E+00  0.85321129040E+00  0.83500000000E+00 0. -1.
        -11    1    4    4    0    0 -0.34585656424E-01 -0.22185625827E-01  0.30900138876E-01  0.51414485577E-01  0.51100000000E-03 0.  1.
         11    1    4    4    0    0 -0.79154129535E-01 -0.20512822016E-01  0.81636228244E-01  0.11554603832E+00  0.51100000000E-03 0. -1.
</event>
<event>
 8    1  0.5716970E+005  0.1043930E+01  0.7957747E-01            NaN
         13   -1    0    0    0    0  0.00000000000E+00  0.00000000000E+00  0.74505805969E-08  0.10566000000E+00  0.10566000000E+00 0. -1.
     999900   -1    0    0    0    0 -0.00000000000E+00 -0.00000000000E+00 -0.74505805969E-08  0.93827000000E+00  0.93827000000E+00 0. -1.
     999902    2    1    2    0    0  0.27407907561E-03 -0.23285039276E-01 -0.38455884951E-02  0.10203279508E+01  0.10200549351E+01 0.  0.
     999903    2    3    3    0    0  0.14253971358E+00 -0.83159632970E-01 -0.38117202547E-01  0.17049030679E+00  0.19517404441E-01 0.  0.
         14    1    1    2    0    0 -0.27407907561E-03  0.23285039276E-01  0.38455884951E-02  0.23602049155E-01  0.00000000000E+00 0. -1.
     999901    1    3    3    0    0 -0.14226563450E+00  0.59874593694E-01  0.34271614052E-01  0.84983764406E+00  0.83500000000E+00 0.  1.
        -11    1    4    4    0    0  0.58838800433E-01 -0.23447656038E-01 -0.15660991410E-01  0.65248178388E-01  0.51100000000E-03 0. -1.
         11    1    4    4    0    0  0.83700913143E-01 -0.59711976932E-01 -0.22456211137E-01  0.10524212840E+00  0.51100000000E-03 0.  1.
</event>
<event>
 8    1  0.5716970E+005  0.1043930E+01  0.7957747E-01            NaN
         13   -1    0    0    0    0  0.00000000000E+00  0.00000000000E+00  0.74505805969E-08  0.10566000000E+00  0.10566000000E+00 0.  1.
     999900   -1    0    0    0    0 -0.00000000000E+00 -0.00000000000E+00 -0.74505805969E-08  0.93827000000E+00  0.93827000000E+00 0. -1.
     999902    2    1    2    0    0 -0.12802238634E-01 -0.22253560592E-01 -0.10131324454E-01  0.10163299636E+01  0.10159551333E+01 0.  0.
     999903    2    3    3    0    0  0.11737866031E+00 -0.11566627370E+00 -0.67028218009E-02  0.16608896481E+00  0.19600501127E-01 0.  0.
         14    1    1    2    0    0  0.12802238634E-01  0.22253560592E-01  0.10131324454E-01  0.27600036381E-01  0.00000000000E+00 0.  1.
     999901    1    3    3    0    0 -0.13018089895E+00  0.93412713104E-01 -0.34285026526E-02  0.85024099881E+00  0.83500000000E+00 0. -1.
        -11    1    4    4    0    0  0.46490779662E-01 -0.44663264986E-01  0.68954375901E-02  0.64838322105E-01  0.51100000000E-03 0.  1.
         11    1    4    4    0    0  0.70887880652E-01 -0.71003008710E-01 -0.13598259391E-01  0.10125064271E+00  0.51100000000E-03 0. -1.
</event>
<event>
 8    1  0.5716970E+005  0.1043930E+01  0.7957747E-01            NaN
         13   -1    0    0    0    0  0.00000000000E+00  0.00000000000E+00  0.74505805969E-08  0.10566000000E+00  0.10566000000E+00 0.  1.
     999900   -1    0    0    0    0 -0.00000000000E+00 -0.00000000000E+00 -0.74505805969E-08  0.93827000000E+00  0.93827000000E+00 0. -1.
     999902    2    1    2    0    0  0.66242460038E-02 -0.46031939578E-02 -0.22372964323E-01  0.10201472423E+01  0.10198699802E+01 0.  0.
     999903    2    3    3    0    0  0.49453814564E-01  0.50906575209E-01  0.14766284338E+00  0.16513093704E+00  0.20657973684E-01 0.  0.
         14    1    1    2    0    0 -0.66242460038E-02  0.46031939578E-02  0.22372964323E-01  0.23782757668E-01  0.00000000000E+00 0.  1.
     999901    1    3    3    0    0 -0.42829568560E-01 -0.55509769167E-01 -0.17003580771E+00  0.85501630529E+00  0.83500000000E+00 0. -1.
        -11    1    4    4    0    0  0.39394252471E-01  0.48850610414E-01  0.11667661629E+00  0.13248389779E+00  0.51100000000E-03 0. -1.
         11    1    4    4    0    0  0.10059562093E-01  0.20559647946E-02  0.30986227097E-01  0.32647039245E-01  0.51100000000E-03 0.  1.
</event>
<event>
 8    1  0.5716970E+005  0.1043930E+01  0.7957747E-01            NaN
         13   -1    0    0    0    0  0.00000000000E+00  0.00000000000E+00  0.74505805969E-08  0.10566000000E+00  0.10566000000E+00 0. -1.
     999900   -1    0    0    0    0 -0.00000000000E+00 -0.00000000000E+00 -0.74505805969E-08  0.93827000000E+00  0.93827000000E+00 0. -1.
     999902    2    1    2    0    0 -0.14591492765E-01  0.15321541289E-01 -0.72503754285E-02  0.10215641950E+01  0.10213193307E+01 0.  0.
     999903    2    3    3    0    0  0.81396181265E-01 -0.12061983093E+00 -0.79292291708E-01  0.16710019464E+00  0.21464519250E-01 0.  0.
         14    1    1    2    0    0  0.14591492765E-01 -0.15321541289E-01  0.72503754285E-02  0.22365804980E-01  0.00000000000E+00 0.  1.
     999901    1    3    3    0    0 -0.95987674029E-01  0.13594137222E+00  0.72041916280E-01  0.85446400038E+00  0.83500000000E+00 0.  1.
        -11    1    4    4    0    0  0.11700837365E-01 -0.33284721984E-01 -0.21204525898E-01  0.41166434776E-01  0.51100000000E-03 0. -1.
         11    1    4    4    0    0  0.69695343900E-01 -0.87335108943E-01 -0.58087765810E-01  0.12593375986E+00  0.51100000000E-03 0.  1.
</event>
<event>
 8    1  0.5716970E+005  0.1043930E+01  0.7957747E-01            NaN
         13   -1    0    0    0    0  0.00000000000E+00  0.00000000000E+00  0.74505805969E-08  0.10566000000E+00  0.10566000000E+00 0. -1.
     999900   -1    0    0    0    0 -0.00000000000E+00 -0.00000000000E+00 -0.74505805969E-08  0.93827000000E+00  0.93827000000E+00 0. -1.
     999902    2    1    2    0    0  0.17444285555E-01 -0.15212631048E-01 -0.46475141180E-02  0.10203222337E+01  0.10200490841E+01 0.  0.
     999903    2    3    3    0    0  0.77236109541E-01 -0.45545711187E-01  0.14276487577E+00  0.16976325829E+00  0.19948074817E-01 0.  0.
         14    1    1    2    0    0 -0.17444285555E-01  0.15212631048E-01  0.46475141180E-02  0.23607766294E-01  0.00000000000E+00 0. -1.
     999901    1    3    3    0    0 -0.59791823986E-01  0.30333080139E-01 -0.14741238988E+00  0.85055897541E+00  0.83500000000E+00 0. -1.
        -11    1    4    4    0    0  0.33546662520E-01 -0.28102457805E-01  0.81629745439E-01  0.92621828757E-01  0.51100000000E-03 0.  1.
         11    1    4    4    0    0  0.43689447022E-01 -0.17443253382E-01  0.61135130326E-01  0.77141429535E-01  0.51100000000E-03 0. -1.
</event>
<event>
 8    1  0.5716970E+005  0.1043930E+01  0.7957747E-01            NaN
         13   -1    0    0    0    0  0.00000000000E+00  0.00000000000E+00  0.74505805969E-08  0.10566000000E+00  0.10566000000E+00 0.  1.
     999900   -1    0    0    0    0 -0.00000000000E+00 -0.00000000000E+00 -0.74505805969E-08  0.93827000000E+00  0.93827000000E+00 0.  1.
     999902    2    1    2    0    0 -0.15910952658E-02  0.89122889366E-02  0.21719172414E-01  0.10203995319E+01  0.10201281889E+01 0.  0.
     999903    2    3    3    0    0  0.14586215720E-02 -0.14591182814E+00 -0.75724924098E-01  0.16558951796E+00  0.19830157838E-01 0.  0.
         14    1    1    2    0    0  0.15910952658E-02 -0.89122889366E-02 -0.21719172414E-01  0.23530468091E-01  0.00000000000E+00 0. -1.
     999901    1    3    3    0    0 -0.30497168378E-02  0.15482411708E+00  0.97444096512E-01  0.85481001395E+00  0.83500000000E+00 0. -1.
        -11    1    4    4    0    0  0.10027056404E-02 -0.48173435227E-01 -0.14770026201E-01  0.50399405504E-01  0.51100000000E-03 0.  1.
         11    1    4    4    0    0  0.45591593159E-03 -0.97738392915E-01 -0.60954897897E-01  0.11519011246E+00  0.51100000000E-03 0. -1.
</event>
<event>
 8    1  0.5716970E+005  0.1043930E+01  0.7957747E-01            NaN
         13   -1    0    0    0    0  0.00000000000E+00  0.00000000000E+00  0.74505805969E-08  0.10566000000E+00  0.10566000000E+00 0.  1.
     999900   -1    0    0    0    0 -0.00000000000E+00 -0.00000000000E+00 -0.74505805969E-08  0.93827000000E+00  0.93827000000E+00 0. -1.
     999902    2    1    2    0    0  0.24197846541E-01  0.74182559064E-03  0.43578381776E-02  0.10193316904E+01  0.10190348464E+01 0.  0.
     999903    2    3    3    0    0 -0.73760600267E-02 -0.16428319089E+00 -0.23125652202E-01  0.16715183268E+00  0.19014896965E-01 0.  0.
         14    1    1    2    0    0 -0.24197846541E-01 -0.74182559064E-03 -0.43578381776E-02  0.24598309617E-01  0.00000000000E+00 0.  1.
     999901    1    3    3    0    0  0.31573906567E-01  0.16502501648E+00  0.27483490380E-01  0.85217985771E+00  0.83500000000E+00 0.  1.
        -11    1    4    4    0    0 -0.86934477396E-02 -0.12943750404E+00 -0.10861942983E-01  0.13018404823E+00  0.51100000000E-03 0. -1.
         11    1    4    4    0    0  0.13173877130E-02 -0.34845686847E-01 -0.12263709219E-01  0.36967784448E-01  0.51100000000E-03 0.  1.
</event>
<event>
 7    1  0.5716970E+005  0.1043930E+01  0.7957747E-01            NaN
         13   -1    0    0    0    0  0.00000000000E+00  0.00000000000E+00  0.74505805969E-08  0.10566000000E+00  0.10566000000E+00 0. -1.
     999900   -1    0    0    0    0 -0.00000000000E+00 -0.00000000000E+00 -0.74505805969E-08  0.93827000000E+00  0.93827000000E+00 0. -1.
     999903    2    1    2    0    0  0.27348881755E-01 -0.83162461911E-01 -0.13211389624E-01  0.91950576553E-01  0.24827631953E-01 0.  0.
         14    1    1    2    0    0 -0.89567076067E-01  0.34763190637E-03  0.62370649402E-01  0.10914430755E+00  0.00000000000E+00 0. -1.
     999901    1    1    2    0    0  0.62218194312E-01  0.82814830004E-01 -0.49159259779E-01  0.84283511590E+00  0.83500000000E+00 0. -1.
        -11    1    3    3    0    0  0.48750289708E-02 -0.53503378635E-01 -0.62529328747E-02  0.54090088957E-01  0.51100000000E-03 0.  1.
         11    1    3    3    0    0  0.22473852784E-01 -0.29659083276E-01 -0.69584567488E-02  0.37860487596E-01  0.51100000000E-03 0. -1.
</event>
<event>
 8    1  0.5716970E+005  0.1043930E+01  0.7957747E-01            NaN
         13   -1    0    0    0    0  0.00000000000E+00  0.00000000000E+00  0.74505805969E-08  0.10566000000E+00  0.10566000000E+00 0. -1.
     999900   -1    0    0    0    0 -0.00000000000E+00 -0.00000000000E+00 -0.74505805969E-08  0.93827000000E+00  0.93827000000E+00 0.  1.
     999902    2    1    2    0    0  0.24118436713E-01 -0.20750429074E-02  0.88686524993E-02  0.10181490421E+01  0.10178225848E+01 0.  0.
     999903    2    3    3    0    0  0.69865659707E-01 -0.13308361565E+00  0.74781888348E-01  0.16913454918E+00  0.20535475213E-01 0.  0.
         14    1    1    2    0    0 -0.24118436713E-01  0.20750429074E-02 -0.88686524993E-02  0.25780957890E-01  0.00000000000E+00 0.  1.
     999901    1    3    3    0    0 -0.45747222994E-01  0.13100857274E+00 -0.65913235848E-01  0.84901449293E+00  0.83500000000E+00 0. -1.
        -11    1    4    4    0    0  0.35300406152E-01 -0.64185492851E-01  0.47774770044E-01  0.87456194410E-01  0.51100000000E-03 0. -1.
         11    1    4    4    0    0  0.34565253555E-01 -0.68898122796E-01  0.27007118304E-01  0.81678354771E-01  0.51100000000E-03 0.  1.
</event>
<event>
 8    1  0.5716970E+005  0.1043930E+01  0.7957747E-01            NaN
         13   -1    0    0    0    0  0.00000000000E+00  0.00000000000E+00  0.74505805969E-08  0.10566000000E+00  0.10566000000E+00 0.  1.
     999900   -1    0    0    0    0 -0.00000000000E+00 -0.00000000000E+00 -0.74505805969E-08  0.93827000000E+00  0.93827000000E+00 0.  1.
     999902    2    1    2    0    0 -0.14201229707E-01  0.18963243742E-01  0.20625717096E-02  0.10201490467E+01  0.10198718271E+01 0.  0.
     999903    2    3    3    0    0  0.85032938800E-01  0.83902405454E-01  0.11767472816E+00  0.16888194076E+00  0.20088652126E-01 0.  0.
         14    1    1    2    0    0  0.14201229707E-01 -0.18963243742E-01 -0.20625717096E-02  0.23780953312E-01  0.00000000000E+00 0.  1.
     999901    1    3    3    0    0 -0.99234168507E-01 -0.64939161712E-01 -0.11561215645E+00  0.85126710593E+00  0.83500000000E+00 0.  1.
        -11    1    4    4    0    0  0.48878908628E-01  0.60465094877E-01  0.81263664958E-01  0.11246875020E+00  0.51100000000E-03 0. -1.
         11    1    4    4    0    0  0.36154030172E-01  0.23437310577E-01  0.36411063200E-01  0.56413190560E-01  0.51100000000E-03 0.  1.
</event>
<event>
 8    1  0.5716970E+005  0.1043930E+01  0.7957747E-01            NaN
         13   -1    0    0    0    0  0.00000000000E+00  0.00000000000E+00  0.74505805969E-08  0.10566000000E+00  0.10566000000E+00 0. -1.
     999900   -1    0    0    0    0 -0.00000000000E+00 -0.00000000000E+00 -0.74505805969E-08  0.93827000000E+00  0.93827000000E+00 0.  1.
     999902    2    1    2    0    0 -0.12838457762E-01 -0.18397974850E-01  0.75951489861E-02  0.10202446086E+01  0.10199696386E+01 0.  0.
     999903    2    3    3    0    0 -0.25216428558E-01  0.60589361670E-01 -0.15137533969E+00  0.16649474493E+00  0.22339821124E-01 0.  0.
         14    1    1    2    0    0  0.12838457762E-01  0.18397974850E-01 -0.75951489861E-02  0.23685391371E-01  0.00000000000E+00 0.  1.
     999901    1    3    3    0    0  0.12377970797E-01 -0.78987336520E-01  0.15897048867E+00  0.85374986370E+00  0.83500000000E+00 0. -1.
        -11    1    4    4    0    0  0.35695402137E-02  0.11056693435E-01 -0.32873198566E-01  0.34869763292E-01  0.51100000000E-03 0.  1.
         11    1    4    4    0    0 -0.28785968772E-01  0.49532668235E-01 -0.11850214112E+00  0.13162498164E+00  0.51100000000E-03 0. -1.
</event>
<event>
 8    1  0.5716970E+005  0.1043930E+01  0.7957747E-01            NaN
         13   -1    0    0    0    0  0.00000000000E+00  0.00000000000E+00  0.74505805969E-08  0.10566000000E+00  0.10566000000E+00 0. -1.
     999900   -1    0    0    0    0 -0.00000000000E+00 -0.00000000000E+00 -0.74505805969E-08  0.93827000000E+00  0.93827000000E+00 0.  1.
     999902    2    1    2    0    0 -0.12046422782E-01 -0.15799291810E-01  0.11889013873E-01  0.10207765429E+01  0.10205139235E+01 0.  0.
     999903    2    3    3    0    0  0.11921833445E+00  0.56469069648E-01 -0.97899393847E-01  0.16536339887E+00  0.18947170617E-01 0.  0.
         14    1    1    2    0    0  0.12046422782E-01  0.15799291810E-01 -0.11889013873E-01  0.23153457073E-01  0.00000000000E+00 0.  1.
     999901    1    3    3    0    0 -0.13126475723E+00 -0.72268361458E-01  0.10978840772E+00  0.85541314406E+00  0.83500000000E+00 0. -1.
        -11    1    4    4    0    0  0.75469032627E-01  0.25663886756E-01 -0.56453777416E-01  0.97680602346E-01  0.51100000000E-03 0. -1.
         11    1    4    4    0    0  0.43749301820E-01  0.30805182892E-01 -0.41445616431E-01  0.67682796523E-01  0.51100000000E-03 0.  1.
</event>
<event>
 8    1  0.5716970E+005  0.1043930E+01  0.7957747E-01            NaN
         13   -1    0    0    0    0  0.00000000000E+00  0.00000000000E+00  0.74505805969E-08  0.10566000000E+00  0.10566000000E+00 0.  1.
     999900   -1    0    0    0    0 -0.00000000000E+00 -0.00000000000E+00 -0.74505805969E-08  0.93827000000E+00  0.93827000000E+00 0. -1.
     999902    2    1    2    0    0  0.47010166282E-02 -0.12395839277E-02  0.22463083172E-01  0.10209468272E+01  0.10206881001E+01 0.  0.
     999903    2    3    3    0    0  0.14560652709E+00 -0.60575190717E-01  0.63187291458E-01  0.17108887541E+00  0.20202846901E-01 0.  0.
         14    1    1    2    0    0 -0.47010166282E-02  0.12395839277E-02 -0.22463083172E-01  0.22983172785E-01  0.00000000000E+00 0. -1.
     999901    1    3    3    0    0 -0.14090551047E+00  0.59335606789E-01 -0.40724208286E-01  0.84985795181E+00  0.83500000000E+00 0.  1.
        -11    1    4    4    0    0  0.90554865310E-01 -0.36901301678E-01  0.49570968344E-01  0.10963316889E+00  0.51100000000E-03 0. -1.
         11    1    4    4    0    0  0.55051661785E-01 -0.23673889039E-01  0.13616323114E-01  0.61455706518E-01  0.51100000000E-03 0.  1.
</event>
<event>
 8    1  0.5716970E+005  0.1043930E+01  0.7957747E-01            NaN
         13   -1    0    0    0    0  0.00000000000E+00  0.00000000000E+00  0.74505805969E-08  0.10566000000E+00  0.10566000000E+00 0. -1.
     999900   -1    0    0    0    0 -0.00000000000E+00 -0.00000000000E+00 -0.74505805969E-08  0.93827000000E+00  0.93827000000E+00 0. -1.
     999902    2    1    2    0    0 -0.10329431361E-01  0.19319458905E-01  0.87972453328E-02  0.10203221587E+01  0.10200490074E+01 0.  0.
     999903    2    3    3    0    0  0.85191591306E-02  0.88923493342E-01  0.14468342625E+00  0.17126971915E+00  0.20495343963E-01 0.  0.
         14    1    1    2    0    0  0.10329431361E-01 -0.19319458905E-01 -0.87972453328E-02  0.23607841284E-01  0.00000000000E+00 0.  1.
     999901    1    3    3    0    0 -0.18848590492E-01 -0.69604034437E-01 -0.13588618092E+00  0.84905243957E+00  0.83500000000E+00 0. -1.
        -11    1    4    4    0    0  0.73357416721E-02  0.28178239928E-01  0.32130345927E-01  0.43364116061E-01  0.51100000000E-03 0. -1.
         11    1    4    4    0    0  0.11834174585E-02  0.60745253414E-01  0.11255308032E+00  0.12790560309E+00  0.51100000000E-03 0.  1.
</event>
<event>
 8    1  0.5716970E+005  0.1043930E+01  0.7957747E-01            NaN
         13   -1    0    0    0    0  0.00000000000E+00  0.00000000000E+00  0.74505805969E-08  0.10566000000E+00  0.10566000000E+00 0.  1.
     999900   -1    0    0    0    0 -0.00000000000E+00 -0.00000000000E+00 -0.74505805969E-08  0.93827000000E+00  0.93827000000E+00 0. -1.
     999902    2    1    2    0    0  0.11781777021E-01  0.19631422187E-01  0.46567880551E-02  0.10205657392E+01  0.10202982600E+01 0.  0.
     999903    2    3    3    0    0 -0.16100279988E-02 -0.45099091146E-01 -0.15954524798E+00  0.16701041680E+00  0.20031798518E-01 0.  0.
         14    1    1    2    0    0 -0.11781777021E-01 -0.19631422187E-01 -0.46567880551E-02  0.23364260781E-01  0.00000000000E+00 0.  1.
     999901    1    3    3    0    0  0.13391805020E-01  0.64730513333E-01  0.16420203604E+00  0.85355532242E+00  0.83500000000E+00 0.  1.
        -11    1    4    4    0    0 -0.58972212105E-02 -0.27274363443E-02 -0.27707468483E-01  0.28463679625E-01  0.51100000000E-03 0. -1.
         11    1    4    4    0    0  0.42871932117E-02 -0.42371654802E-01 -0.13183777950E+00  0.13854673717E+00  0.51100000000E-03 0.  1.
</event>
<event>
 8    1  0.5716970E+005  0.1043930E+01  0.7957747E-01            NaN
         13   -1    0    0    0    0  0.00000000000E+00  0.00000000000E+00  0.74505805969E-08  0.10566000000E+00  0.10566000000E+00 0.  1.
     999900   -1    0    0    0    0 -0.00000000000E+00 -0.00000000000E+00 -0.74505805969E-08  0.93827000000E+00  0.93827000000E+00 0.  1.
     999902    2    1    2    0    0  0.17635519875E-01  0.10899204813E-01  0.12127252392E-01  0.10199117886E+01  0.10196289433E+01 0.  0.
     999903    2    3    3    0    0  0.11039927735E+00 -0.35916729535E-01 -0.12006936955E+00  0.16815020623E+00  0.19489136744E-01 0.  0.
         14    1    1    2    0    0 -0.17635519875E-01 -0.10899204813E-01 -0.12127252392E-01  0.24018211369E-01  0.00000000000E+00 0.  1.
     999901    1    3    3    0    0 -0.92763757474E-01  0.46815934348E-01  0.13219662194E+00  0.85176158241E+00  0.83500000000E+00 0. -1.
        -11    1    4    4    0    0  0.74610909978E-01 -0.27467366717E-01 -0.69364090010E-01  0.10551247427E+00  0.51100000000E-03 0.  1.
         11    1    4    4    0    0  0.35788367371E-01 -0.84493628184E-02 -0.50705279536E-01  0.62637731958E-01  0.51100000000E-03 0. -1.
</event>
<event>
 8    1  0.5716970E+005  0.1043930E+01  0.7957747E-01            NaN
         13   -1    0    0    0    0  0.00000000000E+00  0.00000000000E+00  0.74505805969E-08  0.10566000000E+00  0.10566000000E+00 0.  1.
     999900   -1    0    0    0    0 -0.00000000000E+00 -0.00000000000E+00 -0.74505805969E-08  0.93827000000E+00  0.93827000000E+00 0. -1.
     999902    2    1    2    0    0  0.12493227729E-02  0.20786223729E-01  0.10427357888E-01  0.10206414256E+01  0.10203756965E+01 0.  0.
     999903    2    3    3    0    0  0.10486474982E+00 -0.11780683815E+00 -0.47462911350E-01  0.16593651935E+00  0.20177552640E-01 0.  0.
         14    1    1    2    0    0 -0.12493227729E-02 -0.20786223729E-01 -0.10427357888E-01  0.23288574384E-01  0.00000000000E+00 0. -1.
     999901    1    3    3    0    0 -0.10361542704E+00  0.13859306188E+00  0.57890269239E-01  0.85470490627E+00  0.83500000000E+00 0. -1.
        -11    1    4    4    0    0  0.47331246337E-01 -0.68311006038E-01 -0.24831063027E-01  0.86738014952E-01  0.51100000000E-03 0. -1.
         11    1    4    4    0    0  0.57533503480E-01 -0.49495832113E-01 -0.22631848324E-01  0.79198504398E-01  0.51100000000E-03 0.  1.
</event>
<event>
 8    1  0.5716970E+005  0.1043930E+01  0.7957747E-01            NaN
         13   -1    0    0    0    0  0.00000000000E+00  0.00000000000E+00  0.74505805969E-08  0.10566000000E+00  0.10566000000E+00 0. -1.
     999900   -1    0    0    0    0 -0.00000000000E+00 -0.00000000000E+00 -0.74505805969E-08  0.93827000000E+00  0.93827000000E+00 0. -1.
     999902    2    1    2    0    0 -0.14909335674E-01 -0.39845324806E-02  0.17824464217E-01  0.10203529706E+01  0.10200805401E+01 0.  0.
     999903    2    3    3    0    0 -0.29311586057E-01  0.12284981669E+00 -0.10688149444E+00  0.16649645278E+00  0.18605601284E-01 0.  0.
         14    1    1    2    0    0  0.14909335674E-01  0.39845324806E-02 -0.17824464217E-01  0.23577029370E-01  0.00000000000E+00 0.  1.
     999901    1    3    3    0    0  0.14402250383E-01 -0.12683434917E+00  0.12470595866E+00  0.85385651785E+00  0.83500000000E+00 0.  1.
        -11    1    4    4    0    0 -0.25626980947E-01  0.99741061242E-01 -0.77249472740E-01  0.12873524618E+00  0.51100000000E-03 0. -1.
         11    1    4    4    0    0 -0.36846051098E-02  0.23108755443E-01 -0.29632021699E-01  0.37761206601E-01  0.51100000000E-03 0.  1.
</event>
<event>
 8    1  0.5716970E+005  0.1043930E+01  0.7957747E-01            NaN
         13   -1    0    0    0    0  0.00000000000E+00  0.00000000000E+00  0.74505805969E-08  0.10566000000E+00  0.10566000000E+00 0.  1.
     999900   -1    0    0    0    0 -0.00000000000E+00 -0.00000000000E+00 -0.74505805969E-08  0.93827000000E+00  0.93827000000E+00 0. -1.
     999902    2    1    2    0    0  0.10498999782E-01  0.20527137569E-01 -0.33398947757E-02  0.10206330631E+01  0.10203671409E+01 0.  0.
     999903    2    3    3    0    0 -0.87532642212E-01  0.13729449826E+00 -0.47324882355E-01  0.17068924229E+00  0.19581374787E-01 0.  0.
         14    1    1    2    0    0 -0.10498999782E-01 -0.20527137569E-01  0.33398947757E-02  0.23296936929E-01  0.00000000000E+00 0.  1.
     999901    1    3    3    0    0  0.98031641994E-01 -0.11676736069E+00  0.43984987579E-01  0.84994382078E+00  0.83500000000E+00 0. -1.
        -11    1    4    4    0    0 -0.44950185057E-01  0.86645168592E-01 -0.32450833108E-01  0.10286506728E+00  0.51100000000E-03 0. -1.
         11    1    4    4    0    0 -0.42582457156E-01  0.50649329665E-01 -0.14874049247E-01  0.67824175004E-01  0.51100000000E-03 0.  1.
</event>
<event>
 8    1  0.5716970E+005  0.1043930E+01  0.7957747E-01            NaN
         13   -1    0    0    0    0  0.00000000000E+00  0.00000000000E+00  0.74505805969E-08  0.10566000000E+00  0.10566000000E+00 0. -1.
     999900   -1    0    0    0    0 -0.00000000000E+00 -0.00000000000E+00 -0.74505805969E-08  0.93827000000E+00  0.93827000000E+00 0.  1.
     999902    2    1    2    0    0 -0.10844980986E-01 -0.19179167869E-01  0.15012744827E-01  0.10172684809E+01  0.10169190359E+01 0.  0.
     999903    2    3    3    0    0 -0.14083082001E+00  0.84679722711E-01 -0.70530142784E-02  0.16556730960E+00  0.18942378271E-01 0.  0.
         14    1    1    2    0    0  0.10844980986E-01  0.19179167869E-01 -0.15012744827E-01  0.26661519086E-01  0.00000000000E+00 0.  1.
     999901    1    3    3    0    0  0.12998583902E+00 -0.10385889058E+00  0.22065759105E-01  0.85170117132E+00  0.83500000000E+00 0.  1.
        -11    1    4    4    0    0 -0.31900446722E-01  0.27520370413E-01 -0.58959284728E-02  0.42544475344E-01  0.51100000000E-03 0.  1.
         11    1    4    4    0    0 -0.10893037328E+00  0.57159352299E-01 -0.11570858057E-02  0.12302283425E+00  0.51100000000E-03 0. -1.
</event>
<event>
 8    1  0.5716970E+005  0.1043930E+01  0.7957747E-01            NaN
         13   -1    0    0    0    0  0.00000000000E+00  0.00000000000E+00  0.74505805969E-08  0.10566000000E+00  0.10566000000E+00 0. -1.
     999900   -1    0    0    0    0 -0.00000000000E+00 -0.00000000000E+00 -0.74505805969E-08  0.93827000000E+00  0.93827000000E+00 0. -1.
     999902    2    1    2    0    0 -0.18747636830E-02 -0.12983351615E-01 -0.17433259673E-01  0.10221125597E+01  0.10218796818E+01 0.  0.
     999903    2    3    3    0    0 -0.51769050565E-01 -0.16298908742E+00  0.17274807802E-02  0.17206356429E+00  0.18905257249E-01 0.  0.
         14    1    1    2    0    0  0.18747636830E-02  0.12983351615E-01  0.17433259673E-01  0.21817440291E-01  0.00000000000E+00 0. -1.
     999901    1    3    3    0    0  0.49894286882E-01  0.15000573581E+00 -0.19160740453E-01  0.85004899542E+00  0.83500000000E+00 0. -1.
        -11    1    4    4    0    0 -0.10785462732E-01 -0.57716781420E-01  0.59217243722E-02  0.59015938562E-01  0.51100000000E-03 0. -1.
         11    1    4    4    0    0 -0.40983587833E-01 -0.10527230600E+00 -0.41942435919E-02  0.11304762573E+00  0.51100000000E-03 0.  1.
</event>
<event>
 8    1  0.5716970E+005  0.1043930E+01  0.7957747E-01            NaN
         13   -1    0    0    0    0  0.00000000000E+00  0.00000000000E+00  0.74505805969E-08  0.10566000000E+00  0.10566000000E+00 0.  1.
     999900   -1    0    0    0    0 -0.00000000000E+00 -0.00000000000E+00 -0.74505805969E-08  0.93827000000E+00  0.93827000000E+00 0.  1.
     999902    2    1    2    0    0  0.22453821550E-01  0.13136931448E-02  0.27457057186E-02  0.10212708122E+01  0.10210194088E+01 0.  0.
     999903    2    3    3    0    0  0.19025702318E-01  0.17064595941E-01 -0.16605462210E+00  0.16922715510E+00  0.20261162807E-01 0.  0.
         14    1    1    2    0    0 -0.22453821550E-01 -0.13136931448E-02 -0.27457057186E-02  0.22659187800E-01  0.00000000000E+00 0. -1.
     999901    1    3    3    0    0  0.34281192319E-02 -0.15750902796E-01  0.16880032782E+00  0.85204365710E+00  0.83500000000E+00 0. -1.
        -11    1    4    4    0    0  0.32030547147E-02  0.15381798497E-01 -0.62008071403E-01  0.63969690672E-01  0.51100000000E-03 0.  1.
         11    1    4    4    0    0  0.15822647603E-01  0.16827974442E-02 -0.10404655070E+00  0.10525746442E+00  0.51100000000E-03 0. -1.
</event>
<event>
 8    1  0.5716970E+005  0.1043930E+01  0.7957747E-01            NaN
         13   -1    0    0    0    0  0.00000000000E+00  0.00000000000E+00  0.74505805969E-08  0.10566000000E+00  0.10566000000E+00 0. -1.
     999900   -1    0    0    0    0 -0.00000000000E+00 -0.00000000000E+00 -0.74505805969E-08  0.93827000000E+00  0.93827000000E+00 0.  1.
     999902    2    1    2    0    0 -0.27283619278E-02 -0.11694979351E-01  0.19892041590E-01  0.10206940404E+01  0.10204295244E+01 0.  0.
     999903    2    3    3    0    0  0.14607929927E+00  0.39954470959E-01 -0.66342151866E-01  0.16660228777E+00  0.20482181332E-01 0.  0.
         14    1    1    2    0    0  0.27283619278E-02  0.11694979351E-01 -0.19892041590E-01  0.23235959620E-01  0.00000000000E+00 0.  1.
     999901    1    3    3    0    0 -0.14880766120E+00 -0.51649450310E-01  0.86234193456E-01  0.85409175261E+00  0.83500000000E+00 0. -1.
        -11    1    4    4    0    0  0.84732799662E-01  0.32937153670E-01 -0.43283039951E-01  0.10068855992E+00  0.51100000000E-03 0.  1.
         11    1    4    4    0    0  0.61346499609E-01  0.70173172881E-02 -0.23059111916E-01  0.65913727854E-01  0.51100000000E-03 0. -1.
</event>
<event>
 8    1  0.5716970E+005  0.1043930E+01  0.7957747E-01            NaN
         13   -1    0    0    0    0  0.00000000000E+00  0.00000000000E+00  0.74505805969E-08  0.10566000000E+00  0.10566000000E+00 0.  1.
     999900   -1    0    0    0    0 -0.00000000000E+00 -0.00000000000E+00 -0.74505805969E-08  0.93827000000E+00  0.93827000000E+00 0.  1.
     999902    2    1    2    0    0  0.43873603746E-02 -0.23401535635E-01  0.64007815556E-02  0.10192753695E+01  0.10189771479E+01 0.  0.
     999903    2    3    3    0    0 -0.46729031519E-01  0.13549199857E+00 -0.76277196652E-01  0.16375173521E+00  0.21324539620E-01 0.  0.
         14    1    1    2    0    0 -0.43873603746E-02  0.23401535635E-01 -0.64007815556E-02  0.24654630511E-01  0.00000000000E+00 0. -1.
     999901    1    3    3    0    0  0.51116391894E-01 -0.15889353421E+00  0.82677978207E-01  0.85552363428E+00  0.83500000000E+00 0.  1.
        -11    1    4    4    0    0 -0.28461012436E-01  0.60510117089E-01 -0.26591966463E-01  0.71964555862E-01  0.51100000000E-03 0.  1.
         11    1    4    4    0    0 -0.18268019083E-01  0.74981881485E-01 -0.49685230189E-01  0.91787179345E-01  0.51100000000E-03 0. -1.
</event>
<event>
 8    1  0.5716970E+005  0.1043930E+01  0.7957747E-01            NaN
         13   -1    0    0    0    0  0.00000000000E+00  0.00000000000E+00  0.74505805969E-08  0.10566000000E+00  0.10566000000E+00 0. -1.
     999900   -1    0    0    0    0 -0.00000000000E+00 -0.00000000000E+00 -0.74505805969E-08  0.93827000000E+00  0.93827000000E+00 0.  1.
     999902    2    1    2    0    0 -0.58381040498E-02 -0.21932173618E-01 -0.68047131234E-02  0.10202359539E+01  0.10199607806E+01 0.  0.
     999903    2    3    3    0    0 -0.10037818746E+00 -0.40880168836E-01  0.12808204661E+00  0.16893325110E+00  0.19658686197E-01 0.  0.
         14    1    1    2    0    0  0.58381040498E-02  0.21932173618E-01  0.68047131234E-02  0.23694046071E-01  0.00000000000E+00 0. -1.
     999901    1    3    3    0    0  0.94540083406E-01  0.18947995219E-01 -0.13488675973E+00  0.85130270283E+00  0.83500000000E+00 0.  1.
        -11    1    4    4    0    0 -0.30266454448E-01 -0.16406397341E-01  0.53963774227E-01  0.64012328409E-01  0.51100000000E-03 0. -1.
         11    1    4    4    0    0 -0.70111733008E-01 -0.24473771496E-01  0.74118272382E-01  0.10492092269E+00  0.51100000000E-03 0.  1.
</event>
<event>
 8    1  0.5716970E+005  0.1043930E+01  0.7957747E-01            NaN
         13   -1    0    0    0    0  0.00000000000E+00  0.00000000000E+00  0.74505805969E-08  0.10566000000E+00  0.10566000000E+00 0.  1.
     999900   -1    0    0    0    0 -0.00000000000E+00 -0.00000000000E+00 -0.74505805969E-08  0.93827000000E+00  0.93827000000E+00 0.  1.
     999902    2    1    2    0    0  0.38718442646E-02  0.23699022655E-01 -0.57380604442E-03  0.10199099229E+01  0.10196270331E+01 0.  0.
     999903    2    3    3    0    0  0.66353798216E-02  0.15855359125E+00 -0.62692216599E-01  0.17180787196E+00  0.20108736417E-01 0.  0.
         14    1    1    2    0    0 -0.38718442646E-02 -0.23699022655E-01  0.57380604442E-03  0.24020077148E-01  0.00000000000E+00 0.  1.
     999901    1    3    3    0    0 -0.27635355570E-02 -0.13485456860E+00  0.62118410555E-01  0.84810205089E+00  0.83500000000E+00 0.  1.
        -11    1    4    4    0    0  0.92077086385E-02  0.15233739579E+00 -0.62870207092E-01  0.16505874141E+00  0.51100000000E-03 0.  1.
         11    1    4    4    0    0 -0.25723288169E-02  0.62161954653E-02  0.17799049224E-03  0.67491305529E-02  0.51100000000E-03 0. -1.
</event>
<event>
 8    1  0.5716970E+005  0.1043930E+01  0.7957747E-01            NaN
         13   -1    0    0    0    0  0.00000000000E+00  0.00000000000E+00  0.74505805969E-08  0.10566000000E+00  0.10566000000E+00 0.  1.
     999900   -1    0    0    0    0 -0.00000000000E+00 -0.00000000000E+00 -0.74505805969E-08  0.93827000000E+00  0.93827000000E+00 0.  1.
     999902    2    1    2    0    0  0.13624362710E-01 -0.14573314441E-01 -0.12282728371E-01  0.10205020217E+01  0.10202330646E+01 0.  0.
     999903    2    3    3    0    0  0.81142967868E-01  0.93177190718E-01  0.11048812437E+00  0.16699946414E+00  0.20372169499E-01 0.  0.
         14    1    1    2    0    0 -0.13624362710E-01  0.14573314441E-01  0.12282728371E-01  0.23427978344E-01  0.00000000000E+00 0.  1.
     999901    1    3    3    0    0 -0.67518605158E-01 -0.10775050516E+00 -0.12277085275E+00  0.85350255752E+00  0.83500000000E+00 0. -1.
        -11    1    4    4    0    0  0.20959575493E-01  0.38559233633E-01  0.36287478655E-01  0.56948753554E-01  0.51100000000E-03 0.  1.
         11    1    4    4    0    0  0.60183392375E-01  0.54617957086E-01  0.74200645720E-01  0.11005071058E+00  0.51100000000E-03 0. -1.
</event>
<event>
 8    1  0.5716970E+005  0.1043930E+01  0.7957747E-01            NaN
         13   -1    0    0    0    0  0.00000000000E+00  0.00000000000E+00  0.74505805969E-08  0.10566000000E+00  0.10566000000E+00 0. -1.
     999900   -1    0    0    0    0 -0.00000000000E+00 -0.00000000000E+00 -0.74505805969E-08  0.93827000000E+00  0.93827000000E+00 0. -1.
     999902    2    1    2    0    0  0.99670057193E-02  0.77916901112E-02 -0.20634125312E-01  0.10197263068E+01  0.10194390232E+01 0.  0.
     999903    2    3    3    0    0  0.13438628763E+00  0.10156303553E+00  0.73975183283E-02  0.16985337747E+00  0.20511510788E-01 0.  0.
         14    1    1    2    0    0 -0.99670057193E-02 -0.77916901112E-02  0.20634125312E-01  0.24203693214E-01  0.00000000000E+00 0. -1.
     999901    1    3    3    0    0 -0.12441928191E+00 -0.93771345415E-01 -0.28031643641E-01  0.84987292931E+00  0.83500000000E+00 0. -1.
        -11    1    4    4    0    0  0.72916027364E-01  0.62426149040E-01  0.12506149844E-01  0.96801012574E-01  0.51100000000E-03 0. -1.
         11    1    4    4    0    0  0.61470260262E-01  0.39136886487E-01 -0.51086315156E-02  0.73052364900E-01  0.51100000000E-03 0.  1.
</event>
<event>
 8    1  0.5716970E+005  0.1043930E+01  0.7957747E-01            NaN
         13   -1    0    0    0    0  0.00000000000E+00  0.00000000000E+00  0.74505805969E-08  0.10566000000E+00  0.10566000000E+00 0.  1.
     999900   -1    0    0    0    0 -0.00000000000E+00 -0.00000000000E+00 -0.74505805969E-08  0.93827000000E+00  0.93827000000E+00 0.  1.
     999902    2    1    2    0    0  0.16528753972E-01  0.79268729209E-03  0.16538414386E-01  0.10205345472E+01  0.10202663450E+01 0.  0.
     999903    2    3    3    0    0 -0.92952410456E-01 -0.90384114175E-01  0.10619051005E+00  0.16873537325E+00  0.19640851761E-01 0.  0.
         14    1    1    2    0    0 -0.16528753972E-01 -0.79268729209E-03 -0.16538414386E-01  0.23395452793E-01  0.00000000000E+00 0.  1.
     999901    1    3    3    0    0  0.10948116443E+00  0.91176801467E-01 -0.89652095663E-01  0.85179917395E+00  0.83500000000E+00 0.  1.
        -11    1    4    4    0    0 -0.38878973265E-01 -0.24818518093E-01  0.38537607525E-01  0.60107750891E-01  0.51100000000E-03 0. -1.
         11    1    4    4    0    0 -0.54073437191E-01 -0.65565596081E-01  0.67652902524E-01  0.10862762236E+00  0.51100000000E-03 0.  1.
</event>
<event>
 8    1  0.5716970E+005  0.1043930E+01  0.7957747E-01            NaN
         13   -1    0    0    0    0  0.00000000000E+00  0.00000000000E+00  0.74505805969E-08  0.10566000000E+00  0.10566000000E+00 0. -1.
     999900   -1    0    0    0    0 -0.00000000000E+00 -0.00000000000E+00 -0.74505805969E-08  0.93827000000E+00  0.93827000000E+00 0.  1.
     999902    2    1    2    0    0  0.74082082853E-02  0.10169519000E-01 -0.16797442681E-01  0.10229429862E+01  0.10227276755E+01 0.  0.
     999903    2    3    3    0    0  0.55739818303E-01 -0.15563777739E+00  0.29025090289E-01  0.16903859544E+00  0.20038607478E-01 0.  0.
         14    1    1    2    0    0 -0.74082082853E-02 -0.10169519000E-01  0.16797442681E-01  0.20987013777E-01  0.00000000000E+00 0. -1.
     999901    1    3    3    0    0 -0.48331610018E-01  0.16580729639E+00 -0.45822532970E-01  0.85390439078E+00  0.83500000000E+00 0. -1.
        -11    1    4    4    0    0  0.33583054608E-01 -0.11603944305E+00  0.25934194941E-01  0.12355491689E+00  0.51100000000E-03 0. -1.
         11    1    4    4    0    0  0.22156763695E-01 -0.39598334340E-01  0.30908953486E-02  0.45483678556E-01  0.51100000000E-03 0.  1.
</event>
<event>
 8    1  0.5716970E+005  0.1043930E+01  0.7957747E-01            NaN
         13   -1    0    0    0    0  0.00000000000E+00  0.00000000000E+00  0.74505805969E-08  0.10566000000E+00  0.10566000000E+00 0. -1.
     999900   -1    0    0    0    0 -0.00000000000E+00 -0.00000000000E+00 -0.74505805969E-08  0.93827000000E+00  0.93827000000E+00 0.  1.
     999902    2    1    2    0    0 -0.11835758387E-01  0.13558084499E-01  0.15276140999E-01  0.10203234900E+01  0.10200503698E+01 0.  0.
     999903    2    3    3    0    0 -0.12313034472E+00 -0.73728208665E-01  0.88984901615E-01  0.17022739934E+00  0.21497074849E-01 0.  0.
         14    1    1    2    0    0  0.11835758387E-01 -0.13558084499E-01 -0.15276140999E-01  0.23606510028E-01  0.00000000000E+00 0.  1.
     999901    1    3    3    0    0  0.11129458633E+00  0.87286293164E-01 -0.73708760617E-01  0.85009609063E+00  0.83500000000E+00 0.  1.
        -11    1    4    4    0    0 -0.60734418442E-01 -0.46990943472E-01  0.53823968388E-01  0.93776857731E-01  0.51100000000E-03 0. -1.
         11    1    4    4    0    0 -0.62395926274E-01 -0.26737265193E-01  0.35160933227E-01  0.76450541607E-01  0.51100000000E-03 0.  1.
</event>
<event>
 8    1  0.5716970E+005  0.1043930E+01  0.7957747E-01            NaN
         13   -1    0    0    0    0  0.00000000000E+00  0.00000000000E+00  0.74505805969E-08  0.10566000000E+00  0.10566000000E+00 0. -1.
     999900   -1    0    0    0    0 -0.00000000000E+00 -0.00000000000E+00 -0.74505805969E-08  0.93827000000E+00  0.93827000000E+00 0. -1.
     999902    2    1    2    0    0 -0.26055951998E-01  0.58385772779E-02  0.41784281318E-02  0.10169029602E+01  0.10165437372E+01 0.  0.
     999903    2    3    3    0    0 -0.16348164188E+00 -0.19063022771E-01  0.36173393795E-01  0.16969897782E+00  0.19989561910E-01 0.  0.
         14    1    1    2    0    0  0.26055951998E-01 -0.58385772779E-02 -0.41784281318E-02  0.27027039808E-01  0.00000000000E+00 0.  1.
     999901    1    3    3    0    0  0.13742568988E+00  0.24901600049E-01 -0.31994965663E-01  0.84720398237E+00  0.83500000000E+00 0. -1.
        -11    1    4    4    0    0 -0.89289442308E-01 -0.20301954689E-01  0.18526650490E-01  0.93425220210E-01  0.51100000000E-03 0. -1.
         11    1    4    4    0    0 -0.74192199569E-01  0.12389319180E-02  0.17646743304E-01  0.76273757607E-01  0.51100000000E-03 0.  1.
</event>
<event>
 8    1  0.5716970E+005  0.1043930E+01  0.7957747E-01            NaN
         13   -1    0    0    0    0  0.00000000000E+00  0.00000000000E+00  0.74505805969E-08  0.10566000000E+00  0.10566000000E+00 0.  1.
     999900   -1    0    0    0    0 -0.00000000000E+00 -0.00000000000E+00 -0.74505805969E-08  0.93827000000E+00  0.93827000000E+00 0.  1.
     999902    2    1    2    0    0 -0.53879121455E-03  0.26510847151E-01 -0.12762554569E-01  0.10145021541E+01  0.10140752549E+01 0.  0.
     999903    2    3    3    0    0  0.45439951778E-01  0.15851201954E+00  0.18938509874E-01  0.16729007219E+00  0.20891422655E-01 0.  0.
         14    1    1    2    0    0  0.53879121455E-03 -0.26510847151E-01  0.12762554569E-01  0.29427845857E-01  0.00000000000E+00 0.  1.
     999901    1    3    3    0    0 -0.45978742992E-01 -0.13200117239E+00 -0.31701064443E-01  0.84721208195E+00  0.83500000000E+00 0.  1.
        -11    1    4    4    0    0  0.28787764161E-01  0.70135803410E-01  0.24304344094E-02  0.75854692787E-01  0.51100000000E-03 0. -1.
         11    1    4    4    0    0  0.16652187616E-01  0.88376216132E-01  0.16508075464E-01  0.91435379404E-01  0.51100000000E-03 0.  1.
</event>
<event>
 8    1  0.5716970E+005  0.1043930E+01  0.7957747E-01            NaN
         13   -1    0    0    0    0  0.00000000000E+00  0.00000000000E+00  0.74505805969E-08  0.10566000000E+00  0.10566000000E+00 0.  1.
     999900   -1    0    0    0    0 -0.00000000000E+00 -0.00000000000E+00 -0.74505805969E-08  0.93827000000E+00  0.93827000000E+00 0.  1.
     999902    2    1    2    0    0  0.53456913750E-02  0.22467449412E-01 -0.23940889953E-03  0.10208341126E+01  0.10205728124E+01 0.  0.
     999903    2    3    3    0    0 -0.13356356429E+00 -0.89022788020E-01  0.38267741372E-01  0.16617999834E+00  0.19674585835E-01 0.  0.
         14    1    1    2    0    0 -0.53456913750E-02 -0.22467449412E-01  0.23940889953E-03  0.23095887426E-01  0.00000000000E+00 0.  1.
     999901    1    3    3    0    0  0.13890925566E+00  0.11149023743E+00 -0.38507150272E-01  0.85465411423E+00  0.83500000000E+00 0.  1.
        -11    1    4    4    0    0 -0.86997729286E-01 -0.66949422738E-01  0.31465008142E-01  0.11419780192E+00  0.51100000000E-03 0.  1.
         11    1    4    4    0    0 -0.46565835000E-01 -0.22073365282E-01  0.68027332305E-02  0.51982196419E-01  0.51100000000E-03 0. -1.
</event>
<event>
 8    1  0.6016689E+005  0.1043930E+01  0.7957747E-01            NaN
         13   -1    0    0    0    0  0.00000000000E+00  0.00000000000E+00  0.74505805969E-08  0.10566000000E+00  0.10566000000E+00 0. -1.
     999900   -1    0    0    0    0 -0.00000000000E+00 -0.00000000000E+00 -0.74505805969E-08  0.93827000000E+00  0.93827000000E+00 0.  1.
     999902    2    1    2    0    0 -0.22495970034E-02 -0.55873088427E-02  0.23165747675E-01  0.10199940318E+01  0.10197131432E+01 0.  0.
     999903    2    3    3    0    0 -0.16388455295E+00  0.62082905682E-03  0.37387242832E-01  0.16935212663E+00  0.20586518443E-01 0.  0.
         14    1    1    2    0    0  0.22495970034E-02  0.55873088427E-02 -0.23165747675E-01  0.23935968168E-01  0.00000000000E+00 0.  1.
     999901    1    3    3    0    0  0.16163495595E+00 -0.62081378996E-02 -0.14221495157E-01  0.85064190520E+00  0.83500000000E+00 0.  1.
        -11    1    4    4    0    0 -0.11689521596E+00 -0.20576892533E-02  0.35738909476E-01  0.12225488281E+00  0.51100000000E-03 0. -1.
         11    1    4    4    0    0 -0.46989336999E-01  0.26785183101E-02  0.16483333561E-02  0.47097243824E-01  0.51100000000E-03 0.  1.
</event>
<event>
 8    1  0.5716970E+005  0.1043930E+01  0.7957747E-01            NaN
         13   -1    0    0    0    0  0.00000000000E+00  0.00000000000E+00  0.74505805969E-08  0.10566000000E+00  0.10566000000E+00 0.  1.
     999900   -1    0    0    0    0 -0.00000000000E+00 -0.00000000000E+00 -0.74505805969E-08  0.93827000000E+00  0.93827000000E+00 0. -1.
     999902    2    1    2    0    0 -0.80834474309E-03 -0.12058193067E-01  0.20375345383E-01  0.10202401680E+01  0.10199650936E+01 0.  0.
     999903    2    3    3    0    0  0.81058752058E-01 -0.12422672973E+00  0.85328030588E-01  0.17128324713E+00  0.73672437255E-02 0.  0.
         14    1    1    2    0    0  0.80834474309E-03  0.12058193067E-01 -0.20375345383E-01  0.23689832012E-01  0.00000000000E+00 0. -1.
     999901    1    3    3    0    0 -0.81867096801E-01  0.11216853666E+00 -0.64952685206E-01  0.84895692086E+00  0.83500000000E+00 0. -1.
        -11    1    4    4    0    0  0.51848068830E-01 -0.75080299829E-01  0.49422998959E-01  0.10376978178E+00  0.51100000000E-03 0. -1.
         11    1    4    4    0    0  0.29210683228E-01 -0.49146429898E-01  0.35905031629E-01  0.67513465350E-01  0.51100000000E-03 0.  1.
</event>
<event>
 8    1  0.5716970E+005  0.1043930E+01  0.7957747E-01            NaN
         13   -1    0    0    0    0  0.00000000000E+00  0.00000000000E+00  0.74505805969E-08  0.10566000000E+00  0.10566000000E+00 0.  1.
     999900   -1    0    0    0    0 -0.00000000000E+00 -0.00000000000E+00 -0.74505805969E-08  0.93827000000E+00  0.93827000000E+00 0.  1.
     999902    2    1    2    0    0  0.16531802116E-01 -0.46188300888E-02  0.15142333609E-01  0.10210406064E+01  0.10207840102E+01 0.  0.
     999903    2    3    3    0    0 -0.15605352252E+00  0.29484061259E-01 -0.41945212201E-01  0.16580222479E+00  0.22560256231E-01 0.  0.
         14    1    1    2    0    0 -0.16531802116E-01  0.46188300888E-02 -0.15142333609E-01  0.22889393607E-01  0.00000000000E+00 0. -1.
     999901    1    3    3    0    0  0.17258532463E+00 -0.34102891347E-01  0.57087545810E-01  0.85523838160E+00  0.83500000000E+00 0. -1.
        -11    1    4    4    0    0 -0.10130224641E+00  0.29929927600E-01 -0.26354800581E-01  0.10887048419E+00  0.51100000000E-03 0. -1.
         11    1    4    4    0    0 -0.54751276109E-01 -0.44586634096E-03 -0.15590411620E-01  0.56931740601E-01  0.51100000000E-03 0.  1.
</event>
<event>
 8    1  0.5716970E+005  0.1043930E+01  0.7957747E-01            NaN
         13   -1    0    0    0    0  0.00000000000E+00  0.00000000000E+00  0.74505805969E-08  0.10566000000E+00  0.10566000000E+00 0. -1.
     999900   -1    0    0    0    0 -0.00000000000E+00 -0.00000000000E+00 -0.74505805969E-08  0.93827000000E+00  0.93827000000E+00 0. -1.
     999902    2    1    2    0    0  0.10311477089E-01 -0.83111726913E-02 -0.19686267221E-01  0.10202034059E+01  0.10199274671E+01 0.  0.
     999903    2    3    3    0    0 -0.11518284059E+00 -0.12062606081E+00 -0.11161994368E-01  0.16834595238E+00  0.19950845887E-01 0.  0.
         14    1    1    2    0    0 -0.10311477089E-01  0.83111726913E-02  0.19686267221E-01  0.23726594116E-01  0.00000000000E+00 0. -1.
     999901    1    3    3    0    0  0.12549431768E+00  0.11231488812E+00 -0.85242728533E-02  0.85185745350E+00  0.83500000000E+00 0. -1.
        -11    1    4    4    0    0 -0.29816655383E-01 -0.37361660377E-01  0.47491434932E-02  0.48038964282E-01  0.51100000000E-03 0.  1.
         11    1    4    4    0    0 -0.85366185206E-01 -0.83264400433E-01 -0.15911137861E-01  0.12030698810E+00  0.51100000000E-03 0. -1.
</event>
<event>
 8    1  0.5716970E+005  0.1043930E+01  0.7957747E-01            NaN
         13   -1    0    0    0    0  0.00000000000E+00  0.00000000000E+00  0.74505805969E-08  0.10566000000E+00  0.10566000000E+00 0.  1.
     999900   -1    0    0    0    0 -0.00000000000E+00 -0.00000000000E+00 -0.74505805969E-08  0.93827000000E+00  0.93827000000E+00 0. -1.
     999902    2    1    2    0    0 -0.17275872912E-01  0.13159057582E-01 -0.10371961153E-01  0.10198635470E+01  0.10195795508E+01 0.  0.
     999903    2    3    3    0    0 -0.13413389176E+00  0.51340994807E-01 -0.91947282813E-01  0.17192888561E+00  0.21850405576E-01 0.  0.
         14    1    1    2    0    0  0.17275872912E-01 -0.13159057582E-01  0.10371961153E-01  0.24066452989E-01  0.00000000000E+00 0.  1.
     999901    1    3    3    0    0  0.11685801885E+00 -0.38181937225E-01  0.81575321660E-01  0.84793466140E+00  0.83500000000E+00 0.  1.
        -11    1    4    4    0    0 -0.78856351150E-01  0.25105918142E-01 -0.41264285927E-01  0.92475043425E-01  0.51100000000E-03 0. -1.
         11    1    4    4    0    0 -0.55277540611E-01  0.26235076665E-01 -0.50682996886E-01  0.79453842186E-01  0.51100000000E-03 0.  1.
</event>
<event>
 8    1  0.5716970E+005  0.1043930E+01  0.7957747E-01            NaN
         13   -1    0    0    0    0  0.00000000000E+00  0.00000000000E+00  0.74505805969E-08  0.10566000000E+00  0.10566000000E+00 0. -1.
     999900   -1    0    0    0    0 -0.00000000000E+00 -0.00000000000E+00 -0.74505805969E-08  0.93827000000E+00  0.93827000000E+00 0.  1.
     999902    2    1    2    0    0  0.85758438152E-02  0.17891648952E-01  0.62100884141E-02  0.10231400650E+01  0.10229288202E+01 0.  0.
     999903    2    3    3    0    0  0.83146509518E-01 -0.12116189542E+00 -0.80858372733E-01  0.16891375464E+00  0.20005827087E-01 0.  0.
         14    1    1    2    0    0 -0.85758438152E-02 -0.17891648952E-01 -0.62100884141E-02  0.20789935004E-01  0.00000000000E+00 0.  1.
     999901    1    3    3    0    0 -0.74570665703E-01  0.13905354437E+00  0.87068461147E-01  0.85422631036E+00  0.83500000000E+00 0. -1.
        -11    1    4    4    0    0  0.22743907620E-01 -0.25038854456E-01 -0.26872248255E-01  0.43204263836E-01  0.51100000000E-03 0. -1.
         11    1    4    4    0    0  0.60402601898E-01 -0.96123040963E-01 -0.53986124479E-01  0.12570949080E+00  0.51100000000E-03 0.  1.
</event>
<event>
 8    1  0.5716970E+005  0.1043930E+01  0.7957747E-01            NaN
         13   -1    0    0    0    0  0.00000000000E+00  0.00000000000E+00  0.74505805969E-08  0.10566000000E+00  0.10566000000E+00 0.  1.
     999900   -1    0    0    0    0 -0.00000000000E+00 -0.00000000000E+00 -0.74505805969E-08  0.93827000000E+00  0.93827000000E+00 0.  1.
     999902    2    1    2    0    0 -0.19914879783E-01 -0.13575981281E-02 -0.12311454079E-01  0.10204775500E+01  0.10202080242E+01 0.  0.
     999903    2    3    3    0    0  0.15467801696E+00 -0.55125843697E-01 -0.10478295801E-01  0.16572491661E+00  0.19768806911E-01 0.  0.
         14    1    1    2    0    0  0.19914879783E-01  0.13575981281E-02  0.12311454079E-01  0.23452449999E-01  0.00000000000E+00 0.  1.
     999901    1    3    3    0    0 -0.17459289674E+00  0.53768245569E-01 -0.18331582776E-02  0.85475263339E+00  0.83500000000E+00 0.  1.
        -11    1    4    4    0    0  0.26825906441E-01 -0.49326115600E-02  0.41543155572E-02  0.27594915690E-01  0.51100000000E-03 0. -1.
         11    1    4    4    0    0  0.12785211052E+00 -0.50193232137E-01 -0.14632611358E-01  0.13813000092E+00  0.51100000000E-03 0.  1.
</event>
<event>
 8    1  0.5716970E+005  0.1043930E+01  0.7957747E-01            NaN
         13   -1    0    0    0    0  0.00000000000E+00  0.00000000000E+00  0.74505805969E-08  0.10566000000E+00  0.10566000000E+00 0. -1.
     999900   -1    0    0    0    0 -0.00000000000E+00 -0.00000000000E+00 -0.74505805969E-08  0.93827000000E+00  0.93827000000E+00 0.  1.
     999902    2    1    2    0    0 -0.96567684315E-02  0.46506924885E-02  0.20595470297E-01  0.10207124309E+01  0.10204483383E+01 0.  0.
     999903    2    3    3    0    0  0.36435120087E-01 -0.47967107937E-01 -0.15240687388E+00  0.16511444927E+00  0.20163450419E-01 0.  0.
         14    1    1    2    0    0  0.96567684315E-02 -0.46506924885E-02 -0.20595470297E-01  0.23217569078E-01  0.00000000000E+00 0.  1.
     999901    1    3    3    0    0 -0.46091888518E-01  0.52617800425E-01  0.17300234418E+00  0.85559798165E+00  0.83500000000E+00 0. -1.
        -11    1    4    4    0    0  0.23558106704E-01 -0.21013927592E-01 -0.57262285077E-01  0.65389601295E-01  0.51100000000E-03 0. -1.
         11    1    4    4    0    0  0.12877013382E-01 -0.26953180345E-01 -0.95144588806E-01  0.99724847978E-01  0.51100000000E-03 0.  1.
</event>
<event>
 8    1  0.5716970E+005  0.1043930E+01  0.7957747E-01            NaN
         13   -1    0    0    0    0  0.00000000000E+00  0.00000000000E+00  0.74505805969E-08  0.10566000000E+00  0.10566000000E+00 0. -1.
     999900   -1    0    0    0    0 -0.00000000000E+00 -0.00000000000E+00 -0.74505805969E-08  0.93827000000E+00  0.93827000000E+00 0. -1.
     999902    2    1    2    0    0  0.17140403489E-01 -0.13939199481E-01  0.89807317883E-02  0.10200815565E+01  0.10198027425E+01 0.  0.
     999903    2    3    3    0    0  0.58953829070E-01  0.46071570790E-01 -0.14823972617E+00  0.16726684772E+00  0.20125564187E-01 0.  0.
         14    1    1    2    0    0 -0.17140403489E-01  0.13939199481E-01 -0.89807317883E-02  0.23848443500E-01  0.00000000000E+00 0. -1.
     999901    1    3    3    0    0 -0.41813425581E-01 -0.60010770271E-01  0.15722045796E+00  0.85281470878E+00  0.83500000000E+00 0.  1.
        -11    1    4    4    0    0  0.24763805310E-01  0.28737667718E-01 -0.88436954896E-01  0.96231261612E-01  0.51100000000E-03 0. -1.
         11    1    4    4    0    0  0.34190023760E-01  0.17333903072E-01 -0.59802771277E-01  0.71035586109E-01  0.51100000000E-03 0.  1.
</event>
<event>
 8    1  0.5764123E+005  0.1043930E+01  0.7957747E-01            NaN
         13   -1    0    0    0    0  0.00000000000E+00  0.00000000000E+00  0.74505805969E-08  0.10566000000E+00  0.10566000000E+00 0.  1.
     999900   -1    0    0    0    0 -0.00000000000E+00 -0.00000000000E+00 -0.74505805969E-08  0.93827000000E+00  0.93827000000E+00 0.  1.
     999902    2    1    2    0    0 -0.25028655720E-01 -0.34907076880E-02 -0.33539327239E-02  0.10184375009E+01  0.10181183996E+01 0.  0.
     999903    2    3    3    0    0 -0.14263042067E+00 -0.88540426999E-01  0.21581775254E-01  0.17055164805E+00  0.20958232697E-01 0.  0.
         14    1    1    2    0    0  0.25028655720E-01  0.34907076880E-02  0.33539327239E-02  0.25492499132E-01  0.00000000000E+00 0.  1.
     999901    1    3    3    0    0  0.11760176495E+00  0.85049719311E-01 -0.24935707978E-01  0.84788585282E+00  0.83500000000E+00 0. -1.
        -11    1    4    4    0    0 -0.49311207988E-01 -0.20851243994E-01  0.12001681849E-01  0.54869582626E-01  0.51100000000E-03 0. -1.
         11    1    4    4    0    0 -0.93319212677E-01 -0.67689183004E-01  0.95800934048E-02  0.11568206543E+00  0.51100000000E-03 0.  1.
</event>
<event>
 8    1  0.5716970E+005  0.1043930E+01  0.7957747E-01            NaN
         13   -1    0    0    0    0  0.00000000000E+00  0.00000000000E+00  0.74505805969E-08  0.10566000000E+00  0.10566000000E+00 0.  1.
     999900   -1    0    0    0    0 -0.00000000000E+00 -0.00000000000E+00 -0.74505805969E-08  0.93827000000E+00  0.93827000000E+00 0.  1.
     999902    2    1    2    0    0 -0.50084590018E-02  0.20770698644E-01 -0.10257021572E-01  0.10202295132E+01  0.10199541884E+01 0.  0.
     999903    2    3    3    0    0 -0.15357123594E-01  0.14712440157E+00  0.82482291453E-01  0.17058374389E+00  0.20348329011E-01 0.  0.
         14    1    1    2    0    0  0.50084590018E-02 -0.20770698644E-01  0.10257021572E-01  0.23700486815E-01  0.00000000000E+00 0. -1.
     999901    1    3    3    0    0  0.10348664592E-01 -0.12635370293E+00 -0.92739313024E-01  0.84964576930E+00  0.83500000000E+00 0.  1.
        -11    1    4    4    0    0 -0.69136706927E-03  0.51033339945E-01  0.18884280949E-01  0.54422026444E-01  0.51100000000E-03 0.  1.
         11    1    4    4    0    0 -0.14665756524E-01  0.96091061625E-01  0.63598010504E-01  0.11616171744E+00  0.51100000000E-03 0. -1.
</event>
<event>
 8    1  0.5716972E+005  0.1043930E+01  0.7957747E-01            NaN
         13   -1    0    0    0    0  0.00000000000E+00  0.00000000000E+00  0.74505805969E-08  0.10566000000E+00  0.10566000000E+00 0.  1.
     999900   -1    0    0    0    0 -0.00000000000E+00 -0.00000000000E+00 -0.74505805969E-08  0.93827000000E+00  0.93827000000E+00 0. -1.
     999902    2    1    2    0    0  0.13832986608E-01  0.26798221222E-02  0.34571050162E-01  0.10065978359E+01  0.10059053200E+01 0.  0.
     999903    2    3    3    0    0  0.78619865713E-01  0.11892540009E+00  0.70438301280E-01  0.16029893258E+00  0.20244985256E-01 0.  0.
         14    1    1    2    0    0 -0.13832986608E-01 -0.26798221222E-02 -0.34571050162E-01  0.37332164074E-01  0.00000000000E+00 0. -1.
     999901    1    3    3    0    0 -0.64786879105E-01 -0.11624557797E+00 -0.35867251117E-01  0.84629890335E+00  0.83500000000E+00 0. -1.
        -11    1    4    4    0    0  0.29228563899E-01  0.28346306739E-01  0.22683223624E-01  0.46611284130E-01  0.51100000000E-03 0.  1.
         11    1    4    4    0    0  0.49391301815E-01  0.90579093351E-01  0.47755077656E-01  0.11368764845E+00  0.51100000000E-03 0. -1.
</event>
<event>
 8    1  0.5716970E+005  0.1043930E+01  0.7957747E-01            NaN
         13   -1    0    0    0    0  0.00000000000E+00  0.00000000000E+00  0.74505805969E-08  0.10566000000E+00  0.10566000000E+00 0.  1.
     999900   -1    0    0    0    0 -0.00000000000E+00 -0.00000000000E+00 -0.74505805969E-08  0.93827000000E+00  0.93827000000E+00 0. -1.
     999902    2    1    2    0    0 -0.19974571969E-01 -0.41162970772E-02  0.10792672478E-01  0.10208560058E+01  0.10205952065E+01 0.  0.
     999903    2    3    3    0    0 -0.68445613503E-01 -0.10999399129E+00 -0.10743280339E+00  0.16952658010E+00  0.20346350735E-01 0.  0.
         14    1    1    2    0    0  0.19974571969E-01  0.41162970772E-02 -0.10792672478E-01  0.23073994154E-01  0.00000000000E+00 0. -1.
     999901    1    3    3    0    0  0.48471041534E-01  0.10587769421E+00  0.11822547587E+00  0.85132942575E+00  0.83500000000E+00 0.  1.
        -11    1    4    4    0    0 -0.62700719048E-02 -0.47929543020E-02 -0.20726128599E-02  0.81757603744E-02  0.51100000000E-03 0. -1.
         11    1    4    4    0    0 -0.62175541598E-01 -0.10520103699E+00 -0.10536019053E+00  0.16135081972E+00  0.51100000000E-03 0.  1.
</event>
<event>
 8    1  0.5716970E+005  0.1043930E+01  0.7957747E-01            NaN
         13   -1    0    0    0    0  0.00000000000E+00  0.00000000000E+00  0.74505805969E-08  0.10566000000E+00  0.10566000000E+00 0. -1.
     999900   -1    0    0    0    0 -0.00000000000E+00 -0.00000000000E+00 -0.74505805969E-08  0.93827000000E+00  0.93827000000E+00 0. -1.
     999902    2    1    2    0    0 -0.17268804900E-01 -0.11002090744E-01 -0.80147011076E-03  0.10234385389E+01  0.10232333766E+01 0.  0.
     999903    2    3    3    0    0  0.13763946000E+00  0.41758475417E-01 -0.85272072391E-01  0.16837097986E+00  0.19724840015E-01 0.  0.
         14    1    1    2    0    0  0.17268804900E-01  0.11002090744E-01  0.80147011076E-03  0.20491461094E-01  0.00000000000E+00 0.  1.
     999901    1    3    3    0    0 -0.15490826490E+00 -0.52760566161E-01  0.84470602280E-01  0.85506755904E+00  0.83500000000E+00 0.  1.
        -11    1    4    4    0    0  0.42565015843E-01  0.19890036023E-01 -0.20466783449E-01  0.51249823926E-01  0.51100000000E-03 0. -1.
         11    1    4    4    0    0  0.95074444153E-01  0.21868439394E-01 -0.64805288942E-01  0.11712115594E+00  0.51100000000E-03 0.  1.
</event>
<event>
 8    1  0.5716970E+005  0.1043930E+01  0.7957747E-01            NaN
         13   -1    0    0    0    0  0.00000000000E+00  0.00000000000E+00  0.74505805969E-08  0.10566000000E+00  0.10566000000E+00 0.  1.
     999900   -1    0    0    0    0 -0.00000000000E+00 -0.00000000000E+00 -0.74505805969E-08  0.93827000000E+00  0.93827000000E+00 0.  1.
     999902    2    1    2    0    0 -0.22697890688E-02  0.18909328918E-01 -0.13694276121E-01  0.10204726374E+01  0.10202029973E+01 0.  0.
     999903    2    3    3    0    0  0.62001192248E-01 -0.13563543827E+00  0.67675534423E-01  0.16498395238E+00  0.19965135267E-01 0.  0.
         14    1    1    2    0    0  0.22697890688E-02 -0.18909328918E-01  0.13694276121E-01  0.23457362619E-01  0.00000000000E+00 0.  1.
     999901    1    3    3    0    0 -0.64270981316E-01  0.15454476719E+00 -0.81369810544E-01  0.85548868501E+00  0.83500000000E+00 0.  1.
        -11    1    4    4    0    0  0.50003486104E-01 -0.11835766014E+00  0.51419606378E-01  0.13839480257E+00  0.51100000000E-03 0. -1.
         11    1    4    4    0    0  0.11997706143E-01 -0.17277778132E-01  0.16255928045E-01  0.26589149807E-01  0.51100000000E-03 0.  1.
</event>
<event>
 8    1  0.5716970E+005  0.1043930E+01  0.7957747E-01            NaN
         13   -1    0    0    0    0  0.00000000000E+00  0.00000000000E+00  0.74505805969E-08  0.10566000000E+00  0.10566000000E+00 0. -1.
     999900   -1    0    0    0    0 -0.00000000000E+00 -0.00000000000E+00 -0.74505805969E-08  0.93827000000E+00  0.93827000000E+00 0.  1.
     999902    2    1    2    0    0 -0.22578959208E-01 -0.10547595898E-01 -0.11784138920E-02  0.10189810554E+01  0.10186755820E+01 0.  0.
     999903    2    3    3    0    0 -0.72780741378E-01  0.14902425797E+00 -0.97987494206E-02  0.16734574279E+00  0.20082737852E-01 0.  0.
         14    1    1    2    0    0  0.22578959208E-01  0.10547595898E-01  0.11784138920E-02  0.24948944616E-01  0.00000000000E+00 0. -1.
     999901    1    3    3    0    0  0.50201782170E-01 -0.15957185387E+00  0.86203355287E-02  0.85163531260E+00  0.83500000000E+00 0. -1.
        -11    1    4    4    0    0 -0.29011695461E-01  0.38868937254E-01 -0.40258373133E-02  0.48671770503E-01  0.51100000000E-03 0. -1.
         11    1    4    4    0    0 -0.43769045917E-01  0.11015532072E+00 -0.57729121073E-02  0.11867397228E+00  0.51100000000E-03 0.  1.
</event>
<event>
 8    1  0.5716970E+005  0.1043930E+01  0.7957747E-01            NaN
         13   -1    0    0    0    0  0.00000000000E+00  0.00000000000E+00  0.74505805969E-08  0.10566000000E+00  0.10566000000E+00 0. -1.
     999900   -1    0    0    0    0 -0.00000000000E+00 -0.00000000000E+00 -0.74505805969E-08  0.93827000000E+00  0.93827000000E+00 0. -1.
     999902    2    1    2    0    0 -0.20930532246E-01  0.26779849846E-02 -0.10155101365E-01  0.10205123813E+01  0.10202436647E+01 0.  0.
     999903    2    3    3    0    0 -0.15785984522E+00 -0.52249436960E-01 -0.39704499828E-01  0.17206389998E+00  0.19488560095E-01 0.  0.
         14    1    1    2    0    0  0.20930532246E-01 -0.26779849846E-02  0.10155101365E-01  0.23417618739E-01  0.00000000000E+00 0.  1.
     999901    1    3    3    0    0  0.13692931298E+00  0.54927421944E-01  0.29549398463E-01  0.84844848128E+00  0.83500000000E+00 0. -1.
        -11    1    4    4    0    0 -0.91736616053E-01 -0.39083830995E-01 -0.28559360170E-01  0.10372584415E+00  0.51100000000E-03 0.  1.
         11    1    4    4    0    0 -0.66123229169E-01 -0.13165605965E-01 -0.11145139658E-01  0.68338055834E-01  0.51100000000E-03 0. -1.
</event>
<event>
 8    1  0.5716970E+005  0.1043930E+01  0.7957747E-01            NaN
         13   -1    0    0    0    0  0.00000000000E+00  0.00000000000E+00  0.74505805969E-08  0.10566000000E+00  0.10566000000E+00 0.  1.
     999900   -1    0    0    0    0 -0.00000000000E+00 -0.00000000000E+00 -0.74505805969E-08  0.93827000000E+00  0.93827000000E+00 0. -1.
     999902    2    1    2    0    0  0.41851238902E-03  0.18978034886E-01 -0.14037746294E-01  0.10203206950E+01  0.10200475094E+01 0.  0.
     999903    2    3    3    0    0  0.16479891206E+00 -0.93379813817E-02  0.24431319758E-01  0.16795482192E+00  0.19132524940E-01 0.  0.
         14    1    1    2    0    0 -0.41851238902E-03 -0.18978034886E-01  0.14037746294E-01  0.23609304983E-01  0.00000000000E+00 0.  1.
     999901    1    3    3    0    0 -0.16438039967E+00  0.28316016268E-01 -0.38469066052E-01  0.85236587309E+00  0.83500000000E+00 0.  1.
        -11    1    4    4    0    0  0.39846993085E-01  0.12413708972E-02 -0.15162432195E-02  0.39898420697E-01  0.51100000000E-03 0. -1.
         11    1    4    4    0    0  0.12495191897E+00 -0.10579352279E-01  0.25947562978E-01  0.12805640123E+00  0.51100000000E-03 0.  1.
</event>
<event>
 8    1  0.5716970E+005  0.1043930E+01  0.7957747E-01            NaN
         13   -1    0    0    0    0  0.00000000000E+00  0.00000000000E+00  0.74505805969E-08  0.10566000000E+00  0.10566000000E+00 0. -1.
     999900   -1    0    0    0    0 -0.00000000000E+00 -0.00000000000E+00 -0.74505805969E-08  0.93827000000E+00  0.93827000000E+00 0.  1.
     999902    2    1    2    0    0 -0.11962718919E-01  0.18169836960E-01  0.14293386803E-01  0.10179001993E+01  0.10175673271E+01 0.  0.
     999903    2    3    3    0    0 -0.14451953868E+00 -0.71884112260E-01 -0.34436134398E-01  0.16626612853E+00  0.20133442052E-01 0.  0.
         14    1    1    2    0    0  0.11962718919E-01 -0.18169836960E-01 -0.14293386803E-01  0.26029800718E-01  0.00000000000E+00 0.  1.
     999901    1    3    3    0    0  0.13255681976E+00  0.90053949220E-01  0.48729521201E-01  0.85163407075E+00  0.83500000000E+00 0. -1.
        -11    1    4    4    0    0 -0.69911062112E-01 -0.23603336689E-01 -0.15210103187E-01  0.75341107427E-01  0.51100000000E-03 0.  1.
         11    1    4    4    0    0 -0.74608476564E-01 -0.48280775571E-01 -0.19226031211E-01  0.90925021100E-01  0.51100000000E-03 0. -1.
</event>
<event>
 8    1  0.5716970E+005  0.1043930E+01  0.7957747E-01            NaN
         13   -1    0    0    0    0  0.00000000000E+00  0.00000000000E+00  0.74505805969E-08  0.10566000000E+00  0.10566000000E+00 0. -1.
     999900   -1    0    0    0    0 -0.00000000000E+00 -0.00000000000E+00 -0.74505805969E-08  0.93827000000E+00  0.93827000000E+00 0.  1.
     999902    2    1    2    0    0 -0.21559085382E-02 -0.66710241595E-02 -0.21382806942E-01  0.10214272238E+01  0.10211793175E+01 0.  0.
     999903    2    3    3    0    0  0.81025967497E-01 -0.10982766078E+00  0.95731828930E-01  0.16790431599E+00  0.19998844374E-01 0.  0.
         14    1    1    2    0    0  0.21559085382E-02  0.66710241595E-02  0.21382806942E-01  0.22502776222E-01  0.00000000000E+00 0. -1.
     999901    1    3    3    0    0 -0.83181876035E-01  0.10315663662E+00 -0.11711463587E+00  0.85352290779E+00  0.83500000000E+00 0. -1.
        -11    1    4    4    0    0  0.26324354532E-01 -0.48240478122E-01  0.30682417618E-01  0.62942729865E-01  0.51100000000E-03 0. -1.
         11    1    4    4    0    0  0.54701612965E-01 -0.61587182661E-01  0.65049411313E-01  0.10496158613E+00  0.51100000000E-03 0.  1.
</event>
<event>
 8    1  0.5716970E+005  0.1043930E+01  0.7957747E-01            NaN
         13   -1    0    0    0    0  0.00000000000E+00  0.00000000000E+00  0.74505805969E-08  0.10566000000E+00  0.10566000000E+00 0.  1.
     999900   -1    0    0    0    0 -0.00000000000E+00 -0.00000000000E+00 -0.74505805969E-08  0.93827000000E+00  0.93827000000E+00 0.  1.
     999902    2    1    2    0    0 -0.46343332085E-02  0.11205324587E-01 -0.19833736678E-01  0.10206832055E+01  0.10204184399E+01 0.  0.
     999903    2    3    3    0    0  0.92309616324E-01  0.60322438847E-01  0.12252543086E+00  0.16669154698E+00  0.24773549019E-01 0.  0.
         14    1    1    2    0    0  0.46343332085E-02 -0.11205324587E-01  0.19833736678E-01  0.23246794489E-01  0.00000000000E+00 0.  1.
     999901    1    3    3    0    0 -0.96943949533E-01 -0.49117114260E-01 -0.14235916754E+00  0.85399165853E+00  0.83500000000E+00 0.  1.
        -11    1    4    4    0    0  0.61401798111E-01  0.30128236414E-01  0.87545618610E-01  0.11109630012E+00  0.51100000000E-03 0. -1.
         11    1    4    4    0    0  0.30907818213E-01  0.30194202432E-01  0.34979812253E-01  0.55595246860E-01  0.51100000000E-03 0.  1.
</event>
<event>
 8    1  0.5716970E+005  0.1043930E+01  0.7957747E-01            NaN
         13   -1    0    0    0    0  0.00000000000E+00  0.00000000000E+00  0.74505805969E-08  0.10566000000E+00  0.10566000000E+00 0.  1.
     999900   -1    0    0    0    0 -0.00000000000E+00 -0.00000000000E+00 -0.74505805969E-08  0.93827000000E+00  0.93827000000E+00 0. -1.
     999902    2    1    2    0    0 -0.52270487029E-02 -0.61782531078E-02 -0.28482068111E-01  0.10143205243E+01  0.10138882606E+01 0.  0.
     999903    2    3    3    0    0 -0.37306658398E-01 -0.12872656521E+00 -0.97444166784E-01  0.16695521862E+00  0.20405000158E-01 0.  0.
         14    1    1    2    0    0  0.52270487029E-02  0.61782531078E-02  0.28482068111E-01  0.29609475739E-01  0.00000000000E+00 0.  1.
     999901    1    3    3    0    0  0.32079609695E-01  0.12254831210E+00  0.68962098673E-01  0.84736530564E+00  0.83500000000E+00 0. -1.
        -11    1    4    4    0    0 -0.72259903891E-02 -0.24542674373E-01 -0.29207775960E-01  0.38831856768E-01  0.51100000000E-03 0. -1.
         11    1    4    4    0    0 -0.30080668009E-01 -0.10418389084E+00 -0.68236390824E-01  0.12812336185E+00  0.51100000000E-03 0.  1.
</event>
<event>
 8    1  0.5716970E+005  0.1043930E+01  0.7957747E-01            NaN
         13   -1    0    0    0    0  0.00000000000E+00  0.00000000000E+00  0.74505805969E-08  0.10566000000E+00  0.10566000000E+00 0. -1.
     999900   -1    0    0    0    0 -0.00000000000E+00 -0.00000000000E+00 -0.74505805969E-08  0.93827000000E+00  0.93827000000E+00 0. -1.
     999902    2    1    2    0    0  0.77307673362E-02  0.38043788105E-02 -0.21637112072E-01  0.10206404598E+01  0.10203747084E+01 0.  0.
     999903    2    3    3    0    0  0.12227653412E-01  0.12158715922E+00 -0.11949738307E+00  0.17170310174E+00  0.16412732616E-01 0.  0.
         14    1    1    2    0    0 -0.77307673362E-02 -0.38043788105E-02  0.21637112072E-01  0.23289540153E-01  0.00000000000E+00 0. -1.
     999901    1    3    3    0    0 -0.44968860760E-02 -0.11778278041E+00  0.97860271000E-01  0.84893735810E+00  0.83500000000E+00 0.  1.
        -11    1    4    4    0    0  0.53291836211E-02  0.10627150937E+00 -0.10093399634E+00  0.14666276501E+00  0.51100000000E-03 0. -1.
         11    1    4    4    0    0  0.68984697912E-02  0.15315649849E-01 -0.18563386735E-01  0.25040336735E-01  0.51100000000E-03 0.  1.
</event>
<event>
 8    1  0.5716970E+005  0.1043930E+01  0.7957747E-01            NaN
         13   -1    0    0    0    0  0.00000000000E+00  0.00000000000E+00  0.74505805969E-08  0.10566000000E+00  0.10566000000E+00 0.  1.
     999900   -1    0    0    0    0 -0.00000000000E+00 -0.00000000000E+00 -0.74505805969E-08  0.93827000000E+00  0.93827000000E+00 0. -1.
     999902    2    1    2    0    0 -0.40473843155E-02 -0.26631776295E-02 -0.22909801360E-01  0.10205134923E+01  0.10202448016E+01 0.  0.
     999903    2    3    3    0    0  0.15499437127E+00  0.10877064467E-01 -0.63717213639E-01  0.16941545853E+00  0.22364002755E-01 0.  0.
         14    1    1    2    0    0  0.40473843155E-02  0.26631776295E-02  0.22909801360E-01  0.23416507708E-01  0.00000000000E+00 0.  1.
     999901    1    3    3    0    0 -0.15904175558E+00 -0.13540242096E-01  0.40807412279E-01  0.85109803376E+00  0.83500000000E+00 0.  1.
        -11    1    4    4    0    0  0.22417496638E-02  0.29248546499E-02 -0.32397403656E-02  0.49332803401E-02  0.51100000000E-03 0.  1.
         11    1    4    4    0    0  0.15275262160E+00  0.79522098171E-02 -0.60477473274E-01  0.16448217819E+00  0.51100000000E-03 0. -1.
</event>
<event>
 8    1  0.5716970E+005  0.1043930E+01  0.7957747E-01            NaN
         13   -1    0    0    0    0  0.00000000000E+00  0.00000000000E+00  0.74505805969E-08  0.10566000000E+00  0.10566000000E+00 0.  1.
     999900   -1    0    0    0    0 -0.00000000000E+00 -0.00000000000E+00 -0.74505805969E-08  0.93827000000E+00  0.93827000000E+00 0. -1.
     999902    2    1    2    0    0  0.51340659632E-02  0.55843864682E-02 -0.21870805651E-01  0.10207810012E+01  0.10205184840E+01 0.  0.
     999903    2    3    3    0    0 -0.61042288121E-01 -0.10181382284E+00  0.11362162033E+00  0.16550509092E+00  0.19744544912E-01 0.  0.
         14    1    1    2    0    0 -0.51340659632E-02 -0.55843864682E-02  0.21870805651E-01  0.23148998798E-01  0.00000000000E+00 0.  1.
     999901    1    3    3    0    0  0.66176354084E-01  0.10739820931E+00 -0.13549242598E+00  0.85527591028E+00  0.83500000000E+00 0. -1.
        -11    1    4    4    0    0 -0.40981628483E-01 -0.78239139392E-01  0.74025993664E-01  0.11524307209E+00  0.51100000000E-03 0. -1.
         11    1    4    4    0    0 -0.20060659638E-01 -0.23574683451E-01  0.39595626669E-01  0.50262018834E-01  0.51100000000E-03 0.  1.
</event>
<event>
 8    1  0.5716970E+005  0.1043930E+01  0.7957747E-01            NaN
         13   -1    0    0    0    0  0.00000000000E+00  0.00000000000E+00  0.74505805969E-08  0.10566000000E+00  0.10566000000E+00 0. -1.
     999900   -1    0    0    0    0 -0.00000000000E+00 -0.00000000000E+00 -0.74505805969E-08  0.93827000000E+00  0.93827000000E+00 0. -1.
     999902    2    1    2    0    0  0.10537834215E-01  0.11037522987E-01  0.15927464436E-01  0.10218719632E+01  0.10216338641E+01 0.  0.
     999903    2    3    3    0    0 -0.11262591485E-01 -0.16358862555E+00  0.32760804328E-01  0.16836278831E+00  0.19613103046E-01 0.  0.
         14    1    1    2    0    0 -0.10537834215E-01 -0.11037522987E-01 -0.15927464436E-01  0.22058036789E-01  0.00000000000E+00 0.  1.
     999901    1    3    3    0    0  0.21800425700E-01  0.17462614853E+00 -0.16833339892E-01  0.85350917490E+00  0.83500000000E+00 0. -1.
        -11    1    4    4    0    0  0.12291090515E-02 -0.69079959345E-01  0.60373841758E-02  0.69356056843E-01  0.51100000000E-03 0. -1.
         11    1    4    4    0    0 -0.12491700536E-01 -0.94508666202E-01  0.26723420152E-01  0.99006731464E-01  0.51100000000E-03 0.  1.
</event>
<event>
 8    1  0.5716970E+005  0.1043930E+01  0.7957747E-01            NaN
         13   -1    0    0    0    0  0.00000000000E+00  0.00000000000E+00  0.74505805969E-08  0.10566000000E+00  0.10566000000E+00 0.  1.
     999900   -1    0    0    0    0 -0.00000000000E+00 -0.00000000000E+00 -0.74505805969E-08  0.93827000000E+00  0.93827000000E+00 0.  1.
     999902    2    1    2    0    0 -0.10255075548E-01 -0.20286001044E-01 -0.27847229708E-02  0.10210292774E+01  0.10207724243E+01 0.  0.
     999903    2    3    3    0    0  0.70424301547E-01  0.11031766043E+00  0.99849307547E-01  0.16585372673E+00  0.20199158407E-01 0.  0.
         14    1    1    2    0    0  0.10255075548E-01  0.20286001044E-01  0.27847229708E-02  0.22900722584E-01  0.00000000000E+00 0.  1.
     999901    1    3    3    0    0 -0.80679377095E-01 -0.13060366147E+00 -0.10263403052E+00  0.85517555069E+00  0.83500000000E+00 0.  1.
        -11    1    4    4    0    0  0.14089871064E-01  0.36585359516E-01  0.35894727135E-01  0.53157365949E-01  0.51100000000E-03 0. -1.
         11    1    4    4    0    0  0.56334430482E-01  0.73732300913E-01  0.63954580412E-01  0.11269636078E+00  0.51100000000E-03 0.  1.
</event>
<event>
 8    1  0.5716970E+005  0.1043930E+01  0.7957747E-01            NaN
         13   -1    0    0    0    0  0.00000000000E+00  0.00000000000E+00  0.74505805969E-08  0.10566000000E+00  0.10566000000E+00 0. -1.
     999900   -1    0    0    0    0 -0.00000000000E+00 -0.00000000000E+00 -0.74505805969E-08  0.93827000000E+00  0.93827000000E+00 0.  1.
     999902    2    1    2    0    0  0.19241301582E-01  0.87440332039E-02 -0.78584550702E-02  0.10213813610E+01  0.10211324319E+01 0.  0.
     999903    2    3    3    0    0 -0.30992123359E-02  0.73871722266E-01  0.15011148953E+00  0.16878519763E+00  0.22098578795E-01 0.  0.
         14    1    1    2    0    0 -0.19241301582E-01 -0.87440332039E-02  0.78584550702E-02  0.22548638969E-01  0.00000000000E+00 0. -1.
     999901    1    3    3    0    0  0.22340513918E-01 -0.65127689062E-01 -0.15796994460E+00  0.85259616340E+00  0.83500000000E+00 0.  1.
        -11    1    4    4    0    0 -0.83053961805E-02  0.59224861185E-01  0.10220673599E+00  0.11841892497E+00  0.51100000000E-03 0.  1.
         11    1    4    4    0    0  0.52061838446E-02  0.14646861081E-01  0.47904753536E-01  0.50366272664E-01  0.51100000000E-03 0. -1.
</event>
<event>
 8    1  0.5716970E+005  0.1043930E+01  0.7957747E-01            NaN
         13   -1    0    0    0    0  0.00000000000E+00  0.00000000000E+00  0.74505805969E-08  0.10566000000E+00  0.10566000000E+00 0. -1.
     999900   -1    0    0    0    0 -0.00000000000E+00 -0.00000000000E+00 -0.74505805969E-08  0.93827000000E+00  0.93827000000E+00 0.  1.
     999902    2    1    2    0    0 -0.48665170696E-02 -0.15706628508E-01  0.19122919500E-01  0.10187096269E+01  0.10183973865E+01 0.  0.
     999903    2    3    3    0    0  0.34035266347E-01  0.15839867716E+00 -0.16049572473E-01  0.16414066517E+00  0.20881305180E-01 0.  0.
         14    1    1    2    0    0  0.48665170696E-02  0.15706628508E-01 -0.19122919500E-01  0.25220373068E-01  0.00000000000E+00 0.  1.
     999901    1    3    3    0    0 -0.38901783417E-01 -0.17410530566E+00  0.35172491973E-01  0.85456896176E+00  0.83500000000E+00 0. -1.
        -11    1    4    4    0    0  0.23743501448E-01  0.76551129858E-01 -0.15553149789E-01  0.81645519981E-01  0.51100000000E-03 0. -1.
         11    1    4    4    0    0  0.10291764899E-01  0.81847547298E-01 -0.49642268323E-03  0.82495145190E-01  0.51100000000E-03 0.  1.
</event>
<event>
 8    1  0.5716970E+005  0.1043930E+01  0.7957747E-01            NaN
         13   -1    0    0    0    0  0.00000000000E+00  0.00000000000E+00  0.74505805969E-08  0.10566000000E+00  0.10566000000E+00 0. -1.
     999900   -1    0    0    0    0 -0.00000000000E+00 -0.00000000000E+00 -0.74505805969E-08  0.93827000000E+00  0.93827000000E+00 0.  1.
     999902    2    1    2    0    0 -0.10459536436E-01 -0.19982732167E-01 -0.68877809773E-02  0.10203471034E+01  0.10200745357E+01 0.  0.
     999903    2    3    3    0    0 -0.11250689476E+00  0.66600903204E-02  0.12374371853E+00  0.16863524363E+00  0.20571323409E-01 0.  0.
         14    1    1    2    0    0  0.10459536436E-01  0.19982732167E-01  0.68877809773E-02  0.23582896644E-01  0.00000000000E+00 0. -1.
     999901    1    3    3    0    0  0.10204735833E+00 -0.26642822487E-01 -0.13063149951E+00  0.85171185972E+00  0.83500000000E+00 0.  1.
        -11    1    4    4    0    0 -0.33746969270E-01 -0.46023351537E-02  0.47393349649E-01  0.58364630863E-01  0.51100000000E-03 0.  1.
         11    1    4    4    0    0 -0.78759925492E-01  0.11262425474E-01  0.76350368882E-01  0.11027061277E+00  0.51100000000E-03 0. -1.
</event>
<event>
 8    1  0.5716970E+005  0.1043930E+01  0.7957747E-01            NaN
         13   -1    0    0    0    0  0.00000000000E+00  0.00000000000E+00  0.74505805969E-08  0.10566000000E+00  0.10566000000E+00 0. -1.
     999900   -1    0    0    0    0 -0.00000000000E+00 -0.00000000000E+00 -0.74505805969E-08  0.93827000000E+00  0.93827000000E+00 0. -1.
     999902    2    1    2    0    0 -0.31822798468E-02 -0.22167195906E-01 -0.57763891313E-02  0.10208025671E+01  0.10205405445E+01 0.  0.
     999903    2    3    3    0    0  0.53814901389E-02 -0.49032720068E-01 -0.16235983755E+00  0.17077993752E+00  0.19284764407E-01 0.  0.
         14    1    1    2    0    0  0.31822798468E-02  0.22167195906E-01  0.57763891313E-02  0.23127432862E-01  0.00000000000E+00 0. -1.
     999901    1    3    3    0    0 -0.85637699857E-02  0.26865524161E-01  0.15658344841E+00  0.85002262962E+00  0.83500000000E+00 0.  1.
        -11    1    4    4    0    0 -0.49651784536E-02 -0.29790818823E-01 -0.78255317216E-01  0.83882666128E-01  0.51100000000E-03 0. -1.
         11    1    4    4    0    0  0.10346668593E-01 -0.19241901244E-01 -0.84104520330E-01  0.86897271392E-01  0.51100000000E-03 0.  1.
</event>
<event>
 8    1  0.5716970E+005  0.1043930E+01  0.7957747E-01            NaN
         13   -1    0    0    0    0  0.00000000000E+00  0.00000000000E+00  0.74505805969E-08  0.10566000000E+00  0.10566000000E+00 0. -1.
     999900   -1    0    0    0    0 -0.00000000000E+00 -0.00000000000E+00 -0.74505805969E-08  0.93827000000E+00  0.93827000000E+00 0. -1.
     999902    2    1    2    0    0 -0.10952874131E-01 -0.15066421639E-01 -0.30719516646E-01  0.10080043655E+01  0.10073639608E+01 0.  0.
     999903    2    3    3    0    0  0.58683187926E-02 -0.11797885081E+00  0.10033632340E+00  0.15637383889E+00  0.20783486002E-01 0.  0.
         14    1    1    2    0    0  0.10952874131E-01  0.15066421639E-01  0.30719516646E-01  0.35925634521E-01  0.00000000000E+00 0. -1.
     999901    1    3    3    0    0 -0.16821192924E-01  0.10291242918E+00 -0.13105584005E+00  0.85163052659E+00  0.83500000000E+00 0. -1.
        -11    1    4    4    0    0 -0.33235271479E-02 -0.80036565426E-02  0.28913980678E-02  0.91501723777E-02  0.51100000000E-03 0. -1.
         11    1    4    4    0    0  0.91918459405E-02 -0.10997519427E+00  0.97444925333E-01  0.14722366651E+00  0.51100000000E-03 0.  1.
</event>
<event>
 8    1  0.5716970E+005  0.1043930E+01  0.7957747E-01            NaN
         13   -1    0    0    0    0  0.00000000000E+00  0.00000000000E+00  0.74505805969E-08  0.10566000000E+00  0.10566000000E+00 0. -1.
     999900   -1    0    0    0    0 -0.00000000000E+00 -0.00000000000E+00 -0.74505805969E-08  0.93827000000E+00  0.93827000000E+00 0. -1.
     999902    2    1    2    0    0 -0.17662029481E-01  0.46178007004E-02  0.15725138789E-01  0.10198353666E+01  0.10195506969E+01 0.  0.
     999903    2    3    3    0    0 -0.11885832138E+00 -0.12563577822E-01 -0.11661293074E+00  0.16820501609E+00  0.20228884641E-01 0.  0.
         14    1    1    2    0    0  0.17662029481E-01 -0.46178007004E-02 -0.15725138789E-01  0.24094633399E-01  0.00000000000E+00 0.  1.
     999901    1    3    3    0    0  0.10119629190E+00  0.17181378523E-01  0.13233806952E+00  0.85163035051E+00  0.83500000000E+00 0.  1.
        -11    1    4    4    0    0 -0.67994888410E-01  0.26331741996E-02 -0.68620412217E-01  0.96639849700E-01  0.51100000000E-03 0. -1.
         11    1    4    4    0    0 -0.50863432974E-01 -0.15196752022E-01 -0.47992518518E-01  0.71565166391E-01  0.51100000000E-03 0.  1.
</event>
<event>
 8    1  0.5716970E+005  0.1043930E+01  0.7957747E-01            NaN
         13   -1    0    0    0    0  0.00000000000E+00  0.00000000000E+00  0.74505805969E-08  0.10566000000E+00  0.10566000000E+00 0. -1.
     999900   -1    0    0    0    0 -0.00000000000E+00 -0.00000000000E+00 -0.74505805969E-08  0.93827000000E+00  0.93827000000E+00 0.  1.
     999902    2    1    2    0    0  0.10112195962E-01  0.17924070884E-01 -0.65906328850E-02  0.10223206209E+01  0.10220922104E+01 0.  0.
     999903    2    3    3    0    0 -0.29733494579E-02  0.16904732977E+00  0.29900677707E-01  0.17287015933E+00  0.20104749473E-01 0.  0.
         14    1    1    2    0    0 -0.10112195962E-01 -0.17924070884E-01  0.65906328850E-02  0.21609379122E-01  0.00000000000E+00 0. -1.
     999901    1    3    3    0    0  0.13085545420E-01 -0.15112325888E+00 -0.36491310592E-01  0.84945046155E+00  0.83500000000E+00 0.  1.
        -11    1    4    4    0    0  0.55800161422E-02  0.15627833704E-01  0.25639711654E-02  0.16798834351E-01  0.51100000000E-03 0.  1.
         11    1    4    4    0    0 -0.85533656001E-02  0.15341949606E+00  0.27336706541E-01  0.15607132498E+00  0.51100000000E-03 0. -1.
</event>
<event>
 8    1  0.5716970E+005  0.1043930E+01  0.7957747E-01            NaN
         13   -1    0    0    0    0  0.00000000000E+00  0.00000000000E+00  0.74505805969E-08  0.10566000000E+00  0.10566000000E+00 0. -1.
     999900   -1    0    0    0    0 -0.00000000000E+00 -0.00000000000E+00 -0.74505805969E-08  0.93827000000E+00  0.93827000000E+00 0.  1.
     999902    2    1    2    0    0  0.45274122865E-02 -0.21849263908E-01 -0.10943350389E-01  0.10190775411E+01  0.10187744550E+01 0.  0.
     999903    2    3    3    0    0 -0.61778359748E-02 -0.75468760697E-01  0.14792226242E+00  0.16734229133E+00  0.19716674412E-01 0.  0.
         14    1    1    2    0    0 -0.45274122865E-02  0.21849263908E-01  0.10943350389E-01  0.24852458894E-01  0.00000000000E+00 0. -1.
     999901    1    3    3    0    0  0.10705248261E-01  0.53619496789E-01 -0.15886561281E+00  0.85173524978E+00  0.83500000000E+00 0.  1.
        -11    1    4    4    0    0 -0.10778459346E-01 -0.68865988951E-01  0.12619695954E+00  0.14416876687E+00  0.51100000000E-03 0. -1.
         11    1    4    4    0    0  0.46006233710E-02 -0.66027717459E-02  0.21725302876E-01  0.23173524466E-01  0.51100000000E-03 0.  1.
</event>
<event>
 8    1  0.5716970E+005  0.1043930E+01  0.7957747E-01            NaN
         13   -1    0    0    0    0  0.00000000000E+00  0.00000000000E+00  0.74505805969E-08  0.10566000000E+00  0.10566000000E+00 0. -1.
     999900   -1    0    0    0    0 -0.00000000000E+00 -0.00000000000E+00 -0.74505805969E-08  0.93827000000E+00  0.93827000000E+00 0.  1.
     999902    2    1    2    0    0 -0.23445499950E-01  0.61183841808E-02 -0.14063897930E-02  0.10196585348E+01  0.10193696206E+01 0.  0.
     999903    2    3    3    0    0 -0.27440770920E-01 -0.78059332803E-01  0.14463218662E+00  0.16780519290E+00  0.19845856261E-01 0.  0.
         14    1    1    2    0    0  0.23445499950E-01 -0.61183841808E-02  0.14063897930E-02  0.24271465245E-01  0.00000000000E+00 0.  1.
     999901    1    3    3    0    0  0.39952709701E-02  0.84177716984E-01 -0.14603857642E+00  0.85185334185E+00  0.83500000000E+00 0.  1.
        -11    1    4    4    0    0 -0.27987785488E-02 -0.37380132338E-01  0.66217359486E-01  0.76092754407E-01  0.51100000000E-03 0. -1.
         11    1    4    4    0    0 -0.24641992371E-01 -0.40679200465E-01  0.78414827137E-01  0.91712438494E-01  0.51100000000E-03 0.  1.
</event>
<event>
 8    1  0.5716970E+005  0.1043930E+01  0.7957747E-01            NaN
         13   -1    0    0    0    0  0.00000000000E+00  0.00000000000E+00  0.74505805969E-08  0.10566000000E+00  0.10566000000E+00 0.  1.
     999900   -1    0    0    0    0 -0.00000000000E+00 -0.00000000000E+00 -0.74505805969E-08  0.93827000000E+00  0.93827000000E+00 0.  1.
     999902    2    1    2    0    0 -0.19266754666E-01 -0.84383047055E-02 -0.12748975474E-01  0.10193342850E+01  0.10190375044E+01 0.  0.
     999903    2    3    3    0    0  0.27002422173E-01  0.11670951240E-01 -0.16528591311E+00  0.16901802838E+00  0.19552977686E-01 0.  0.
         14    1    1    2    0    0  0.19266754666E-01  0.84383047055E-02  0.12748975474E-01  0.24595715019E-01  0.00000000000E+00 0.  1.
     999901    1    3    3    0    0 -0.46269176839E-01 -0.20109255945E-01  0.15253693764E+00  0.85031625660E+00  0.83500000000E+00 0. -1.
        -11    1    4    4    0    0  0.20578332450E-01  0.11255087960E-01 -0.76963407404E-01  0.80459753739E-01  0.51100000000E-03 0. -1.
         11    1    4    4    0    0  0.64240897229E-02  0.41586328028E-03 -0.88322505710E-01  0.88558274639E-01  0.51100000000E-03 0.  1.
</event>
<event>
 8    1  0.5716970E+005  0.1043930E+01  0.7957747E-01            NaN
         13   -1    0    0    0    0  0.00000000000E+00  0.00000000000E+00  0.74505805969E-08  0.10566000000E+00  0.10566000000E+00 0.  1.
     999900   -1    0    0    0    0 -0.00000000000E+00 -0.00000000000E+00 -0.74505805969E-08  0.93827000000E+00  0.93827000000E+00 0. -1.
     999902    2    1    2    0    0  0.32440046411E-02 -0.10858988739E-01  0.20722272573E-01  0.10203110715E+01  0.10200376605E+01 0.  0.
     999903    2    3    3    0    0 -0.51460089939E-01  0.73408082343E-01 -0.13672465580E+00  0.16467796527E+00  0.19705667491E-01 0.  0.
         14    1    1    2    0    0 -0.32440046411E-02  0.10858988739E-01 -0.20722272573E-01  0.23618928493E-01  0.00000000000E+00 0. -1.
     999901    1    3    3    0    0  0.54704094580E-01 -0.84267071082E-01  0.15744692838E+00  0.85563310624E+00  0.83500000000E+00 0.  1.
        -11    1    4    4    0    0 -0.28175210230E-01  0.52386855090E-01 -0.77959925517E-01  0.98062409542E-01  0.51100000000E-03 0. -1.
         11    1    4    4    0    0 -0.23284879709E-01  0.21021227254E-01 -0.58764730287E-01  0.66615555728E-01  0.51100000000E-03 0.  1.
</event>
<event>
 7    1  0.5716970E+005  0.1043930E+01  0.7957747E-01            NaN
         13   -1    0    0    0    0  0.00000000000E+00  0.00000000000E+00  0.74505805969E-08  0.10566000000E+00  0.10566000000E+00 0. -1.
     999900   -1    0    0    0    0 -0.00000000000E+00 -0.00000000000E+00 -0.74505805969E-08  0.93827000000E+00  0.93827000000E+00 0. -1.
     999903    2    1    2    0    0  0.59334729237E-01 -0.63490348092E-01  0.94093499791E-01  0.12976770886E+00  0.20843156329E-01 0.  0.
         14    1    1    2    0    0 -0.52845385115E-01  0.15834744032E-01  0.38583120921E-01  0.67320361456E-01  0.00000000000E+00 0. -1.
     999901    1    1    2    0    0 -0.64893441222E-02  0.47655604060E-01 -0.13267662071E+00  0.84684192968E+00  0.83500000000E+00 0. -1.
        -11    1    3    3    0    0  0.28511851051E-01 -0.29864731188E-01  0.29748437272E-01  0.50892616954E-01  0.51100000000E-03 0.  1.
         11    1    3    3    0    0  0.30822878187E-01 -0.33625616903E-01  0.64345062519E-01  0.78875091908E-01  0.51100000000E-03 0. -1.
</event>
<event>
 8    1  0.5716970E+005  0.1043930E+01  0.7957747E-01            NaN
         13   -1    0    0    0    0  0.00000000000E+00  0.00000000000E+00  0.74505805969E-08  0.10566000000E+00  0.10566000000E+00 0.  1.
     999900   -1    0    0    0    0 -0.00000000000E+00 -0.00000000000E+00 -0.74505805969E-08  0.93827000000E+00  0.93827000000E+00 0. -1.
     999902    2    1    2    0    0  0.26246889177E-01  0.15426451297E-01 -0.31499435565E-03  0.10134837554E+01  0.10130263316E+01 0.  0.
     999903    2    3    3    0    0  0.57474209876E-01 -0.87175358459E-01  0.12301747914E+00  0.16263819009E+00  0.20372844122E-01 0.  0.
         14    1    1    2    0    0 -0.26246889177E-01 -0.15426451297E-01  0.31499435565E-03  0.30446244638E-01  0.00000000000E+00 0.  1.
     999901    1    3    3    0    0 -0.31227320699E-01  0.10260180976E+00 -0.12333247350E+00  0.85084556527E+00  0.83500000000E+00 0. -1.
        -11    1    4    4    0    0  0.33876127823E-01 -0.60224154853E-01  0.67731856578E-01  0.96759528629E-01  0.51100000000E-03 0.  1.
         11    1    4    4    0    0  0.23598082052E-01 -0.26951203606E-01  0.55285622567E-01  0.65878661461E-01  0.51100000000E-03 0. -1.
</event>
<event>
 8    1  0.5716970E+005  0.1043930E+01  0.7957747E-01            NaN
         13   -1    0    0    0    0  0.00000000000E+00  0.00000000000E+00  0.74505805969E-08  0.10566000000E+00  0.10566000000E+00 0. -1.
     999900   -1    0    0    0    0 -0.00000000000E+00 -0.00000000000E+00 -0.74505805969E-08  0.93827000000E+00  0.93827000000E+00 0.  1.
     999902    2    1    2    0    0 -0.19152742737E-01 -0.78575795263E-02 -0.11114782887E-01  0.10204330319E+01  0.10201624700E+01 0.  0.
     999903    2    3    3    0    0 -0.77027874133E-02 -0.10879356939E+00  0.12630438860E+00  0.16812545585E+00  0.20444966416E-01 0.  0.
         14    1    1    2    0    0  0.19152742737E-01  0.78575795263E-02  0.11114782887E-01  0.23496968081E-01  0.00000000000E+00 0.  1.
     999901    1    3    3    0    0 -0.11449955324E-01  0.10093598986E+00 -0.13741917149E+00  0.85230757607E+00  0.83500000000E+00 0.  1.
        -11    1    4    4    0    0 -0.13156325264E-01 -0.68493911726E-01  0.87668341966E-01  0.11202903259E+00  0.51100000000E-03 0. -1.
         11    1    4    4    0    0  0.54535378511E-02 -0.40299657665E-01  0.38636046633E-01  0.56096423268E-01  0.51100000000E-03 0.  1.
</event>
<event>
 8    1  0.5716970E+005  0.1043930E+01  0.7957747E-01            NaN
         13   -1    0    0    0    0  0.00000000000E+00  0.00000000000E+00  0.74505805969E-08  0.10566000000E+00  0.10566000000E+00 0.  1.
     999900   -1    0    0    0    0 -0.00000000000E+00 -0.00000000000E+00 -0.74505805969E-08  0.93827000000E+00  0.93827000000E+00 0. -1.
     999902    2    1    2    0    0 -0.18163256892E-01 -0.15650576696E-01 -0.27878610449E-02  0.10197925473E+01  0.10195068528E+01 0.  0.
     999903    2    3    3    0    0  0.76821391666E-01 -0.30878172050E-01 -0.14423352587E+00  0.16745116079E+00  0.19534419361E-01 0.  0.
         14    1    1    2    0    0  0.18163256892E-01  0.15650576696E-01  0.27878610449E-02  0.24137452663E-01  0.00000000000E+00 0.  1.
     999901    1    3    3    0    0 -0.94984648558E-01  0.15227595354E-01  0.14144566482E+00  0.85234138655E+00  0.83500000000E+00 0.  1.
        -11    1    4    4    0    0  0.68362328794E-01 -0.19971119592E-01 -0.12251716205E+00  0.14171439494E+00  0.51100000000E-03 0. -1.
         11    1    4    4    0    0  0.84590628720E-02 -0.10907052457E-01 -0.21716363819E-01  0.25736765852E-01  0.51100000000E-03 0.  1.
</event>
<event>
 8    1  0.5716970E+005  0.1043930E+01  0.7957747E-01            NaN
         13   -1    0    0    0    0  0.00000000000E+00  0.00000000000E+00  0.74505805969E-08  0.10566000000E+00  0.10566000000E+00 0.  1.
     999900   -1    0    0    0    0 -0.00000000000E+00 -0.00000000000E+00 -0.74505805969E-08  0.93827000000E+00  0.93827000000E+00 0. -1.
     999902    2    1    2    0    0 -0.42369824315E-02 -0.63117592342E-02  0.16240907356E-01  0.10259979785E+01  0.10258412618E+01 0.  0.
     999903    2    3    3    0    0 -0.12391396954E-02 -0.12191141385E+00 -0.11834276871E+00  0.17235283376E+00  0.28923348811E-01 0.  0.
         14    1    1    2    0    0  0.42369824315E-02  0.63117592342E-02 -0.16240907356E-01  0.17932021539E-01  0.00000000000E+00 0. -1.
     999901    1    3    3    0    0 -0.29978427361E-02  0.11559965461E+00  0.13458367606E+00  0.85364514470E+00  0.83500000000E+00 0.  1.
        -11    1    4    4    0    0  0.98771162492E-02 -0.98314985153E-01 -0.87788911578E-01  0.13217620001E+00  0.51100000000E-03 0.  1.
         11    1    4    4    0    0 -0.11116255945E-01 -0.23596428696E-01 -0.30553857128E-01  0.40176633754E-01  0.51100000000E-03 0. -1.
</event>
<event>
 8    1  0.5716970E+005  0.1043930E+01  0.7957747E-01            NaN
         13   -1    0    0    0    0  0.00000000000E+00  0.00000000000E+00  0.74505805969E-08  0.10566000000E+00  0.10566000000E+00 0. -1.
     999900   -1    0    0    0    0 -0.00000000000E+00 -0.00000000000E+00 -0.74505805969E-08  0.93827000000E+00  0.93827000000E+00 0.  1.
     999902    2    1    2    0    0 -0.18073888197E-02 -0.42841800226E-02  0.22876474149E-01  0.10205857518E+01  0.10203187359E+01 0.  0.
     999903    2    3    3    0    0  0.27615849263E-01  0.91163306019E-02  0.16873098990E+00  0.17232645163E+00  0.19506828622E-01 0.  0.
         14    1    1    2    0    0  0.18073888197E-02  0.42841800226E-02 -0.22876474149E-01  0.23344248163E-01  0.00000000000E+00 0.  1.
     999901    1    3    3    0    0 -0.29423238083E-01 -0.13400510624E-01 -0.14585451575E+00  0.84825930021E+00  0.83500000000E+00 0.  1.
        -11    1    4    4    0    0  0.22120042581E-01  0.99862394595E-02  0.84703019812E-01  0.88112904552E-01  0.51100000000E-03 0.  1.
         11    1    4    4    0    0  0.54958066825E-02 -0.86990885764E-03  0.84027970091E-01  0.84213547076E-01  0.51100000000E-03 0. -1.
</event>
<event>
 8    1  0.5716970E+005  0.1043930E+01  0.7957747E-01            NaN
         13   -1    0    0    0    0  0.00000000000E+00  0.00000000000E+00  0.74505805969E-08  0.10566000000E+00  0.10566000000E+00 0.  1.
     999900   -1    0    0    0    0 -0.00000000000E+00 -0.00000000000E+00 -0.74505805969E-08  0.93827000000E+00  0.93827000000E+00 0. -1.
     999902    2    1    2    0    0 -0.28277290136E-02 -0.14060379708E-01  0.20635027791E-01  0.10188004417E+01  0.10184904738E+01 0.  0.
     999903    2    3    3    0    0  0.29194382783E-01 -0.22393794277E-01 -0.15875810472E+00  0.16410648627E+00  0.19313441288E-01 0.  0.
         14    1    1    2    0    0  0.28277290136E-02  0.14060379708E-01 -0.20635027791E-01  0.25129558309E-01  0.00000000000E+00 0. -1.
     999901    1    3    3    0    0 -0.32022111797E-01  0.83334145689E-02  0.17939313251E+00  0.85469395542E+00  0.83500000000E+00 0.  1.
        -11    1    4    4    0    0  0.19266035778E-02 -0.12161558593E-01 -0.42098481693E-01  0.43865232139E-01  0.51100000000E-03 0.  1.
         11    1    4    4    0    0  0.27267779206E-01 -0.10232235683E-01 -0.11665962302E+00  0.12024125413E+00  0.51100000000E-03 0. -1.
</event>
<event>
 8    1  0.5716970E+005  0.1043930E+01  0.7957747E-01            NaN
         13   -1    0    0    0    0  0.00000000000E+00  0.00000000000E+00  0.74505805969E-08  0.10566000000E+00  0.10566000000E+00 0.  1.
     999900   -1    0    0    0    0 -0.00000000000E+00 -0.00000000000E+00 -0.74505805969E-08  0.93827000000E+00  0.93827000000E+00 0.  1.
     999902    2    1    2    0    0 -0.13685720816E-01 -0.17950046180E-01  0.16409961867E-02  0.10212982528E+01  0.10210474647E+01 0.  0.
     999903    2    3    3    0    0  0.11800521314E+00 -0.11973331873E+00 -0.12474362803E-01  0.16975460742E+00  0.19992975560E-01 0.  0.
         14    1    1    2    0    0  0.13685720816E-01  0.17950046180E-01 -0.16409961867E-02  0.22631747184E-01  0.00000000000E+00 0. -1.
     999901    1    3    3    0    0 -0.13169093395E+00  0.10178327255E+00  0.14115358990E-01  0.85154364540E+00  0.83500000000E+00 0.  1.
        -11    1    4    4    0    0  0.58909157703E-01 -0.73318835729E-01 -0.97658323084E-02  0.94559891791E-01  0.51100000000E-03 0. -1.
         11    1    4    4    0    0  0.59096055436E-01 -0.46414482997E-01 -0.27085304947E-02  0.75194715628E-01  0.51100000000E-03 0.  1.
</event>
<event>
 8    1  0.5716970E+005  0.1043930E+01  0.7957747E-01            NaN
         13   -1    0    0    0    0  0.00000000000E+00  0.00000000000E+00  0.74505805969E-08  0.10566000000E+00  0.10566000000E+00 0.  1.
     999900   -1    0    0    0    0 -0.00000000000E+00 -0.00000000000E+00 -0.74505805969E-08  0.93827000000E+00  0.93827000000E+00 0. -1.
     999902    2    1    2    0    0 -0.48161415113E-02  0.23499522572E-01 -0.26450081810E-02  0.10197966445E+01  0.10195110481E+01 0.  0.
     999903    2    3    3    0    0  0.69830347182E-01  0.14580796305E+00  0.51655192336E-01  0.17085320428E+00  0.19655000414E-01 0.  0.
         14    1    1    2    0    0  0.48161415113E-02 -0.23499522572E-01  0.26450081810E-02  0.24133355516E-01  0.00000000000E+00 0. -1.
     999901    1    3    3    0    0 -0.74646488693E-01 -0.12230844048E+00 -0.54300200517E-01  0.84894344020E+00  0.83500000000E+00 0.  1.
        -11    1    4    4    0    0  0.11571775567E-01  0.44394721375E-01  0.13369274416E-01  0.47789077153E-01  0.51100000000E-03 0.  1.
         11    1    4    4    0    0  0.58258571615E-01  0.10141324168E+00  0.38285917920E-01  0.12306412713E+00  0.51100000000E-03 0. -1.
</event>
<event>
 7    1  0.5716970E+005  0.1043930E+01  0.7957747E-01            NaN
         13   -1    0    0    0    0  0.00000000000E+00  0.00000000000E+00  0.74505805969E-08  0.10566000000E+00  0.10566000000E+00 0. -1.
     999900   -1    0    0    0    0 -0.00000000000E+00 -0.00000000000E+00 -0.74505805969E-08  0.93827000000E+00  0.93827000000E+00 0. -1.
     999903    2    1    2    0    0 -0.54620883152E-01 -0.38148447771E-01 -0.80830208793E-01  0.10663843224E+00  0.19987186729E-01 0.  0.
         14    1    1    2    0    0  0.51471079627E-01 -0.45693763293E-01 -0.53796411701E-01  0.87357002889E-01  0.00000000000E+00 0. -1.
     999901    1    1    2    0    0  0.31498035252E-02  0.83842211064E-01  0.13462662049E+00  0.84993456487E+00  0.83500000000E+00 0.  1.
        -11    1    3    3    0    0 -0.24366657544E-01 -0.53915302017E-02 -0.28575128491E-01  0.37942083325E-01  0.51100000000E-03 0.  1.
         11    1    3    3    0    0 -0.30254225608E-01 -0.32756917569E-01 -0.52255080302E-01  0.68696348914E-01  0.51100000000E-03 0. -1.
</event>
<event>
 8    1  0.5716970E+005  0.1043930E+01  0.7957747E-01            NaN
         13   -1    0    0    0    0  0.00000000000E+00  0.00000000000E+00  0.74505805969E-08  0.10566000000E+00  0.10566000000E+00 0. -1.
     999900   -1    0    0    0    0 -0.00000000000E+00 -0.00000000000E+00 -0.74505805969E-08  0.93827000000E+00  0.93827000000E+00 0.  1.
     999902    2    1    2    0    0  0.30429890441E-03  0.78448415344E-02  0.22219054479E-01  0.10203647604E+01  0.10200926055E+01 0.  0.
     999903    2    3    3    0    0 -0.32916953603E-01  0.69791625041E-01 -0.14543285848E+00  0.16580451117E+00  0.19647463926E-01 0.  0.
         14    1    1    2    0    0 -0.30429890441E-03 -0.78448415344E-02 -0.22219054479E-01  0.23565239623E-01  0.00000000000E+00 0.  1.
     999901    1    3    3    0    0  0.33221252507E-01 -0.61946783507E-01  0.16765191296E+00  0.85456024921E+00  0.83500000000E+00 0. -1.
        -11    1    4    4    0    0 -0.29300828921E-01  0.45410620949E-01 -0.11097504883E+00  0.12343575517E+00  0.51100000000E-03 0.  1.
         11    1    4    4    0    0 -0.36161246821E-02  0.24381004093E-01 -0.34457809648E-01  0.42368756000E-01  0.51100000000E-03 0. -1.
</event>
<event>
 8    1  0.5716970E+005  0.1043930E+01  0.7957747E-01            NaN
         13   -1    0    0    0    0  0.00000000000E+00  0.00000000000E+00  0.74505805969E-08  0.10566000000E+00  0.10566000000E+00 0. -1.
     999900   -1    0    0    0    0 -0.00000000000E+00 -0.00000000000E+00 -0.74505805969E-08  0.93827000000E+00  0.93827000000E+00 0.  1.
     999902    2    1    2    0    0 -0.21079011426E-02 -0.21726809009E-01 -0.82800274105E-02  0.10205835585E+01  0.10203164919E+01 0.  0.
     999903    2    3    3    0    0 -0.45183960727E-01  0.15412307068E+00 -0.35375855180E-01  0.16575146330E+00  0.20653939878E-01 0.  0.
         14    1    1    2    0    0  0.21079011426E-02  0.21726809009E-01  0.82800274105E-02  0.23346441503E-01  0.00000000000E+00 0. -1.
     999901    1    3    3    0    0  0.43076059585E-01 -0.17584987969E+00  0.27095827770E-01  0.85483209520E+00  0.83500000000E+00 0.  1.
        -11    1    4    4    0    0 -0.10538212474E-01  0.25745984835E-01 -0.13740974263E-01  0.31032002062E-01  0.51100000000E-03 0.  1.
         11    1    4    4    0    0 -0.34645748253E-01  0.12837708585E+00 -0.21634880917E-01  0.13471946124E+00  0.51100000000E-03 0. -1.
</event>
<event>
 8    1  0.5716970E+005  0.1043930E+01  0.7957747E-01            NaN
         13   -1    0    0    0    0  0.00000000000E+00  0.00000000000E+00  0.74505805969E-08  0.10566000000E+00  0.10566000000E+00 0. -1.
     999900   -1    0    0    0    0 -0.00000000000E+00 -0.00000000000E+00 -0.74505805969E-08  0.93827000000E+00  0.93827000000E+00 0. -1.
     999902    2    1    2    0    0  0.23407562095E-01  0.82770352013E-02  0.80320856010E-02  0.10178352175E+01  0.10175006596E+01 0.  0.
     999903    2    3    3    0    0  0.14139415693E+00 -0.88550745496E-01  0.17954205089E-01  0.16894187665E+00  0.19633187793E-01 0.  0.
         14    1    1    2    0    0 -0.23407562095E-01 -0.82770352013E-02 -0.80320856010E-02  0.26094782506E-01  0.00000000000E+00 0. -1.
     999901    1    3    3    0    0 -0.11798659484E+00  0.96827780697E-01 -0.99221194875E-02  0.84889334085E+00  0.83500000000E+00 0. -1.
        -11    1    4    4    0    0  0.12021906375E+00 -0.70217188355E-01  0.20859211626E-01  0.14077799779E+00  0.51100000000E-03 0.  1.
         11    1    4    4    0    0  0.21175093177E-01 -0.18333557141E-01 -0.29050065374E-02  0.28163878860E-01  0.51100000000E-03 0. -1.
</event>
<event>
 8    1  0.5716970E+005  0.1043930E+01  0.7957747E-01            NaN
         13   -1    0    0    0    0  0.00000000000E+00  0.00000000000E+00  0.74505805969E-08  0.10566000000E+00  0.10566000000E+00 0.  1.
     999900   -1    0    0    0    0 -0.00000000000E+00 -0.00000000000E+00 -0.74505805969E-08  0.93827000000E+00  0.93827000000E+00 0. -1.
     999902    2    1    2    0    0 -0.22695760698E-01 -0.51771905025E-03  0.67057820736E-02  0.10202586439E+01  0.10199840035E+01 0.  0.
     999903    2    3    3    0    0 -0.13611271071E-02 -0.15927411874E+00  0.52170585246E-01  0.16881821183E+00  0.20192105143E-01 0.  0.
         14    1    1    2    0    0  0.22695760698E-01  0.51771905025E-03 -0.67057820736E-02  0.23671356106E-01  0.00000000000E+00 0. -1.
     999901    1    3    3    0    0 -0.21334633591E-01  0.15875639969E+00 -0.45464803173E-01  0.85144043207E+00  0.83500000000E+00 0. -1.
        -11    1    4    4    0    0 -0.10721287758E-01 -0.88034674861E-01  0.29951410432E-01  0.93607681827E-01  0.51100000000E-03 0.  1.
         11    1    4    4    0    0  0.93601606513E-02 -0.71239443883E-01  0.22219174814E-01  0.75210529998E-01  0.51100000000E-03 0. -1.
</event>
<event>
 8    1  0.5716970E+005  0.1043930E+01  0.7957747E-01            NaN
         13   -1    0    0    0    0  0.00000000000E+00  0.00000000000E+00  0.74505805969E-08  0.10566000000E+00  0.10566000000E+00 0.  1.
     999900   -1    0    0    0    0 -0.00000000000E+00 -0.00000000000E+00 -0.74505805969E-08  0.93827000000E+00  0.93827000000E+00 0.  1.
     999902    2    1    2    0    0  0.19349267893E-01 -0.13385599787E-01 -0.47768217068E-02  0.10199219498E+01  0.10196393466E+01 0.  0.
     999903    2    3    3    0    0  0.24394051342E-01  0.15057984915E+00  0.63067455780E-01  0.16626044528E+00  0.19891479959E-01 0.  0.
         14    1    1    2    0    0 -0.19349267893E-01  0.13385599787E-01  0.47768217068E-02  0.24008050218E-01  0.00000000000E+00 0.  1.
     999901    1    3    3    0    0 -0.50447834489E-02 -0.16396544894E+00 -0.67844277486E-01  0.85366150450E+00  0.83500000000E+00 0.  1.
        -11    1    4    4    0    0  0.27071799804E-01  0.11494299735E+00  0.47884666265E-01  0.12742832248E+00  0.51100000000E-03 0. -1.
         11    1    4    4    0    0 -0.26777484622E-02  0.35636851795E-01  0.15182789514E-01  0.38832122800E-01  0.51100000000E-03 0.  1.
</event>
<event>
 8    1  0.5716970E+005  0.1043930E+01  0.7957747E-01            NaN
         13   -1    0    0    0    0  0.00000000000E+00  0.00000000000E+00  0.74505805969E-08  0.10566000000E+00  0.10566000000E+00 0.  1.
     999900   -1    0    0    0    0 -0.00000000000E+00 -0.00000000000E+00 -0.74505805969E-08  0.93827000000E+00  0.93827000000E+00 0.  1.
     999902    2    1    2    0    0 -0.14491367261E-01  0.97461779173E-02 -0.12894867549E-01  0.10222213538E+01  0.10219908174E+01 0.  0.
     999903    2    3    3    0    0 -0.12837336622E+00  0.95975308518E-01  0.58412520267E-01  0.17209529483E+00  0.22666869584E-01 0.  0.
         14    1    1    2    0    0  0.14491367261E-01 -0.97461779173E-02  0.12894867549E-01  0.21708646162E-01  0.00000000000E+00 0. -1.
     999901    1    3    3    0    0  0.11388199896E+00 -0.86229130601E-01 -0.71307387817E-01  0.85012605901E+00  0.83500000000E+00 0.  1.
        -11    1    4    4    0    0 -0.35287341200E-01  0.30312745894E-01  0.67407085365E-02  0.47008055535E-01  0.51100000000E-03 0. -1.
         11    1    4    4    0    0 -0.93086025024E-01  0.65662562624E-01  0.51671811731E-01  0.12508723929E+00  0.51100000000E-03 0.  1.
</event>
<event>
 8    1  0.5716970E+005  0.1043930E+01  0.7957747E-01            NaN
         13   -1    0    0    0    0  0.00000000000E+00  0.00000000000E+00  0.74505805969E-08  0.10566000000E+00  0.10566000000E+00 0. -1.
     999900   -1    0    0    0    0 -0.00000000000E+00 -0.00000000000E+00 -0.74505805969E-08  0.93827000000E+00  0.93827000000E+00 0. -1.
     999902    2    1    2    0    0 -0.22666344449E-01 -0.88412215884E-02 -0.95464382324E-02  0.10177944906E+01  0.10174588740E+01 0.  0.
     999903    2    3    3    0    0  0.20264129216E-01 -0.14988581676E+00  0.65991896742E-01  0.16652036114E+00  0.22309353219E-01 0.  0.
         14    1    1    2    0    0  0.22666344449E-01  0.88412215884E-02  0.95464382324E-02  0.26135509422E-01  0.00000000000E+00 0. -1.
     999901    1    3    3    0    0 -0.42930473665E-01  0.14104459517E+00 -0.75538334975E-01  0.85127412944E+00  0.83500000000E+00 0. -1.
        -11    1    4    4    0    0  0.24193458764E-01 -0.10975476937E+00  0.51982521554E-01  0.12383003075E+00  0.51100000000E-03 0. -1.
         11    1    4    4    0    0 -0.39293295480E-02 -0.40131047386E-01  0.14009375189E-01  0.42690330394E-01  0.51100000000E-03 0.  1.
</event>
<event>
 8    1  0.5716970E+005  0.1043930E+01  0.7957747E-01            NaN
         13   -1    0    0    0    0  0.00000000000E+00  0.00000000000E+00  0.74505805969E-08  0.10566000000E+00  0.10566000000E+00 0. -1.
     999900   -1    0    0    0    0 -0.00000000000E+00 -0.00000000000E+00 -0.74505805969E-08  0.93827000000E+00  0.93827000000E+00 0.  1.
     999902    2    1    2    0    0  0.54868227827E-02 -0.21692920508E-01  0.17708357243E-02  0.10214839784E+01  0.10212373350E+01 0.  0.
     999903    2    3    3    0    0  0.58153686734E-01 -0.65116315821E-01 -0.14554638367E+00  0.17084495221E+00  0.19551522451E-01 0.  0.
         14    1    1    2    0    0 -0.54868227827E-02  0.21692920508E-01 -0.17708357243E-02  0.22446021554E-01  0.00000000000E+00 0. -1.
     999901    1    3    3    0    0 -0.52666863951E-01  0.43423395313E-01  0.14731721940E+00  0.85063902623E+00  0.83500000000E+00 0. -1.
        -11    1    4    4    0    0  0.25495122605E-01 -0.41817365872E-01 -0.87634967081E-01  0.10039343575E+00  0.51100000000E-03 0.  1.
         11    1    4    4    0    0  0.32658564129E-01 -0.23298949949E-01 -0.57911416591E-01  0.70451516465E-01  0.51100000000E-03 0. -1.
</event>
<event>
 8    1  0.5716970E+005  0.1043930E+01  0.7957747E-01            NaN
         13   -1    0    0    0    0  0.00000000000E+00  0.00000000000E+00  0.74505805969E-08  0.10566000000E+00  0.10566000000E+00 0.  1.
     999900   -1    0    0    0    0 -0.00000000000E+00 -0.00000000000E+00 -0.74505805969E-08  0.93827000000E+00  0.93827000000E+00 0.  1.
     999902    2    1    2    0    0 -0.12460279472E-01 -0.20543144232E-01  0.29749003110E-02  0.10197198911E+01  0.10194324534E+01 0.  0.
     999903    2    3    3    0    0 -0.97212494811E-01 -0.17641073723E-02  0.13742453438E+00  0.16952150585E+00  0.19966398618E-01 0.  0.
         14    1    1    2    0    0  0.12460279472E-01  0.20543144232E-01 -0.29749003110E-02  0.24210108866E-01  0.00000000000E+00 0. -1.
     999901    1    3    3    0    0  0.84752215339E-01 -0.18779036860E-01 -0.13444963407E+00  0.85019838528E+00  0.83500000000E+00 0.  1.
        -11    1    4    4    0    0 -0.69836950352E-01 -0.92889965487E-02  0.10466255157E+00  0.12616654039E+00  0.51100000000E-03 0.  1.
         11    1    4    4    0    0 -0.27375544459E-01  0.75248891763E-02  0.32761982813E-01  0.43354965464E-01  0.51100000000E-03 0. -1.
</event>
<event>
 8    1  0.5716970E+005  0.1043930E+01  0.7957747E-01            NaN
         13   -1    0    0    0    0  0.00000000000E+00  0.00000000000E+00  0.74505805969E-08  0.10566000000E+00  0.10566000000E+00 0. -1.
     999900   -1    0    0    0    0 -0.00000000000E+00 -0.00000000000E+00 -0.74505805969E-08  0.93827000000E+00  0.93827000000E+00 0. -1.
     999902    2    1    2    0    0  0.78352261335E-02  0.23017110363E-01 -0.21475092655E-02  0.10195211915E+01  0.10192289585E+01 0.  0.
     999903    2    3    3    0    0  0.14039370650E+00  0.27137583819E-01  0.88214268442E-01  0.16923948527E+00  0.20332361808E-01 0.  0.
         14    1    1    2    0    0 -0.78352261335E-02 -0.23017110363E-01  0.21475092655E-02  0.24408808535E-01  0.00000000000E+00 0. -1.
     999901    1    3    3    0    0 -0.13255848037E+00 -0.41204734558E-02 -0.90361777707E-01  0.85028170619E+00  0.83500000000E+00 0. -1.
        -11    1    4    4    0    0  0.91174660727E-01  0.27317506399E-01  0.56552957385E-01  0.11071387910E+00  0.51100000000E-03 0. -1.
         11    1    4    4    0    0  0.49219045775E-01 -0.17992257947E-03  0.31661311057E-01  0.58525606174E-01  0.51100000000E-03 0.  1.
</event>
<event>
 8    1  0.5716970E+005  0.1043930E+01  0.7957747E-01            NaN
         13   -1    0    0    0    0  0.00000000000E+00  0.00000000000E+00  0.74505805969E-08  0.10566000000E+00  0.10566000000E+00 0.  1.
     999900   -1    0    0    0    0 -0.00000000000E+00 -0.00000000000E+00 -0.74505805969E-08  0.93827000000E+00  0.93827000000E+00 0. -1.
     999902    2    1    2    0    0  0.19724994000E-01  0.15197979445E-01 -0.39185212841E-02  0.10187226841E+01  0.10184107709E+01 0.  0.
     999903    2    3    3    0    0  0.16317421126E-01 -0.32335771949E-01 -0.16241201542E+00  0.16747873739E+00  0.18963236640E-01 0.  0.
         14    1    1    2    0    0 -0.19724994000E-01 -0.15197979445E-01  0.39185212841E-02  0.25207315933E-01  0.00000000000E+00 0. -1.
     999901    1    3    3    0    0  0.34075728739E-02  0.47533751394E-01  0.15849349414E+00  0.85124394668E+00  0.83500000000E+00 0.  1.
        -11    1    4    4    0    0  0.31790666133E-02 -0.26108181632E-01 -0.10756404827E+00  0.11073404722E+00  0.51100000000E-03 0. -1.
         11    1    4    4    0    0  0.13138354512E-01 -0.62275903170E-02 -0.54847967154E-01  0.56744690169E-01  0.51100000000E-03 0.  1.
</event>
<event>
 8    1  0.5716970E+005  0.1043930E+01  0.7957747E-01            NaN
         13   -1    0    0    0    0  0.00000000000E+00  0.00000000000E+00  0.74505805969E-08  0.10566000000E+00  0.10566000000E+00 0.  1.
     999900   -1    0    0    0    0 -0.00000000000E+00 -0.00000000000E+00 -0.74505805969E-08  0.93827000000E+00  0.93827000000E+00 0.  1.
     999902    2    1    2    0    0 -0.10441656052E-01 -0.97420679614E-02 -0.19532936642E-01  0.10197334779E+01  0.10194463665E+01 0.  0.
     999903    2    3    3    0    0 -0.12291231318E+00  0.67058805355E-01  0.88557786038E-01  0.16682279838E+00  0.19571522299E-01 0.  0.
         14    1    1    2    0    0  0.10441656052E-01  0.97420679614E-02  0.19532936642E-01  0.24196522129E-01  0.00000000000E+00 0.  1.
     999901    1    3    3    0    0  0.11247065713E+00 -0.76800873317E-01 -0.10809072268E+00  0.85291067949E+00  0.83500000000E+00 0.  1.
        -11    1    4    4    0    0 -0.26193461620E-01  0.15864453533E-01  0.10400315119E-01  0.32345107716E-01  0.51100000000E-03 0.  1.
         11    1    4    4    0    0 -0.96718851559E-01  0.51194351822E-01  0.78157470919E-01  0.13447769067E+00  0.51100000000E-03 0. -1.
</event>
<event>
 8    1  0.5716970E+005  0.1043930E+01  0.7957747E-01            NaN
         13   -1    0    0    0    0  0.00000000000E+00  0.00000000000E+00  0.74505805969E-08  0.10566000000E+00  0.10566000000E+00 0. -1.
     999900   -1    0    0    0    0 -0.00000000000E+00 -0.00000000000E+00 -0.74505805969E-08  0.93827000000E+00  0.93827000000E+00 0.  1.
     999902    2    1    2    0    0 -0.19549470215E-01  0.10246229937E-01  0.44996991210E-02  0.10214041414E+01  0.10211557206E+01 0.  0.
     999903    2    3    3    0    0  0.25577393649E-02  0.48395952762E-01 -0.16072908434E+00  0.16907223366E+00  0.20071655821E-01 0.  0.
         14    1    1    2    0    0  0.19549470215E-01 -0.10246229937E-01 -0.44996991210E-02  0.22525858603E-01  0.00000000000E+00 0. -1.
     999901    1    3    3    0    0 -0.22107209580E-01 -0.38149722825E-01  0.16522878346E+00  0.85233190774E+00  0.83500000000E+00 0. -1.
        -11    1    4    4    0    0  0.60715905754E-04  0.10644074703E-01 -0.69428767097E-01  0.70241831086E-01  0.51100000000E-03 0. -1.
         11    1    4    4    0    0  0.24970234592E-02  0.37751878059E-01 -0.91300317242E-01  0.98830402572E-01  0.51100000000E-03 0.  1.
</event>
<event>
 8    1  0.5716970E+005  0.1043930E+01  0.7957747E-01            NaN
         13   -1    0    0    0    0  0.00000000000E+00  0.00000000000E+00  0.74505805969E-08  0.10566000000E+00  0.10566000000E+00 0. -1.
     999900   -1    0    0    0    0 -0.00000000000E+00 -0.00000000000E+00 -0.74505805969E-08  0.93827000000E+00  0.93827000000E+00 0.  1.
     999902    2    1    2    0    0  0.14613479970E-01  0.18039203197E-02 -0.22179468005E-01  0.10173078903E+01  0.10169594913E+01 0.  0.
     999903    2    3    3    0    0 -0.76172934556E-01 -0.11505178870E+00 -0.91334738065E-01  0.16648189092E+00  0.18301791845E-01 0.  0.
         14    1    1    2    0    0 -0.14613479970E-01 -0.18039203197E-02  0.22179468005E-01  0.26622109727E-01  0.00000000000E+00 0. -1.
     999901    1    3    3    0    0  0.90786414526E-01  0.11685570902E+00  0.69155270060E-01  0.85082599935E+00  0.83500000000E+00 0. -1.
        -11    1    4    4    0    0 -0.13904614401E-01 -0.24430697540E-01 -0.27567532422E-01  0.39375465061E-01  0.51100000000E-03 0.  1.
         11    1    4    4    0    0 -0.62268320155E-01 -0.90621091164E-01 -0.63767205643E-01  0.12710642586E+00  0.51100000000E-03 0. -1.
</event>
<event>
 8    1  0.5716970E+005  0.1043930E+01  0.7957747E-01            NaN
         13   -1    0    0    0    0  0.00000000000E+00  0.00000000000E+00  0.74505805969E-08  0.10566000000E+00  0.10566000000E+00 0. -1.
     999900   -1    0    0    0    0 -0.00000000000E+00 -0.00000000000E+00 -0.74505805969E-08  0.93827000000E+00  0.93827000000E+00 0.  1.
     999902    2    1    2    0    0  0.16076012171E-02 -0.63865709039E-03  0.23100732816E-01  0.10207645921E+01  0.10205016984E+01 0.  0.
     999903    2    3    3    0    0 -0.66097855231E-01  0.81442520230E-01  0.13455455532E+00  0.17166606838E+00  0.19039435639E-01 0.  0.
         14    1    1    2    0    0 -0.16076012171E-02  0.63865709039E-03 -0.23100732816E-01  0.23165407857E-01  0.00000000000E+00 0.  1.
     999901    1    3    3    0    0  0.67705456448E-01 -0.82081177320E-01 -0.11145382250E+00  0.84909852376E+00  0.83500000000E+00 0. -1.
        -11    1    4    4    0    0 -0.29863687413E-01  0.51525340962E-01  0.72452392967E-01  0.93788650459E-01  0.51100000000E-03 0. -1.
         11    1    4    4    0    0 -0.36234167819E-01  0.29917179268E-01  0.62102162350E-01  0.77877417923E-01  0.51100000000E-03 0.  1.
</event>
<event>
 8    1  0.5716970E+005  0.1043930E+01  0.7957747E-01            NaN
         13   -1    0    0    0    0  0.00000000000E+00  0.00000000000E+00  0.74505805969E-08  0.10566000000E+00  0.10566000000E+00 0.  1.
     999900   -1    0    0    0    0 -0.00000000000E+00 -0.00000000000E+00 -0.74505805969E-08  0.93827000000E+00  0.93827000000E+00 0. -1.
     999902    2    1    2    0    0 -0.17310007724E-01  0.13053327099E-01 -0.84974376965E-02  0.10206441209E+01  0.10203784540E+01 0.  0.
     999903    2    3    3    0    0 -0.10900345027E+00  0.95937015319E-02 -0.13067260946E+00  0.17177933253E+00  0.21424680654E-01 0.  0.
         14    1    1    2    0    0  0.17310007724E-01 -0.13053327099E-01  0.84974376965E-02  0.23285879051E-01  0.00000000000E+00 0.  1.
     999901    1    3    3    0    0  0.91693442548E-01  0.34596255672E-02  0.12217517177E+00  0.84886478842E+00  0.83500000000E+00 0.  1.
        -11    1    4    4    0    0 -0.32039935550E-01  0.12384655935E-01 -0.36497626400E-01  0.50122599958E-01  0.51100000000E-03 0. -1.
         11    1    4    4    0    0 -0.76963514721E-01 -0.27909544032E-02 -0.94174983065E-01  0.12165673258E+00  0.51100000000E-03 0.  1.
</event>
<event>
 8    1  0.5716970E+005  0.1043930E+01  0.7957747E-01            NaN
         13   -1    0    0    0    0  0.00000000000E+00  0.00000000000E+00  0.74505805969E-08  0.10566000000E+00  0.10566000000E+00 0.  1.
     999900   -1    0    0    0    0 -0.00000000000E+00 -0.00000000000E+00 -0.74505805969E-08  0.93827000000E+00  0.93827000000E+00 0.  1.
     999902    2    1    2    0    0  0.10294528583E-01 -0.21171832082E-01  0.55308522808E-02  0.10197470697E+01  0.10194602846E+01 0.  0.
     999903    2    3    3    0    0 -0.14880436256E+00 -0.40699481980E-01  0.62324647938E-01  0.16760604760E+00  0.20204932547E-01 0.  0.
         14    1    1    2    0    0 -0.10294528583E-01  0.21171832082E-01 -0.55308522808E-02  0.24182930331E-01  0.00000000000E+00 0. -1.
     999901    1    3    3    0    0  0.15909889115E+00  0.19527649898E-01 -0.56793795657E-01  0.85214102207E+00  0.83500000000E+00 0.  1.
        -11    1    4    4    0    0 -0.50836237097E-01 -0.16516683638E-01  0.11745618898E-01  0.54729740771E-01  0.51100000000E-03 0. -1.
         11    1    4    4    0    0 -0.97968125465E-01 -0.24182798341E-01  0.50579029040E-01  0.11287630682E+00  0.51100000000E-03 0.  1.
</event>
<event>
 8    1  0.5790812E+005  0.1043930E+01  0.7957747E-01            NaN
         13   -1    0    0    0    0  0.00000000000E+00  0.00000000000E+00  0.74505805969E-08  0.10566000000E+00  0.10566000000E+00 0. -1.
     999900   -1    0    0    0    0 -0.00000000000E+00 -0.00000000000E+00 -0.74505805969E-08  0.93827000000E+00  0.93827000000E+00 0. -1.
     999902    2    1    2    0    0  0.92008263058E-02 -0.15154750189E-01 -0.16795949234E-01  0.10195081743E+01  0.10192156258E+01 0.  0.
     999903    2    3    3    0    0  0.86805501905E-02  0.12534917135E+00  0.10402467024E+00  0.16419288467E+00  0.18719098463E-01 0.  0.
         14    1    1    2    0    0 -0.92008263058E-02  0.15154750189E-01  0.16795949234E-01  0.24421825662E-01  0.00000000000E+00 0. -1.
     999901    1    3    3    0    0  0.52027611528E-03 -0.14050392154E+00 -0.12082061947E+00  0.85531528967E+00  0.83500000000E+00 0. -1.
        -11    1    4    4    0    0 -0.18558977127E-02  0.38889421470E-01  0.41951992588E-01  0.57236895982E-01  0.51100000000E-03 0.  1.
         11    1    4    4    0    0  0.10536447903E-01  0.86459749883E-01  0.62072677647E-01  0.10695598868E+00  0.51100000000E-03 0. -1.
</event>
<event>
 8    1  0.5716970E+005  0.1043930E+01  0.7957747E-01            NaN
         13   -1    0    0    0    0  0.00000000000E+00  0.00000000000E+00  0.74505805969E-08  0.10566000000E+00  0.10566000000E+00 0.  1.
     999900   -1    0    0    0    0 -0.00000000000E+00 -0.00000000000E+00 -0.74505805969E-08  0.93827000000E+00  0.93827000000E+00 0.  1.
     999902    2    1    2    0    0  0.20950586802E-01 -0.28403537817E-02  0.90103147856E-02  0.10209478228E+01  0.10206891184E+01 0.  0.
     999903    2    3    3    0    0  0.11867300800E+00 -0.12191005802E+00 -0.13135156479E-01  0.17156999875E+00  0.17843403812E-01 0.  0.
         14    1    1    2    0    0 -0.20950586802E-01  0.28403537817E-02 -0.90103147856E-02  0.22982177214E-01  0.00000000000E+00 0. -1.
     999901    1    3    3    0    0 -0.97722421200E-01  0.11906970424E+00  0.22145471265E-01  0.84937782404E+00  0.83500000000E+00 0.  1.
        -11    1    4    4    0    0  0.79541766375E-01 -0.71767564802E-01 -0.13353009537E-01  0.10796314158E+00  0.51100000000E-03 0.  1.
         11    1    4    4    0    0  0.39131241627E-01 -0.50142493217E-01  0.21785305775E-03  0.63606857164E-01  0.51100000000E-03 0. -1.
</event>
<event>
 8    1  0.5716970E+005  0.1043930E+01  0.7957747E-01            NaN
         13   -1    0    0    0    0  0.00000000000E+00  0.00000000000E+00  0.74505805969E-08  0.10566000000E+00  0.10566000000E+00 0.  1.
     999900   -1    0    0    0    0 -0.00000000000E+00 -0.00000000000E+00 -0.74505805969E-08  0.93827000000E+00  0.93827000000E+00 0. -1.
     999902    2    1    2    0    0 -0.22200664258E-01 -0.31185149123E-02  0.76572406290E-02  0.10202397496E+01  0.10199646654E+01 0.  0.
     999903    2    3    3    0    0  0.58650361566E-01  0.14873777306E+00  0.43771669666E-01  0.16693647847E+00  0.19724064853E-01 0.  0.
         14    1    1    2    0    0  0.22200664258E-01  0.31185149123E-02 -0.76572406290E-02  0.23690250374E-01  0.00000000000E+00 0. -1.
     999901    1    3    3    0    0 -0.80851025824E-01 -0.15185628797E+00 -0.36114429037E-01  0.85330327115E+00  0.83500000000E+00 0.  1.
        -11    1    4    4    0    0  0.41232602328E-01  0.79694905468E-01  0.28057156524E-01  0.94015267938E-01  0.51100000000E-03 0. -1.
         11    1    4    4    0    0  0.17417759239E-01  0.69042867589E-01  0.15714513142E-01  0.72921210536E-01  0.51100000000E-03 0.  1.
</event>
<event>
 8    1  0.5716970E+005  0.1043930E+01  0.7957747E-01            NaN
         13   -1    0    0    0    0  0.00000000000E+00  0.00000000000E+00  0.74505805969E-08  0.10566000000E+00  0.10566000000E+00 0. -1.
     999900   -1    0    0    0    0 -0.00000000000E+00 -0.00000000000E+00 -0.74505805969E-08  0.93827000000E+00  0.93827000000E+00 0.  1.
     999902    2    1    2    0    0 -0.98827382655E-02 -0.36887976123E-01 -0.10388281786E-02  0.10057269836E+01  0.10050011418E+01 0.  0.
     999903    2    3    3    0    0  0.12216712285E+00 -0.97187382790E-01  0.14413214680E-01  0.15806139512E+00  0.20136300351E-01 0.  0.
         14    1    1    2    0    0  0.98827382655E-02  0.36887976123E-01  0.10388281786E-02  0.38203016400E-01  0.00000000000E+00 0. -1.
     999901    1    3    3    0    0 -0.13204986111E+00  0.60299406667E-01 -0.15452042859E-01  0.84766558848E+00  0.83500000000E+00 0.  1.
        -11    1    4    4    0    0  0.40368818976E-02 -0.35188617755E-02 -0.32252350737E-02  0.62723254006E-02  0.51100000000E-03 0. -1.
         11    1    4    4    0    0  0.11813024095E+00 -0.93668521015E-01  0.17638449754E-01  0.15178906972E+00  0.51100000000E-03 0.  1.
</event>
<event>
 8    1  0.5716970E+005  0.1043930E+01  0.7957747E-01            NaN
         13   -1    0    0    0    0  0.00000000000E+00  0.00000000000E+00  0.74505805969E-08  0.10566000000E+00  0.10566000000E+00 0. -1.
     999900   -1    0    0    0    0 -0.00000000000E+00 -0.00000000000E+00 -0.74505805969E-08  0.93827000000E+00  0.93827000000E+00 0.  1.
     999902    2    1    2    0    0 -0.20890860516E-01  0.90076992439E-02 -0.68596423390E-02  0.10201682368E+01  0.10198914697E+01 0.  0.
     999903    2    3    3    0    0 -0.12593032163E+00  0.10385874381E+00 -0.50882796878E-01  0.17211573416E+00  0.19740373791E-01 0.  0.
         14    1    1    2    0    0  0.20890860516E-01 -0.90076992439E-02  0.68596423390E-02  0.23761763230E-01  0.00000000000E+00 0. -1.
     999901    1    3    3    0    0  0.10503946111E+00 -0.94851044564E-01  0.44023154539E-01  0.84805250261E+00  0.83500000000E+00 0. -1.
        -11    1    4    4    0    0 -0.28657169500E-01  0.29670559363E-01 -0.54335641909E-02  0.41609616647E-01  0.51100000000E-03 0. -1.
         11    1    4    4    0    0 -0.97273152126E-01  0.74188184445E-01 -0.45449232687E-01  0.13050611751E+00  0.51100000000E-03 0.  1.
</event>
<event>
 8    1  0.5716970E+005  0.1043930E+01  0.7957747E-01            NaN
         13   -1    0    0    0    0  0.00000000000E+00  0.00000000000E+00  0.74505805969E-08  0.10566000000E+00  0.10566000000E+00 0. -1.
     999900   -1    0    0    0    0 -0.00000000000E+00 -0.00000000000E+00 -0.74505805969E-08  0.93827000000E+00  0.93827000000E+00 0. -1.
     999902    2    1    2    0    0 -0.16400758259E-01 -0.19678510457E-02 -0.16396950426E-01  0.10206551790E+01  0.10203897673E+01 0.  0.
     999903    2    3    3    0    0  0.91401991161E-02  0.12858789568E+00  0.10368408322E+00  0.16664019193E+00  0.20004356959E-01 0.  0.
         14    1    1    2    0    0  0.16400758259E-01  0.19678510457E-02  0.16396950426E-01  0.23274820997E-01  0.00000000000E+00 0. -1.
     999901    1    3    3    0    0 -0.25540957375E-01 -0.13055574673E+00 -0.12008103365E+00  0.85401498707E+00  0.83500000000E+00 0.  1.
        -11    1    4    4    0    0  0.12567967729E-01  0.70704403781E-01  0.49026751241E-01  0.86953723239E-01  0.51100000000E-03 0.  1.
         11    1    4    4    0    0 -0.34277686128E-02  0.57883491899E-01  0.54657331979E-01  0.79686468689E-01  0.51100000000E-03 0. -1.
</event>
<event>
 8    1  0.5716970E+005  0.1043930E+01  0.7957747E-01            NaN
         13   -1    0    0    0    0  0.00000000000E+00  0.00000000000E+00  0.74505805969E-08  0.10566000000E+00  0.10566000000E+00 0. -1.
     999900   -1    0    0    0    0 -0.00000000000E+00 -0.00000000000E+00 -0.74505805969E-08  0.93827000000E+00  0.93827000000E+00 0.  1.
     999902    2    1    2    0    0  0.75683376156E-02  0.26671924870E-02 -0.22276810034E-01  0.10202519529E+01  0.10199771554E+01 0.  0.
     999903    2    3    3    0    0  0.75400857214E-01  0.94209353283E-01  0.11321108779E+00  0.16669282290E+00  0.20225115393E-01 0.  0.
         14    1    1    2    0    0 -0.75683376156E-02 -0.26671924870E-02  0.22276810034E-01  0.23678047118E-01  0.00000000000E+00 0. -1.
     999901    1    3    3    0    0 -0.67832519598E-01 -0.91542160796E-01 -0.13548789783E+00  0.85355912998E+00  0.83500000000E+00 0. -1.
        -11    1    4    4    0    0  0.27878121586E-01  0.43049410747E-01  0.36453050024E-01  0.62924775771E-01  0.51100000000E-03 0. -1.
         11    1    4    4    0    0  0.47522735628E-01  0.51159942537E-01  0.76758037769E-01  0.10376804713E+00  0.51100000000E-03 0.  1.
</event>
<event>
 8    1  0.5716970E+005  0.1043930E+01  0.7957747E-01            NaN
         13   -1    0    0    0    0  0.00000000000E+00  0.00000000000E+00  0.74505805969E-08  0.10566000000E+00  0.10566000000E+00 0.  1.
     999900   -1    0    0    0    0 -0.00000000000E+00 -0.00000000000E+00 -0.74505805969E-08  0.93827000000E+00  0.93827000000E+00 0.  1.
     999902    2    1    2    0    0 -0.16068213332E-02  0.14921335649E-02  0.23626796156E-01  0.10202016660E+01  0.10199256863E+01 0.  0.
     999903    2    3    3    0    0  0.14486468267E-01  0.12793235831E+00  0.11083664622E+00  0.17103932443E+00  0.19827816090E-01 0.  0.
         14    1    1    2    0    0  0.16068213332E-02 -0.14921335649E-02 -0.23626796156E-01  0.23728333991E-01  0.00000000000E+00 0. -1.
     999901    1    3    3    0    0 -0.16093289600E-01 -0.12644022474E+00 -0.87209850067E-01  0.84916234158E+00  0.83500000000E+00 0.  1.
        -11    1    4    4    0    0  0.39686224712E-02  0.79199883575E-01  0.56987178966E-01  0.97653321552E-01  0.51100000000E-03 0. -1.
         11    1    4    4    0    0  0.10517845796E-01  0.48732474733E-01  0.53849467257E-01  0.73386002880E-01  0.51100000000E-03 0.  1.
</event>
<event>
 8    1  0.5716970E+005  0.1043930E+01  0.7957747E-01            NaN
         13   -1    0    0    0    0  0.00000000000E+00  0.00000000000E+00  0.74505805969E-08  0.10566000000E+00  0.10566000000E+00 0.  1.
     999900   -1    0    0    0    0 -0.00000000000E+00 -0.00000000000E+00 -0.74505805969E-08  0.93827000000E+00  0.93827000000E+00 0. -1.
     999902    2    1    2    0    0  0.16176569860E-01 -0.33668004754E-02  0.16729313881E-01  0.10204164571E+01  0.10201455088E+01 0.  0.
     999903    2    3    3    0    0  0.33656537459E-01 -0.16486473812E+00 -0.49082863717E-02  0.16948736551E+00  0.19716272517E-01 0.  0.
         14    1    1    2    0    0 -0.16176569860E-01  0.33668004754E-02 -0.16729313881E-01  0.23513542924E-01  0.00000000000E+00 0. -1.
     999901    1    3    3    0    0 -0.17479967599E-01  0.16149793765E+00  0.21637600253E-01  0.85092909157E+00  0.83500000000E+00 0.  1.
        -11    1    4    4    0    0  0.52021658142E-02 -0.50197527814E-01 -0.90254942680E-02  0.51269630343E-01  0.51100000000E-03 0. -1.
         11    1    4    4    0    0  0.28454371645E-01 -0.11466721031E+00  0.41172078962E-02  0.11821773517E+00  0.51100000000E-03 0.  1.
</event>
<event>
 8    1  0.5716970E+005  0.1043930E+01  0.7957747E-01            NaN
         13   -1    0    0    0    0  0.00000000000E+00  0.00000000000E+00  0.74505805969E-08  0.10566000000E+00  0.10566000000E+00 0.  1.
     999900   -1    0    0    0    0 -0.00000000000E+00 -0.00000000000E+00 -0.74505805969E-08  0.93827000000E+00  0.93827000000E+00 0.  1.
     999902    2    1    2    0    0  0.11674368325E-01  0.19551433195E-01 -0.63661393593E-02  0.10202851878E+01  0.10200111701E+01 0.  0.
     999903    2    3    3    0    0 -0.74237766730E-02  0.10896384439E-01 -0.16794093380E+00  0.16953783207E+00  0.19106951660E-01 0.  0.
         14    1    1    2    0    0 -0.11674368325E-01 -0.19551433195E-01  0.63661393593E-02  0.23644812245E-01  0.00000000000E+00 0. -1.
     999901    1    3    3    0    0  0.19098144998E-01  0.86550487559E-02  0.16157479444E+00  0.85074735569E+00  0.83500000000E+00 0. -1.
        -11    1    4    4    0    0  0.11723982501E-02  0.96792306395E-02 -0.13838287803E+00  0.13872686862E+00  0.51100000000E-03 0. -1.
         11    1    4    4    0    0 -0.85961749231E-02  0.12171537996E-02 -0.29558055767E-01  0.30810963445E-01  0.51100000000E-03 0.  1.
</event>
<event>
 8    1  0.5716970E+005  0.1043930E+01  0.7957747E-01            NaN
         13   -1    0    0    0    0  0.00000000000E+00  0.00000000000E+00  0.74505805969E-08  0.10566000000E+00  0.10566000000E+00 0.  1.
     999900   -1    0    0    0    0 -0.00000000000E+00 -0.00000000000E+00 -0.74505805969E-08  0.93827000000E+00  0.93827000000E+00 0. -1.
     999902    2    1    2    0    0  0.22909428766E-01 -0.78625571734E-03  0.40568643199E-02  0.10206508619E+01  0.10203853505E+01 0.  0.
     999903    2    3    3    0    0  0.11958915511E+00 -0.11466188697E+00  0.35602526002E-01  0.17180767396E+00  0.28309408824E-01 0.  0.
         14    1    1    2    0    0 -0.22909428766E-01  0.78625571734E-03 -0.40568643199E-02  0.23279138140E-01  0.00000000000E+00 0. -1.
     999901    1    3    3    0    0 -0.96679726345E-01  0.11387563126E+00 -0.31545661682E-01  0.84884318790E+00  0.83500000000E+00 0.  1.
        -11    1    4    4    0    0  0.41401451449E-01 -0.55741996317E-01  0.22722373595E-01  0.73060370367E-01  0.51100000000E-03 0.  1.
         11    1    4    4    0    0  0.78187703662E-01 -0.58919890657E-01  0.12880152407E-01  0.98747303588E-01  0.51100000000E-03 0. -1.
</event>
<event>
 8    1  0.5716970E+005  0.1043930E+01  0.7957747E-01            NaN
         13   -1    0    0    0    0  0.00000000000E+00  0.00000000000E+00  0.74505805969E-08  0.10566000000E+00  0.10566000000E+00 0. -1.
     999900   -1    0    0    0    0 -0.00000000000E+00 -0.00000000000E+00 -0.74505805969E-08  0.93827000000E+00  0.93827000000E+00 0.  1.
     999902    2    1    2    0    0  0.81453403411E-02  0.15817295272E-01  0.15000459527E-01  0.10206588336E+01  0.10203935062E+01 0.  0.
     999903    2    3    3    0    0  0.11364268257E+00  0.32612893475E-01 -0.11820046384E+00  0.16837996650E+00  0.20055008007E-01 0.  0.
         14    1    1    2    0    0 -0.81453403411E-02 -0.15817295272E-01 -0.15000459527E-01  0.23271166387E-01  0.00000000000E+00 0.  1.
     999901    1    3    3    0    0 -0.10549734223E+00 -0.16795598204E-01  0.13320092336E+00  0.85227886711E+00  0.83500000000E+00 0. -1.
        -11    1    4    4    0    0  0.10368116031E+00  0.35254242831E-01 -0.10613823800E+00  0.15250649602E+00  0.51100000000E-03 0.  1.
         11    1    4    4    0    0  0.99615222649E-02 -0.26413493562E-02 -0.12062225835E-01  0.15873470488E-01  0.51100000000E-03 0. -1.
</event>
<event>
 8    1  0.5716970E+005  0.1043930E+01  0.7957747E-01            NaN
         13   -1    0    0    0    0  0.00000000000E+00  0.00000000000E+00  0.74505805969E-08  0.10566000000E+00  0.10566000000E+00 0. -1.
     999900   -1    0    0    0    0 -0.00000000000E+00 -0.00000000000E+00 -0.74505805969E-08  0.93827000000E+00  0.93827000000E+00 0. -1.
     999902    2    1    2    0    0 -0.51398404680E-02  0.18531593288E-01 -0.14640032809E-01  0.10197604226E+01  0.10194739580E+01 0.  0.
     999903    2    3    3    0    0  0.34666576025E-01  0.10514922686E+00 -0.12970987042E+00  0.17149558617E+00  0.18109505528E-01 0.  0.
         14    1    1    2    0    0  0.51398404680E-02 -0.18531593288E-01  0.14640032809E-01  0.24169577375E-01  0.00000000000E+00 0. -1.
     999901    1    3    3    0    0 -0.39806416493E-01 -0.86617633568E-01  0.11506983761E+00  0.84826483646E+00  0.83500000000E+00 0. -1.
        -11    1    4    4    0    0  0.32030016250E-01  0.70655493601E-01 -0.90826549470E-01  0.11944808046E+00  0.51100000000E-03 0. -1.
         11    1    4    4    0    0  0.26365597749E-02  0.34493733255E-01 -0.38883320948E-01  0.52047505706E-01  0.51100000000E-03 0.  1.
</event>
<event>
 8    1  0.5716970E+005  0.1043930E+01  0.7957747E-01            NaN
         13   -1    0    0    0    0  0.00000000000E+00  0.00000000000E+00  0.74505805969E-08  0.10566000000E+00  0.10566000000E+00 0. -1.
     999900   -1    0    0    0    0 -0.00000000000E+00 -0.00000000000E+00 -0.74505805969E-08  0.93827000000E+00  0.93827000000E+00 0. -1.
     999902    2    1    2    0    0  0.54659137431E-02 -0.21794629609E-01  0.36786785949E-02  0.10211612765E+01  0.10209074091E+01 0.  0.
     999903    2    3    3    0    0  0.13511922387E+00  0.20942640514E-01  0.98488822907E-01  0.16977980000E+00  0.20720361958E-01 0.  0.
         14    1    1    2    0    0 -0.54659137431E-02  0.21794629609E-01 -0.36786785949E-02  0.22768723483E-01  0.00000000000E+00 0.  1.
     999901    1    3    3    0    0 -0.12965331013E+00 -0.42737270123E-01 -0.94810144312E-01  0.85138147651E+00  0.83500000000E+00 0. -1.
        -11    1    4    4    0    0  0.66618090842E-01  0.20062561249E-01  0.44952460247E-01  0.82833937457E-01  0.51100000000E-03 0. -1.
         11    1    4    4    0    0  0.68501133032E-01  0.88007926470E-03  0.53536362660E-01  0.86945862547E-01  0.51100000000E-03 0.  1.
</event>
<event>
 8    1  0.5716970E+005  0.1043930E+01  0.7957747E-01            NaN
         13   -1    0    0    0    0  0.00000000000E+00  0.00000000000E+00  0.74505805969E-08  0.10566000000E+00  0.10566000000E+00 0.  1.
     999900   -1    0    0    0    0 -0.00000000000E+00 -0.00000000000E+00 -0.74505805969E-08  0.93827000000E+00  0.93827000000E+00 0.  1.
     999902    2    1    2    0    0  0.16315030393E-01 -0.16762636514E-01  0.64603449010E-02  0.10196626916E+01  0.10193738776E+01 0.  0.
     999903    2    3    3    0    0 -0.10575877429E-01 -0.25071555340E-01  0.16578052608E+00  0.16913339807E+00  0.19557388489E-01 0.  0.
         14    1    1    2    0    0 -0.16315030393E-01  0.16762636514E-01 -0.64603449010E-02  0.24267308378E-01  0.00000000000E+00 0.  1.
     999901    1    3    3    0    0  0.26890907822E-01  0.83089188258E-02 -0.15932018118E+00  0.85052929355E+00  0.83500000000E+00 0.  1.
        -11    1    4    4    0    0 -0.95179226331E-02 -0.35409409405E-02  0.30631528601E-01  0.32275079852E-01  0.51100000000E-03 0. -1.
         11    1    4    4    0    0 -0.10579547959E-02 -0.21530614400E-01  0.13514899748E+00  0.13685831822E+00  0.51100000000E-03 0.  1.
</event>
<event>
 8    1  0.5716970E+005  0.1043930E+01  0.7957747E-01            NaN
         13   -1    0    0    0    0  0.00000000000E+00  0.00000000000E+00  0.74505805969E-08  0.10566000000E+00  0.10566000000E+00 0. -1.
     999900   -1    0    0    0    0 -0.00000000000E+00 -0.00000000000E+00 -0.74505805969E-08  0.93827000000E+00  0.93827000000E+00 0. -1.
     999902    2    1    2    0    0  0.18408271332E-01  0.14729174674E-01  0.11467573345E-02  0.10203264390E+01  0.10200533878E+01 0.  0.
     999903    2    3    3    0    0 -0.10505317201E+00  0.12923752499E+00  0.14347488249E-01  0.16841438391E+00  0.20470649108E-01 0.  0.
         14    1    1    2    0    0 -0.18408271332E-01 -0.14729174674E-01 -0.11467573345E-02  0.23603561011E-01  0.00000000000E+00 0.  1.
     999901    1    3    3    0    0  0.12346144334E+00 -0.11450835032E+00 -0.13200730915E-01  0.85191205507E+00  0.83500000000E+00 0. -1.
        -11    1    4    4    0    0 -0.44365819396E-01  0.61058305993E-01 -0.28518733207E-02  0.75530371135E-01  0.51100000000E-03 0.  1.
         11    1    4    4    0    0 -0.60687352611E-01  0.68179219001E-01  0.17199361570E-01  0.92884012779E-01  0.51100000000E-03 0. -1.
</event>
<event>
 8    1  0.5716970E+005  0.1043930E+01  0.7957747E-01            NaN
         13   -1    0    0    0    0  0.00000000000E+00  0.00000000000E+00  0.74505805969E-08  0.10566000000E+00  0.10566000000E+00 0.  1.
     999900   -1    0    0    0    0 -0.00000000000E+00 -0.00000000000E+00 -0.74505805969E-08  0.93827000000E+00  0.93827000000E+00 0. -1.
     999902    2    1    2    0    0 -0.15842877895E-01 -0.12361325374E-01 -0.11679781481E-01  0.10206874433E+01  0.10204227754E+01 0.  0.
     999903    2    3    3    0    0  0.97688230480E-03 -0.16559358692E+00 -0.37746764783E-01  0.17117727981E+00  0.21322582927E-01 0.  0.
         14    1    1    2    0    0  0.15842877895E-01  0.12361325374E-01  0.11679781481E-01  0.23242556667E-01  0.00000000000E+00 0.  1.
     999901    1    3    3    0    0 -0.16819760199E-01  0.15323226155E+00  0.26066983302E-01  0.84951016352E+00  0.83500000000E+00 0.  1.
        -11    1    4    4    0    0 -0.68225415011E-02 -0.13341918515E+00 -0.34019630890E-01  0.13785797926E+00  0.51100000000E-03 0.  1.
         11    1    4    4    0    0  0.77994238059E-02 -0.32174401770E-01 -0.37271338931E-02  0.33319300548E-01  0.51100000000E-03 0. -1.
</event>
<event>
 8    1  0.5716970E+005  0.1043930E+01  0.7957747E-01            NaN
         13   -1    0    0    0    0  0.00000000000E+00  0.00000000000E+00  0.74505805969E-08  0.10566000000E+00  0.10566000000E+00 0.  1.
     999900   -1    0    0    0    0 -0.00000000000E+00 -0.00000000000E+00 -0.74505805969E-08  0.93827000000E+00  0.93827000000E+00 0.  1.
     999902    2    1    2    0    0 -0.15503449696E-01  0.76863890479E-02  0.16361371471E-01  0.10201154665E+01  0.10198374542E+01 0.  0.
     999903    2    3    3    0    0 -0.19596659658E-01  0.13976206447E+00  0.94638079508E-01  0.17110841034E+00  0.20106174687E-01 0.  0.
         14    1    1    2    0    0  0.15503449696E-01 -0.76863890479E-02 -0.16361371471E-01  0.23814533492E-01  0.00000000000E+00 0. -1.
     999901    1    3    3    0    0  0.40932099625E-02 -0.13207567542E+00 -0.78276708037E-01  0.84900705617E+00  0.83500000000E+00 0.  1.
        -11    1    4    4    0    0 -0.16922993246E-01  0.54018594572E-01  0.41585500583E-01  0.70242517322E-01  0.51100000000E-03 0. -1.
         11    1    4    4    0    0 -0.26736664118E-02  0.85743469898E-01  0.53052578924E-01  0.10086589302E+00  0.51100000000E-03 0.  1.
</event>
<event>
 8    1  0.5716970E+005  0.1043930E+01  0.7957747E-01            NaN
         13   -1    0    0    0    0  0.00000000000E+00  0.00000000000E+00  0.74505805969E-08  0.10566000000E+00  0.10566000000E+00 0. -1.
     999900   -1    0    0    0    0 -0.00000000000E+00 -0.00000000000E+00 -0.74505805969E-08  0.93827000000E+00  0.93827000000E+00 0.  1.
     999902    2    1    2    0    0  0.10651745830E-01 -0.73205258273E-02  0.76993739807E-02  0.10288857271E+01  0.10287757332E+01 0.  0.
     999903    2    3    3    0    0  0.73934218250E-01 -0.14682789303E+00 -0.62665507838E-01  0.17703879635E+00  0.19775508576E-01 0.  0.
         14    1    1    2    0    0 -0.10651745830E-01  0.73205258273E-02 -0.76993739807E-02  0.15044272907E-01  0.00000000000E+00 0.  1.
     999901    1    3    3    0    0 -0.63282472420E-01  0.13950736721E+00  0.70364881818E-01  0.85184693074E+00  0.83500000000E+00 0. -1.
        -11    1    4    4    0    0  0.14346900138E-01 -0.16238127245E-01 -0.43726139452E-02  0.22110884055E-01  0.51100000000E-03 0.  1.
         11    1    4    4    0    0  0.59587318113E-01 -0.13058976579E+00 -0.58292893893E-01  0.15492791230E+00  0.51100000000E-03 0. -1.
</event>
<event>
 8    1  0.5716970E+005  0.1043930E+01  0.7957747E-01            NaN
         13   -1    0    0    0    0  0.00000000000E+00  0.00000000000E+00  0.74505805969E-08  0.10566000000E+00  0.10566000000E+00 0.  1.
     999900   -1    0    0    0    0 -0.00000000000E+00 -0.00000000000E+00 -0.74505805969E-08  0.93827000000E+00  0.93827000000E+00 0.  1.
     999902    2    1    2    0    0 -0.21910328205E-01  0.31665321758E-02  0.78802124877E-02  0.10204313371E+01  0.10201607357E+01 0.  0.
     999903    2    3    3    0    0  0.99301371421E-01 -0.64810608923E-01  0.11591343376E+00  0.16707950773E+00  0.20456304204E-01 0.  0.
         14    1    1    2    0    0  0.21910328205E-01 -0.31665321758E-02 -0.78802124877E-02  0.23498662876E-01  0.00000000000E+00 0. -1.
     999901    1    3    3    0    0 -0.12121169963E+00  0.67977141099E-01 -0.10803322127E+00  0.85335182940E+00  0.83500000000E+00 0.  1.
        -11    1    4    4    0    0  0.52816353585E-01 -0.34314976995E-01  0.75620001836E-01  0.98416109712E-01  0.51100000000E-03 0. -1.
         11    1    4    4    0    0  0.46485017836E-01 -0.30495631928E-01  0.40293431921E-01  0.68663398015E-01  0.51100000000E-03 0.  1.
</event>
<event>
 8    1  0.5716970E+005  0.1043930E+01  0.7957747E-01            NaN
         13   -1    0    0    0    0  0.00000000000E+00  0.00000000000E+00  0.74505805969E-08  0.10566000000E+00  0.10566000000E+00 0.  1.
     999900   -1    0    0    0    0 -0.00000000000E+00 -0.00000000000E+00 -0.74505805969E-08  0.93827000000E+00  0.93827000000E+00 0.  1.
     999902    2    1    2    0    0  0.73730937028E-02  0.17833198437E-01 -0.13324479235E-01  0.10204794728E+01  0.10202099917E+01 0.  0.
     999903    2    3    3    0    0  0.12886883369E+00  0.11013122585E+00 -0.18311639671E-01  0.17163908003E+00  0.19712798950E-01 0.  0.
         14    1    1    2    0    0 -0.73730937028E-02 -0.17833198437E-01  0.13324479235E-01  0.23450527161E-01  0.00000000000E+00 0. -1.
     999901    1    3    3    0    0 -0.12149573999E+00 -0.92298027409E-01  0.49871604368E-02  0.84884039281E+00  0.83500000000E+00 0. -1.
        -11    1    4    4    0    0  0.94377824080E-01  0.75970243734E-01 -0.48230749481E-02  0.12125252486E+00  0.51100000000E-03 0.  1.
         11    1    4    4    0    0  0.34491009610E-01  0.34160982111E-01 -0.13488564723E-01  0.50386555171E-01  0.51100000000E-03 0. -1.
</event>
<event>
 8    1  0.5716970E+005  0.1043930E+01  0.7957747E-01            NaN
         13   -1    0    0    0    0  0.00000000000E+00  0.00000000000E+00  0.74505805969E-08  0.10566000000E+00  0.10566000000E+00 0. -1.
     999900   -1    0    0    0    0 -0.00000000000E+00 -0.00000000000E+00 -0.74505805969E-08  0.93827000000E+00  0.93827000000E+00 0. -1.
     999902    2    1    2    0    0 -0.95008452517E-03  0.18345996161E-01  0.15361721239E-01  0.10199829602E+01  0.10197018086E+01 0.  0.
     999903    2    3    3    0    0  0.32319489813E-01  0.11859744764E+00  0.11864566156E+00  0.17201492399E+00  0.20060834001E-01 0.  0.
         14    1    1    2    0    0  0.95008452517E-03 -0.18345996161E-01 -0.15361721239E-01  0.23947039800E-01  0.00000000000E+00 0. -1.
     999901    1    3    3    0    0 -0.33269574338E-01 -0.10025145148E+00 -0.10328394032E+00  0.84796803621E+00  0.83500000000E+00 0.  1.
        -11    1    4    4    0    0  0.24957934517E-01  0.86884801689E-01  0.74392854562E-01  0.11707444294E+00  0.51100000000E-03 0.  1.
         11    1    4    4    0    0  0.73615552960E-02  0.31712645949E-01  0.44252807000E-01  0.54940481049E-01  0.51100000000E-03 0. -1.
</event>
<event>
 8    1  0.5716970E+005  0.1043930E+01  0.7957747E-01            NaN
         13   -1    0    0    0    0  0.00000000000E+00  0.00000000000E+00  0.74505805969E-08  0.10566000000E+00  0.10566000000E+00 0. -1.
     999900   -1    0    0    0    0 -0.00000000000E+00 -0.00000000000E+00 -0.74505805969E-08  0.93827000000E+00  0.93827000000E+00 0. -1.
     999902    2    1    2    0    0 -0.14038632708E-01  0.37839904937E-03 -0.19364552936E-01  0.10200090405E+01  0.10197285082E+01 0.  0.
     999903    2    3    3    0    0 -0.15341293385E+00  0.28965050528E-01 -0.68436595821E-01  0.17155429339E+00  0.19308172065E-01 0.  0.
         14    1    1    2    0    0  0.14038632708E-01 -0.37839904937E-03  0.19364552936E-01  0.23920959524E-01  0.00000000000E+00 0. -1.
     999901    1    3    3    0    0  0.13937430114E+00 -0.28586651479E-01  0.49072042885E-01  0.84845474709E+00  0.83500000000E+00 0.  1.
        -11    1    4    4    0    0 -0.48718303028E-01  0.54715499583E-03 -0.18335034894E-01  0.52059649001E-01  0.51100000000E-03 0. -1.
         11    1    4    4    0    0 -0.10469463082E+00  0.28417895532E-01 -0.50101560927E-01  0.11949464439E+00  0.51100000000E-03 0.  1.
</event>
<event>
 8    1  0.6909788E+005  0.1043930E+01  0.7957747E-01            NaN
         13   -1    0    0    0    0  0.00000000000E+00  0.00000000000E+00  0.74505805969E-08  0.10566000000E+00  0.10566000000E+00 0. -1.
     999900   -1    0    0    0    0 -0.00000000000E+00 -0.00000000000E+00 -0.74505805969E-08  0.93827000000E+00  0.93827000000E+00 0.  1.
     999902    2    1    2    0    0  0.14889514901E-01 -0.13513793129E-01  0.12976899269E-01  0.10199984273E+01  0.10197176430E+01 0.  0.
     999903    2    3    3    0    0  0.16600236002E+00 -0.30720288827E-01 -0.17777951665E-01  0.17070341592E+00  0.17974453026E-01 0.  0.
         14    1    1    2    0    0 -0.14889514901E-01  0.13513793129E-01 -0.12976899269E-01  0.23931572731E-01  0.00000000000E+00 0.  1.
     999901    1    3    3    0    0 -0.15111284512E+00  0.17206495698E-01  0.30754850934E-01  0.84929501135E+00  0.83500000000E+00 0.  1.
        -11    1    4    4    0    0  0.48103766730E-01 -0.16748953906E-01 -0.25037936923E-02  0.51000293474E-01  0.51100000000E-03 0.  1.
         11    1    4    4    0    0  0.11789859329E+00 -0.13971334921E-01 -0.15274157972E-01  0.11970312244E+00  0.51100000000E-03 0. -1.
</event>
<event>
 7    1  0.5716970E+005  0.1043930E+01  0.7957747E-01            NaN
         13   -1    0    0    0    0  0.00000000000E+00  0.00000000000E+00  0.74505805969E-08  0.10566000000E+00  0.10566000000E+00 0. -1.
     999900   -1    0    0    0    0 -0.00000000000E+00 -0.00000000000E+00 -0.74505805969E-08  0.93827000000E+00  0.93827000000E+00 0.  1.
     999903    2    1    2    0    0  0.50605725386E-01  0.62575691012E-01 -0.12751183155E+00  0.15209814828E+00  0.19948006839E-01 0.  0.
         14    1    1    2    0    0 -0.23913251268E-01  0.22835073038E-01  0.33057331185E-01  0.46755441308E-01  0.00000000000E+00 0. -1.
     999901    1    1    2    0    0 -0.26692474118E-01 -0.85410764050E-01  0.94454500370E-01  0.84507641041E+00  0.83500000000E+00 0. -1.
        -11    1    3    3    0    0  0.44636012217E-01  0.59076264606E-01 -0.10457631369E+00  0.12813604151E+00  0.51100000000E-03 0.  1.
         11    1    3    3    0    0  0.59697131691E-02  0.34994264059E-02 -0.22935517864E-01  0.23962106777E-01  0.51100000000E-03 0. -1.
</event>
<event>
 8    1  0.5716970E+005  0.1043930E+01  0.7957747E-01            NaN
         13   -1    0    0    0    0  0.00000000000E+00  0.00000000000E+00  0.74505805969E-08  0.10566000000E+00  0.10566000000E+00 0. -1.
     999900   -1    0    0    0    0 -0.00000000000E+00 -0.00000000000E+00 -0.74505805969E-08  0.93827000000E+00  0.93827000000E+00 0.  1.
     999902    2    1    2    0    0 -0.20105655223E-01  0.10797680270E-01  0.74368738091E-02  0.10199272009E+01  0.10196447228E+01 0.  0.
     999903    2    3    3    0    0  0.45056717767E-01 -0.13460885222E+00 -0.82539936362E-01  0.16511141907E+00  0.17299962441E-01 0.  0.
         14    1    1    2    0    0  0.20105655223E-01 -0.10797680270E-01 -0.74368738091E-02  0.24002799071E-01  0.00000000000E+00 0. -1.
     999901    1    3    3    0    0 -0.65162372990E-01  0.14540653249E+00  0.89976810171E-01  0.85481578186E+00  0.83500000000E+00 0.  1.
        -11    1    4    4    0    0  0.28401591452E-01 -0.57785192614E-01 -0.37092242530E-01  0.74309316101E-01  0.51100000000E-03 0. -1.
         11    1    4    4    0    0  0.16655126315E-01 -0.76823659608E-01 -0.45447693832E-01  0.90802102970E-01  0.51100000000E-03 0.  1.
</event>
<event>
 8    1  0.5716970E+005  0.1043930E+01  0.7957747E-01            NaN
         13   -1    0    0    0    0  0.00000000000E+00  0.00000000000E+00  0.74505805969E-08  0.10566000000E+00  0.10566000000E+00 0.  1.
     999900   -1    0    0    0    0 -0.00000000000E+00 -0.00000000000E+00 -0.74505805969E-08  0.93827000000E+00  0.93827000000E+00 0. -1.
     999902    2    1    2    0    0  0.18455930953E-01 -0.14095715436E-01 -0.28632252678E-02  0.10205310975E+01  0.10202628153E+01 0.  0.
     999903    2    3    3    0    0  0.11493224095E+00 -0.26631045591E-01  0.12183004966E+00  0.17068509629E+00  0.19292705861E-01 0.  0.
         14    1    1    2    0    0 -0.18455930953E-01  0.14095715436E-01  0.28632252678E-02  0.23398902537E-01  0.00000000000E+00 0.  1.
     999901    1    3    3    0    0 -0.96476309992E-01  0.12535330155E-01 -0.12469327492E+00  0.84984600117E+00  0.83500000000E+00 0. -1.
        -11    1    4    4    0    0  0.74272399656E-01 -0.10416539585E-01  0.67408986048E-01  0.10084208530E+00  0.51100000000E-03 0.  1.
         11    1    4    4    0    0  0.40659841289E-01 -0.16214506007E-01  0.54421063609E-01  0.69843010989E-01  0.51100000000E-03 0. -1.
</event>
<event>
 8    1  0.5716970E+005  0.1043930E+01  0.7957747E-01            NaN
         13   -1    0    0    0    0  0.00000000000E+00  0.00000000000E+00  0.74505805969E-08  0.10566000000E+00  0.10566000000E+00 0. -1.
     999900   -1    0    0    0    0 -0.00000000000E+00 -0.00000000000E+00 -0.74505805969E-08  0.93827000000E+00  0.93827000000E+00 0.  1.
     999902    2    1    2    0    0  0.71910623045E-02 -0.34631106869E-02 -0.21168180634E-01  0.10213070828E+01  0.10210564925E+01 0.  0.
     999903    2    3    3    0    0  0.11050068925E+00 -0.12629728502E+00 -0.24004669108E-01  0.17101645065E+00  0.22560933653E-01 0.  0.
         14    1    1    2    0    0 -0.71910623045E-02  0.34631106869E-02  0.21168180634E-01  0.22622917231E-01  0.00000000000E+00 0. -1.
     999901    1    3    3    0    0 -0.10330962694E+00  0.12283417433E+00  0.28364884743E-02  0.85029063212E+00  0.83500000000E+00 0. -1.
        -11    1    4    4    0    0  0.61629139769E-01 -0.57357180561E-01 -0.19317871168E-01  0.86379617377E-01  0.51100000000E-03 0. -1.
         11    1    4    4    0    0  0.48871549479E-01 -0.68940104454E-01 -0.46867979403E-02  0.84636833273E-01  0.51100000000E-03 0.  1.
</event>
<event>
 7    1  0.5716970E+005  0.1043930E+01  0.7957747E-01            NaN
         13   -1    0    0    0    0  0.00000000000E+00  0.00000000000E+00  0.74505805969E-08  0.10566000000E+00  0.10566000000E+00 0. -1.
     999900   -1    0    0    0    0 -0.00000000000E+00 -0.00000000000E+00 -0.74505805969E-08  0.93827000000E+00  0.93827000000E+00 0.  1.
     999903    2    1    2    0    0 -0.90140736992E-01  0.10896284967E+00  0.22797460112E-01  0.14470073359E+00  0.20501781385E-01 0.  0.
         14    1    1    2    0    0  0.30164807731E-01  0.11510411611E-01  0.39672634637E-01  0.51150006255E-01  0.00000000000E+00 0. -1.
     999901    1    1    2    0    0  0.59975929261E-01 -0.12047326128E+00 -0.62470094749E-01  0.84807926016E+00  0.83500000000E+00 0.  1.
        -11    1    3    3    0    0 -0.16815131342E-01  0.19868190271E-01  0.12422370304E-01  0.28845624134E-01  0.51100000000E-03 0.  1.
         11    1    3    3    0    0 -0.73325605649E-01  0.89094659396E-01  0.10375089808E-01  0.11585510945E+00  0.51100000000E-03 0. -1.
</event>
<event>
 8    1  0.5716970E+005  0.1043930E+01  0.7957747E-01            NaN
         13   -1    0    0    0    0  0.00000000000E+00  0.00000000000E+00  0.74505805969E-08  0.10566000000E+00  0.10566000000E+00 0. -1.
     999900   -1    0    0    0    0 -0.00000000000E+00 -0.00000000000E+00 -0.74505805969E-08  0.93827000000E+00  0.93827000000E+00 0.  1.
     999902    2    1    2    0    0  0.12352842079E-02 -0.17731915160E-01 -0.15111639885E-01  0.10205995820E+01  0.10203328861E+01 0.  0.
     999903    2    3    3    0    0 -0.10918167173E+00  0.13093925259E-01 -0.12835450058E+00  0.17019316032E+00  0.19968617389E-01 0.  0.
         14    1    1    2    0    0 -0.12352842079E-02  0.17731915160E-01  0.15111639885E-01  0.23330417963E-01  0.00000000000E+00 0. -1.
     999901    1    3    3    0    0  0.11041695594E+00 -0.30825840419E-01  0.11324286070E+00  0.85040642172E+00  0.83500000000E+00 0. -1.
        -11    1    4    4    0    0 -0.82252345046E-01  0.15939362346E-01 -0.10573368001E+00  0.13490509163E+00  0.51100000000E-03 0.  1.
         11    1    4    4    0    0 -0.26929326684E-01 -0.28454370872E-02 -0.22620820572E-01  0.35288068695E-01  0.51100000000E-03 0. -1.
</event>
<event>
 8    1  0.5716970E+005  0.1043930E+01  0.7957747E-01            NaN
         13   -1    0    0    0    0  0.00000000000E+00  0.00000000000E+00  0.74505805969E-08  0.10566000000E+00  0.10566000000E+00 0.  1.
     999900   -1    0    0    0    0 -0.00000000000E+00 -0.00000000000E+00 -0.74505805969E-08  0.93827000000E+00  0.93827000000E+00 0.  1.
     999902    2    1    2    0    0  0.48716603275E-02  0.23674728723E-01 -0.44845944087E-02  0.10193467244E+01  0.10190502475E+01 0.  0.
     999903    2    3    3    0    0  0.72667874300E-01 -0.78044438047E-01 -0.12648814194E+00  0.16667270626E+00  0.20223419460E-01 0.  0.
         14    1    1    2    0    0 -0.48716603275E-02 -0.23674728723E-01  0.44845944087E-02  0.24583275646E-01  0.00000000000E+00 0.  1.
     999901    1    3    3    0    0 -0.67796213973E-01  0.10171916677E+00  0.12200354754E+00  0.85267401809E+00  0.83500000000E+00 0. -1.
        -11    1    4    4    0    0  0.55400982017E-01 -0.64280596034E-01 -0.87695924776E-01  0.12203319294E+00  0.51100000000E-03 0. -1.
         11    1    4    4    0    0  0.17266892283E-01 -0.13763842014E-01 -0.38792217169E-01  0.44639513326E-01  0.51100000000E-03 0.  1.
</event>
<event>
 8    1  0.5716970E+005  0.1043930E+01  0.7957747E-01            NaN
         13   -1    0    0    0    0  0.00000000000E+00  0.00000000000E+00  0.74505805969E-08  0.10566000000E+00  0.10566000000E+00 0. -1.
     999900   -1    0    0    0    0 -0.00000000000E+00 -0.00000000000E+00 -0.74505805969E-08  0.93827000000E+00  0.93827000000E+00 0.  1.
     999902    2    1    2    0    0  0.25082903781E-01 -0.77662052856E-02  0.25679626045E-02  0.10175470426E+01  0.10172049565E+01 0.  0.
     999903    2    3    3    0    0 -0.59303106399E-01 -0.99043662803E-01  0.11685546375E+00  0.16564375830E+00  0.21357661050E-01 0.  0.
         14    1    1    2    0    0 -0.25082903781E-01  0.77662052856E-02 -0.25679626045E-02  0.26382957351E-01  0.00000000000E+00 0.  1.
     999901    1    3    3    0    0  0.84386010181E-01  0.91277457518E-01 -0.11428750115E+00  0.85190328435E+00  0.83500000000E+00 0. -1.
        -11    1    4    4    0    0 -0.51332019872E-01 -0.95030211024E-01  0.10365090790E+00  0.14969799298E+00  0.51100000000E-03 0. -1.
         11    1    4    4    0    0 -0.79710865274E-02 -0.40134517789E-02  0.13204555846E-01  0.15945765322E-01  0.51100000000E-03 0.  1.
</event>
<event>
 8    1  0.5716970E+005  0.1043930E+01  0.7957747E-01            NaN
         13   -1    0    0    0    0  0.00000000000E+00  0.00000000000E+00  0.74505805969E-08  0.10566000000E+00  0.10566000000E+00 0.  1.
     999900   -1    0    0    0    0 -0.00000000000E+00 -0.00000000000E+00 -0.74505805969E-08  0.93827000000E+00  0.93827000000E+00 0.  1.
     999902    2    1    2    0    0  0.11022385021E-01  0.14733558750E-01 -0.13261247354E-01  0.10212489196E+01  0.10209970247E+01 0.  0.
     999903    2    3    3    0    0 -0.16076003398E+00 -0.10897341015E-01 -0.42611623255E-01  0.16787175386E+00  0.20065760472E-01 0.  0.
         14    1    1    2    0    0 -0.11022385021E-01 -0.14733558750E-01  0.13261247354E-01  0.22681080362E-01  0.00000000000E+00 0. -1.
     999901    1    3    3    0    0  0.17178241900E+00  0.25630899765E-01  0.29350375901E-01  0.85337716577E+00  0.83500000000E+00 0.  1.
        -11    1    4    4    0    0 -0.14123705809E+00 -0.10117795485E-01 -0.43996489624E-01  0.14827753904E+00  0.51100000000E-03 0. -1.
         11    1    4    4    0    0 -0.19522975884E-01 -0.77954552914E-03  0.13848663688E-02  0.19594214821E-01  0.51100000000E-03 0.  1.
</event>
<event>
 8    1  0.5716970E+005  0.1043930E+01  0.7957747E-01            NaN
         13   -1    0    0    0    0  0.00000000000E+00  0.00000000000E+00  0.74505805969E-08  0.10566000000E+00  0.10566000000E+00 0. -1.
     999900   -1    0    0    0    0 -0.00000000000E+00 -0.00000000000E+00 -0.74505805969E-08  0.93827000000E+00  0.93827000000E+00 0. -1.
     999902    2    1    2    0    0  0.16517270595E-01  0.15613364914E-01 -0.59538642915E-02  0.10204343431E+01  0.10201638117E+01 0.  0.
     999903    2    3    3    0    0 -0.14771417056E+00 -0.22950715359E-01  0.67735089973E-01  0.16538217131E+00  0.20420789754E-01 0.  0.
         14    1    1    2    0    0 -0.16517270595E-01 -0.15613364914E-01  0.59538642915E-02  0.23495656873E-01  0.00000000000E+00 0.  1.
     999901    1    3    3    0    0  0.16423144115E+00  0.38564080274E-01 -0.73688954265E-01  0.85505217182E+00  0.83500000000E+00 0.  1.
        -11    1    4    4    0    0 -0.89316647167E-01 -0.15749328483E-01  0.51690133060E-01  0.10439174194E+00  0.51100000000E-03 0. -1.
         11    1    4    4    0    0 -0.58397523390E-01 -0.72013868764E-02  0.16044956913E-01  0.60990429367E-01  0.51100000000E-03 0.  1.
</event>
<event>
 8    1  0.5716970E+005  0.1043930E+01  0.7957747E-01            NaN
         13   -1    0    0    0    0  0.00000000000E+00  0.00000000000E+00  0.74505805969E-08  0.10566000000E+00  0.10566000000E+00 0.  1.
     999900   -1    0    0    0    0 -0.00000000000E+00 -0.00000000000E+00 -0.74505805969E-08  0.93827000000E+00  0.93827000000E+00 0.  1.
     999902    2    1    2    0    0  0.68291523825E-02  0.12599010784E-01 -0.25021797175E-01  0.10150949046E+01  0.10146852727E+01 0.  0.
     999903    2    3    3    0    0  0.54398124885E-01  0.75784661068E-01  0.13100917767E+00  0.16196777531E+00  0.19175107854E-01 0.  0.
         14    1    1    2    0    0 -0.68291523825E-02 -0.12599010784E-01  0.25021797175E-01  0.28835095437E-01  0.00000000000E+00 0.  1.
     999901    1    3    3    0    0 -0.47568972502E-01 -0.63185650284E-01 -0.15603097485E+00  0.85312712925E+00  0.83500000000E+00 0.  1.
        -11    1    4    4    0    0  0.34924544574E-01  0.33692105798E-01  0.60285581840E-01  0.77391823248E-01  0.51100000000E-03 0. -1.
         11    1    4    4    0    0  0.19473580311E-01  0.42092555270E-01  0.70723595834E-01  0.84575952067E-01  0.51100000000E-03 0.  1.
</event>
<event>
 8    1  0.5716970E+005  0.1043930E+01  0.7957747E-01            NaN
         13   -1    0    0    0    0  0.00000000000E+00  0.00000000000E+00  0.74505805969E-08  0.10566000000E+00  0.10566000000E+00 0. -1.
     999900   -1    0    0    0    0 -0.00000000000E+00 -0.00000000000E+00 -0.74505805969E-08  0.93827000000E+00  0.93827000000E+00 0. -1.
     999902    2    1    2    0    0  0.22757331351E-01 -0.92990837565E-02  0.35928335645E-02  0.10190849292E+01  0.10187820255E+01 0.  0.
     999903    2    3    3    0    0 -0.63453436356E-01 -0.14685411587E+00 -0.43935523863E-01  0.16712388076E+00  0.20188891257E-01 0.  0.
         14    1    1    2    0    0 -0.22757331351E-01  0.92990837565E-02 -0.35928335645E-02  0.24845070777E-01  0.00000000000E+00 0. -1.
     999901    1    3    3    0    0  0.86210767707E-01  0.13755503212E+00  0.47528357427E-01  0.85196104846E+00  0.83500000000E+00 0.  1.
        -11    1    4    4    0    0 -0.27080712646E-01 -0.82391195531E-01 -0.17152292130E-01  0.88408915528E-01  0.51100000000E-03 0.  1.
         11    1    4    4    0    0 -0.36372723710E-01 -0.64462920343E-01 -0.26783231732E-01  0.78714965237E-01  0.51100000000E-03 0. -1.
</event>
<event>
 8    1  0.5716970E+005  0.1043930E+01  0.7957747E-01            NaN
         13   -1    0    0    0    0  0.00000000000E+00  0.00000000000E+00  0.74505805969E-08  0.10566000000E+00  0.10566000000E+00 0.  1.
     999900   -1    0    0    0    0 -0.00000000000E+00 -0.00000000000E+00 -0.74505805969E-08  0.93827000000E+00  0.93827000000E+00 0. -1.
     999902    2    1    2    0    0 -0.53734720089E-02  0.35357416047E-02 -0.22073971422E-01  0.10209379169E+01  0.10206789869E+01 0.  0.
     999903    2    3    3    0    0 -0.10128492544E+00  0.25173722400E-01  0.12861206682E+00  0.16677253994E+00  0.19484966655E-01 0.  0.
         14    1    1    2    0    0  0.53734720089E-02 -0.35357416047E-02  0.22073971422E-01  0.22992083082E-01  0.00000000000E+00 0.  1.
     999901    1    3    3    0    0  0.95911453432E-01 -0.21637980796E-01 -0.15068603824E+00  0.85416537698E+00  0.83500000000E+00 0. -1.
        -11    1    4    4    0    0 -0.43773303315E-01  0.17604302416E-01  0.46584305459E-01  0.66305144467E-01  0.51100000000E-03 0. -1.
         11    1    4    4    0    0 -0.57511622126E-01  0.75694199841E-02  0.82027761357E-01  0.10046739547E+00  0.51100000000E-03 0.  1.
</event>
<event>
 8    1  0.5716970E+005  0.1043930E+01  0.7957747E-01            NaN
         13   -1    0    0    0    0  0.00000000000E+00  0.00000000000E+00  0.74505805969E-08  0.10566000000E+00  0.10566000000E+00 0.  1.
     999900   -1    0    0    0    0 -0.00000000000E+00 -0.00000000000E+00 -0.74505805969E-08  0.93827000000E+00  0.93827000000E+00 0.  1.
     999902    2    1    2    0    0 -0.11410782563E-01 -0.18288362515E-01 -0.77653582142E-02  0.10210177554E+01  0.10207606409E+01 0.  0.
     999903    2    3    3    0    0 -0.10384175301E+00  0.11016422266E-01 -0.13392063163E+00  0.17099281010E+00  0.19983350627E-01 0.  0.
         14    1    1    2    0    0  0.11410782563E-01  0.18288362515E-01  0.77653582142E-02  0.22912244551E-01  0.00000000000E+00 0.  1.
     999901    1    3    3    0    0  0.92430970448E-01 -0.29304784781E-01  0.12615527341E+00  0.85002494535E+00  0.83500000000E+00 0. -1.
        -11    1    4    4    0    0 -0.46188899829E-01 -0.30827554296E-02 -0.68303927797E-01  0.82514274655E-01  0.51100000000E-03 0. -1.
         11    1    4    4    0    0 -0.57652853181E-01  0.14099177696E-01 -0.65616703829E-01  0.88478535443E-01  0.51100000000E-03 0.  1.
</event>
<event>
 8    1  0.5716970E+005  0.1043930E+01  0.7957747E-01            NaN
         13   -1    0    0    0    0  0.00000000000E+00  0.00000000000E+00  0.74505805969E-08  0.10566000000E+00  0.10566000000E+00 0. -1.
     999900   -1    0    0    0    0 -0.00000000000E+00 -0.00000000000E+00 -0.74505805969E-08  0.93827000000E+00  0.93827000000E+00 0.  1.
     999902    2    1    2    0    0 -0.18023339564E-01  0.10866812189E-02 -0.13439920314E-01  0.10214210439E+01  0.10211730000E+01 0.  0.
     999903    2    3    3    0    0 -0.10282995922E+00 -0.10053007212E+00 -0.92787514731E-01  0.17228079166E+00  0.19769986598E-01 0.  0.
         14    1    1    2    0    0  0.18023339564E-01 -0.10866812189E-02  0.13439920314E-01  0.22508956065E-01  0.00000000000E+00 0. -1.
     999901    1    3    3    0    0  0.84806619657E-01  0.10161675334E+00  0.79347594418E-01  0.84914025228E+00  0.83500000000E+00 0. -1.
        -11    1    4    4    0    0 -0.43151417928E-01 -0.50314916577E-01 -0.33251650602E-01  0.74159079607E-01  0.51100000000E-03 0. -1.
         11    1    4    4    0    0 -0.59678541293E-01 -0.50215155544E-01 -0.59535864129E-01  0.98121712051E-01  0.51100000000E-03 0.  1.
</event>
<event>
 8    1  0.5716970E+005  0.1043930E+01  0.7957747E-01            NaN
         13   -1    0    0    0    0  0.00000000000E+00  0.00000000000E+00  0.74505805969E-08  0.10566000000E+00  0.10566000000E+00 0. -1.
     999900   -1    0    0    0    0 -0.00000000000E+00 -0.00000000000E+00 -0.74505805969E-08  0.93827000000E+00  0.93827000000E+00 0.  1.
     999902    2    1    2    0    0  0.59126271616E-03 -0.49207335633E-02 -0.23347937521E-01  0.10200618330E+01  0.10197825522E+01 0.  0.
     999903    2    3    3    0    0  0.93045375436E-01 -0.13374076338E+00  0.36996092386E-01  0.16800035340E+00  0.17645798697E-01 0.  0.
         14    1    1    2    0    0 -0.59126271616E-03  0.49207335633E-02  0.23347937521E-01  0.23868167020E-01  0.00000000000E+00 0. -1.
     999901    1    3    3    0    0 -0.92454112720E-01  0.12882002981E+00 -0.60344029907E-01  0.85206147958E+00  0.83500000000E+00 0.  1.
        -11    1    4    4    0    0  0.11696371976E-01 -0.10831584636E-01 -0.33705187381E-03  0.15953152293E-01  0.51100000000E-03 0.  1.
         11    1    4    4    0    0  0.81349003460E-01 -0.12290917874E+00  0.37333144260E-01  0.15204720111E+00  0.51100000000E-03 0. -1.
</event>
<event>
 8    1  0.5716970E+005  0.1043930E+01  0.7957747E-01            NaN
         13   -1    0    0    0    0  0.00000000000E+00  0.00000000000E+00  0.74505805969E-08  0.10566000000E+00  0.10566000000E+00 0.  1.
     999900   -1    0    0    0    0 -0.00000000000E+00 -0.00000000000E+00 -0.74505805969E-08  0.93827000000E+00  0.93827000000E+00 0.  1.
     999902    2    1    2    0    0  0.19507932657E-01 -0.26768048702E-02 -0.13975443211E-01  0.10197838257E+01  0.10194979222E+01 0.  0.
     999903    2    3    3    0    0  0.12007919787E+00 -0.10754291218E+00 -0.51825340672E-01  0.17139176150E+00  0.26547660016E-01 0.  0.
         14    1    1    2    0    0 -0.19507932657E-01  0.26768048702E-02  0.13975443211E-01  0.24146174310E-01  0.00000000000E+00 0.  1.
     999901    1    3    3    0    0 -0.10057126521E+00  0.10486610731E+00  0.37849897462E-01  0.84839206419E+00  0.83500000000E+00 0. -1.
        -11    1    4    4    0    0  0.90342470555E-01 -0.88216761677E-01 -0.30135306650E-01  0.12981662780E+00  0.51100000000E-03 0. -1.
         11    1    4    4    0    0  0.29736727316E-01 -0.19326150500E-01 -0.21690034022E-01  0.41575133692E-01  0.51100000000E-03 0.  1.
</event>
<event>
 8    1  0.5716970E+005  0.1043930E+01  0.7957747E-01            NaN
         13   -1    0    0    0    0  0.00000000000E+00  0.00000000000E+00  0.74505805969E-08  0.10566000000E+00  0.10566000000E+00 0. -1.
     999900   -1    0    0    0    0 -0.00000000000E+00 -0.00000000000E+00 -0.74505805969E-08  0.93827000000E+00  0.93827000000E+00 0.  1.
     999902    2    1    2    0    0 -0.29956303948E-01 -0.34762186988E-04  0.23080634092E-01  0.10061133763E+01  0.10054024214E+01 0.  0.
     999903    2    3    3    0    0 -0.12949424667E+00  0.45414876932E-01 -0.76125950843E-01  0.15815086642E+00  0.19628173437E-01 0.  0.
         14    1    1    2    0    0  0.29956303948E-01  0.34762186988E-04 -0.23080634092E-01  0.37816623656E-01  0.00000000000E+00 0.  1.
     999901    1    3    3    0    0  0.99537942718E-01 -0.45449639119E-01  0.99206584935E-01  0.84796250992E+00  0.83500000000E+00 0. -1.
        -11    1    4    4    0    0 -0.52040784930E-01  0.89949539728E-02 -0.33389539864E-01  0.62484197894E-01  0.51100000000E-03 0. -1.
         11    1    4    4    0    0 -0.77453461735E-01  0.36419922959E-01 -0.42736410978E-01  0.95666668529E-01  0.51100000000E-03 0.  1.
</event>
<event>
 8    1  0.5716970E+005  0.1043930E+01  0.7957747E-01            NaN
         13   -1    0    0    0    0  0.00000000000E+00  0.00000000000E+00  0.74505805969E-08  0.10566000000E+00  0.10566000000E+00 0.  1.
     999900   -1    0    0    0    0 -0.00000000000E+00 -0.00000000000E+00 -0.74505805969E-08  0.93827000000E+00  0.93827000000E+00 0. -1.
     999902    2    1    2    0    0  0.21850093645E-01 -0.71470056195E-02 -0.78774458801E-02  0.10196285508E+01  0.10193389138E+01 0.  0.
     999903    2    3    3    0    0  0.19934078464E-01 -0.10266883949E-01 -0.16678201561E+00  0.16963498194E+00  0.21377791671E-01 0.  0.
         14    1    1    2    0    0 -0.21850093645E-01  0.71470056195E-02  0.78774458801E-02  0.24301449241E-01  0.00000000000E+00 0.  1.
     999901    1    3    3    0    0  0.19160151811E-02  0.31198783297E-02  0.15890456973E+00  0.84999356882E+00  0.83500000000E+00 0.  1.
        -11    1    4    4    0    0  0.17860427331E-01  0.17415352381E-02 -0.79292641260E-01  0.81299519608E-01  0.51100000000E-03 0. -1.
         11    1    4    4    0    0  0.20736511329E-02 -0.12008419187E-01 -0.87489374349E-01  0.88335462331E-01  0.51100000000E-03 0.  1.
</event>
<event>
 8    1  0.5716970E+005  0.1043930E+01  0.7957747E-01            NaN
         13   -1    0    0    0    0  0.00000000000E+00  0.00000000000E+00  0.74505805969E-08  0.10566000000E+00  0.10566000000E+00 0. -1.
     999900   -1    0    0    0    0 -0.00000000000E+00 -0.00000000000E+00 -0.74505805969E-08  0.93827000000E+00  0.93827000000E+00 0.  1.
     999902    2    1    2    0    0  0.14858178407E-01 -0.79393349778E-02  0.17268043184E-01  0.10198056592E+01  0.10195202787E+01 0.  0.
     999903    2    3    3    0    0 -0.19698226105E-01  0.12618939644E+00  0.10813604685E+00  0.16853210984E+00  0.19947018210E-01 0.  0.
         14    1    1    2    0    0 -0.14858178407E-01  0.79393349778E-02 -0.17268043184E-01  0.24124340838E-01  0.00000000000E+00 0.  1.
     999901    1    3    3    0    0  0.34556404512E-01 -0.13412873141E+00 -0.90868003662E-01  0.85127354932E+00  0.83500000000E+00 0.  1.
        -11    1    4    4    0    0 -0.15711737649E-01  0.40113688078E-01  0.34946729087E-01  0.55475234709E-01  0.51100000000E-03 0.  1.
         11    1    4    4    0    0 -0.39864884557E-02  0.86075708358E-01  0.73189317760E-01  0.11305687513E+00  0.51100000000E-03 0. -1.
</event>
<event>
 8    1  0.5716970E+005  0.1043930E+01  0.7957747E-01            NaN
         13   -1    0    0    0    0  0.00000000000E+00  0.00000000000E+00  0.74505805969E-08  0.10566000000E+00  0.10566000000E+00 0.  1.
     999900   -1    0    0    0    0 -0.00000000000E+00 -0.00000000000E+00 -0.74505805969E-08  0.93827000000E+00  0.93827000000E+00 0. -1.
     999902    2    1    2    0    0  0.20428268726E-01 -0.60655746839E-02 -0.11272084000E-01  0.10198226311E+01  0.10195376568E+01 0.  0.
     999903    2    3    3    0    0  0.35136413003E-01  0.13992320931E+00 -0.85629837187E-01  0.16877437742E+00  0.18418725111E-01 0.  0.
         14    1    1    2    0    0 -0.20428268726E-01  0.60655746839E-02  0.11272084000E-01  0.24107368938E-01  0.00000000000E+00 0. -1.
     999901    1    3    3    0    0 -0.14708144277E-01 -0.14598878400E+00  0.74357753187E-01  0.85104825364E+00  0.83500000000E+00 0.  1.
        -11    1    4    4    0    0  0.83714077184E-02  0.28665780217E-01 -0.95425571671E-02  0.31354887034E-01  0.51100000000E-03 0. -1.
         11    1    4    4    0    0  0.26765005285E-01  0.11125742910E+00 -0.76087280020E-01  0.13741949039E+00  0.51100000000E-03 0.  1.
</event>
<event>
 8    1  0.5716970E+005  0.1043930E+01  0.7957747E-01            NaN
         13   -1    0    0    0    0  0.00000000000E+00  0.00000000000E+00  0.74505805969E-08  0.10566000000E+00  0.10566000000E+00 0.  1.
     999900   -1    0    0    0    0 -0.00000000000E+00 -0.00000000000E+00 -0.74505805969E-08  0.93827000000E+00  0.93827000000E+00 0. -1.
     999902    2    1    2    0    0  0.22764438703E-01 -0.29311044526E-02 -0.52596600797E-02  0.10203827057E+01  0.10201109700E+01 0.  0.
     999903    2    3    3    0    0 -0.39742149471E-01  0.15006178896E+00 -0.58772715509E-01  0.16750373068E+00  0.22478628795E-01 0.  0.
         14    1    1    2    0    0 -0.22764438703E-01  0.29311044526E-02  0.52596600797E-02  0.23547294259E-01  0.00000000000E+00 0.  1.
     999901    1    3    3    0    0  0.62506588174E-01 -0.15299289341E+00  0.53513055430E-01  0.85287897506E+00  0.83500000000E+00 0.  1.
        -11    1    4    4    0    0  0.17984346155E-02  0.24797492482E-01 -0.85391495164E-02  0.26293120696E-01  0.51100000000E-03 0. -1.
         11    1    4    4    0    0 -0.41540584086E-01  0.12526429648E+00 -0.50233565993E-01  0.14121060998E+00  0.51100000000E-03 0.  1.
</event>
<event>
 8    1  0.5716970E+005  0.1043930E+01  0.7957747E-01            NaN
         13   -1    0    0    0    0  0.00000000000E+00  0.00000000000E+00  0.74505805969E-08  0.10566000000E+00  0.10566000000E+00 0. -1.
     999900   -1    0    0    0    0 -0.00000000000E+00 -0.00000000000E+00 -0.74505805969E-08  0.93827000000E+00  0.93827000000E+00 0.  1.
     999902    2    1    2    0    0  0.21326975024E-01  0.93999755811E-02  0.37741592319E-02  0.10203197547E+01  0.10200465471E+01 0.  0.
     999903    2    3    3    0    0  0.12206531825E+00 -0.11321607557E+00 -0.26091245703E-01  0.16984938356E+00  0.21218819587E-01 0.  0.
         14    1    1    2    0    0 -0.21326975024E-01 -0.93999755811E-02 -0.37741592319E-02  0.23610245287E-01  0.00000000000E+00 0. -1.
     999901    1    3    3    0    0 -0.10073834323E+00  0.12261605115E+00  0.29865404935E-01  0.85047037115E+00  0.83500000000E+00 0.  1.
        -11    1    4    4    0    0  0.46439237868E-01 -0.51815492968E-01 -0.25420015367E-02  0.69628808822E-01  0.51100000000E-03 0. -1.
         11    1    4    4    0    0  0.75626080387E-01 -0.61400582605E-01 -0.23549244166E-01  0.10022057474E+00  0.51100000000E-03 0.  1.
</event>
<event>
 8    1  0.5716970E+005  0.1043930E+01  0.7957747E-01            NaN
         13   -1    0    0    0    0  0.00000000000E+00  0.00000000000E+00  0.74505805969E-08  0.10566000000E+00  0.10566000000E+00 0.  1.
     999900   -1    0    0    0    0 -0.00000000000E+00 -0.00000000000E+00 -0.74505805969E-08  0.93827000000E+00  0.93827000000E+00 0. -1.
     999902    2    1    2    0    0  0.32995051606E-02 -0.23029400689E-01  0.19221929648E-02  0.10205861602E+01  0.10203191538E+01 0.  0.
     999903    2    3    3    0    0  0.97121494361E-01  0.11456898461E+00  0.68886442781E-01  0.16651058273E+00  0.20537654717E-01 0.  0.
         14    1    1    2    0    0 -0.32995051606E-02  0.23029400689E-01 -0.19221929648E-02  0.23343839791E-01  0.00000000000E+00 0. -1.
     999901    1    3    3    0    0 -0.93821989200E-01 -0.13759838530E+00 -0.66964249816E-01  0.85407557748E+00  0.83500000000E+00 0. -1.
        -11    1    4    4    0    0  0.19586344626E-01  0.13847691224E-01  0.15999070266E-01  0.28837732547E-01  0.51100000000E-03 0.  1.
         11    1    4    4    0    0  0.77535149734E-01  0.10072129338E+00  0.52887372515E-01  0.13767285018E+00  0.51100000000E-03 0. -1.
</event>
<event>
 8    1  0.5716970E+005  0.1043930E+01  0.7957747E-01            NaN
         13   -1    0    0    0    0  0.00000000000E+00  0.00000000000E+00  0.74505805969E-08  0.10566000000E+00  0.10566000000E+00 0. -1.
     999900   -1    0    0    0    0 -0.00000000000E+00 -0.00000000000E+00 -0.74505805969E-08  0.93827000000E+00  0.93827000000E+00 0.  1.
     999902    2    1    2    0    0  0.51123947021E-02  0.20528181474E-01 -0.99021334805E-02  0.10205720236E+01  0.10203046899E+01 0.  0.
     999903    2    3    3    0    0 -0.15508721725E+00  0.13050042676E-01 -0.62241276705E-01  0.16870100980E+00  0.19071067511E-01 0.  0.
         14    1    1    2    0    0 -0.51123947021E-02 -0.20528181474E-01  0.99021334805E-02  0.23357976404E-01  0.00000000000E+00 0. -1.
     999901    1    3    3    0    0  0.16019961195E+00  0.74781387980E-02  0.52339143225E-01  0.85187101379E+00  0.83500000000E+00 0. -1.
        -11    1    4    4    0    0 -0.10459757714E+00  0.17591585366E-01 -0.43788319199E-01  0.11475101324E+00  0.51100000000E-03 0. -1.
         11    1    4    4    0    0 -0.50489640103E-01 -0.45415426900E-02 -0.18452957506E-01  0.53949996566E-01  0.51100000000E-03 0.  1.
</event>
<event>
 8    1  0.5716970E+005  0.1043930E+01  0.7957747E-01            NaN
         13   -1    0    0    0    0  0.00000000000E+00  0.00000000000E+00  0.74505805969E-08  0.10566000000E+00  0.10566000000E+00 0.  1.
     999900   -1    0    0    0    0 -0.00000000000E+00 -0.00000000000E+00 -0.74505805969E-08  0.93827000000E+00  0.93827000000E+00 0.  1.
     999902    2    1    2    0    0 -0.16416203417E-01  0.16563268365E-01  0.98837825229E-03  0.10205888243E+01  0.10203218795E+01 0.  0.
     999903    2    3    3    0    0  0.26699955107E-01 -0.98870727585E-01 -0.12967243566E+00  0.16649207398E+00  0.20404944295E-01 0.  0.
         14    1    1    2    0    0  0.16416203417E-01 -0.16563268365E-01 -0.98837825229E-03  0.23341175744E-01  0.00000000000E+00 0.  1.
     999901    1    3    3    0    0 -0.43116158524E-01  0.11543399595E+00  0.13066081391E+00  0.85409675028E+00  0.83500000000E+00 0. -1.
        -11    1    4    4    0    0  0.26676455809E-01 -0.62361094470E-01 -0.87430269260E-01  0.11065646164E+00  0.51100000000E-03 0.  1.
         11    1    4    4    0    0  0.23499297724E-04 -0.36509633115E-01 -0.42242166397E-01  0.55835612340E-01  0.51100000000E-03 0. -1.
</event>
<event>
 8    1  0.5716970E+005  0.1043930E+01  0.7957747E-01            NaN
         13   -1    0    0    0    0  0.00000000000E+00  0.00000000000E+00  0.74505805969E-08  0.10566000000E+00  0.10566000000E+00 0.  1.
     999900   -1    0    0    0    0 -0.00000000000E+00 -0.00000000000E+00 -0.74505805969E-08  0.93827000000E+00  0.93827000000E+00 0. -1.
     999902    2    1    2    0    0  0.13220391049E-01  0.19187294536E-01 -0.27027260699E-02  0.10204728958E+01  0.10202032617E+01 0.  0.
     999903    2    3    3    0    0  0.16594440976E+00 -0.87928850127E-02  0.32048127558E-01  0.17044928540E+00  0.20273491525E-01 0.  0.
         14    1    1    2    0    0 -0.13220391049E-01 -0.19187294536E-01  0.27027260699E-02  0.23457104239E-01  0.00000000000E+00 0. -1.
     999901    1    3    3    0    0 -0.15272401871E+00  0.27980179548E-01 -0.34750853627E-01  0.85002361036E+00  0.83500000000E+00 0. -1.
        -11    1    4    4    0    0  0.57022930894E-01 -0.92079316031E-02  0.36199527485E-02  0.57877161567E-01  0.51100000000E-03 0.  1.
         11    1    4    4    0    0  0.10892147886E+00  0.41504659042E-03  0.28428174809E-01  0.11257212384E+00  0.51100000000E-03 0. -1.
</event>
<event>
 8    1  0.5716970E+005  0.1043930E+01  0.7957747E-01            NaN
         13   -1    0    0    0    0  0.00000000000E+00  0.00000000000E+00  0.74505805969E-08  0.10566000000E+00  0.10566000000E+00 0.  1.
     999900   -1    0    0    0    0 -0.00000000000E+00 -0.00000000000E+00 -0.74505805969E-08  0.93827000000E+00  0.93827000000E+00 0.  1.
     999902    2    1    2    0    0  0.21438576581E-01  0.68479929958E-02 -0.96986323989E-03  0.10214033889E+01  0.10211549513E+01 0.  0.
     999903    2    3    3    0    0 -0.71088008030E-01 -0.36826760007E-01 -0.14587018828E+00  0.16777012037E+00  0.21423966086E-01 0.  0.
         14    1    1    2    0    0 -0.21438576581E-01 -0.68479929958E-02  0.96986323989E-03  0.22526611121E-01  0.00000000000E+00 0.  1.
     999901    1    3    3    0    0  0.92526584611E-01  0.43674753003E-01  0.14490032504E+00  0.85363326851E+00  0.83500000000E+00 0. -1.
        -11    1    4    4    0    0 -0.13732123283E-01 -0.29167584030E-02 -0.42718500197E-01  0.44968990088E-01  0.51100000000E-03 0.  1.
         11    1    4    4    0    0 -0.57355884747E-01 -0.33910001605E-01 -0.10315168808E+00  0.12280113028E+00  0.51100000000E-03 0. -1.
</event>
<event>
 8    1  0.5716970E+005  0.1043930E+01  0.7957747E-01            NaN
         13   -1    0    0    0    0  0.00000000000E+00  0.00000000000E+00  0.74505805969E-08  0.10566000000E+00  0.10566000000E+00 0.  1.
     999900   -1    0    0    0    0 -0.00000000000E+00 -0.00000000000E+00 -0.74505805969E-08  0.93827000000E+00  0.93827000000E+00 0. -1.
     999902    2    1    2    0    0 -0.87976968551E-02 -0.20591617597E-01  0.94299000997E-02  0.10196331442E+01  0.10193436180E+01 0.  0.
     999903    2    3    3    0    0  0.15118808118E+00  0.60976112394E-01 -0.17218492670E-01  0.16512516848E+00  0.19847483541E-01 0.  0.
         14    1    1    2    0    0  0.87976968551E-02  0.20591617597E-01 -0.94299000997E-02  0.24296855786E-01  0.00000000000E+00 0. -1.
     999901    1    3    3    0    0 -0.15998577804E+00 -0.81567729990E-01  0.26648392769E-01  0.85450797573E+00  0.83500000000E+00 0. -1.
        -11    1    4    4    0    0  0.31670613385E-01  0.18788588711E-01 -0.10061005452E-01  0.38177529642E-01  0.51100000000E-03 0.  1.
         11    1    4    4    0    0  0.11951746780E+00  0.42187523683E-01 -0.71574872180E-02  0.12694763884E+00  0.51100000000E-03 0. -1.
</event>
<event>
 8    1  0.5716970E+005  0.1043930E+01  0.7957747E-01            NaN
         13   -1    0    0    0    0  0.00000000000E+00  0.00000000000E+00  0.74505805969E-08  0.10566000000E+00  0.10566000000E+00 0.  1.
     999900   -1    0    0    0    0 -0.00000000000E+00 -0.00000000000E+00 -0.74505805969E-08  0.93827000000E+00  0.93827000000E+00 0. -1.
     999902    2    1    2    0    0  0.12347898408E-02  0.76424603650E-02  0.12232104055E-01  0.10294539413E+01  0.10293521559E+01 0.  0.
     999903    2    3    3    0    0  0.44214305569E-01 -0.16657459309E+00  0.25914302553E-01  0.17528122863E+00  0.18707168495E-01 0.  0.
         14    1    1    2    0    0 -0.12347898408E-02 -0.76424603650E-02 -0.12232104055E-01  0.14476058717E-01  0.00000000000E+00 0. -1.
     999901    1    3    3    0    0 -0.42979515729E-01  0.17421705345E+00 -0.13682198498E-01  0.85417271265E+00  0.83500000000E+00 0. -1.
        -11    1    4    4    0    0  0.38049987502E-01 -0.15244541789E+00  0.28368134759E-01  0.15966345598E+00  0.51100000000E-03 0.  1.
         11    1    4    4    0    0  0.61643180672E-02 -0.14129175199E-01 -0.24538322059E-02  0.15617772650E-01  0.51100000000E-03 0. -1.
</event>
<event>
 8    1  0.5716970E+005  0.1043930E+01  0.7957747E-01            NaN
         13   -1    0    0    0    0  0.00000000000E+00  0.00000000000E+00  0.74505805969E-08  0.10566000000E+00  0.10566000000E+00 0. -1.
     999900   -1    0    0    0    0 -0.00000000000E+00 -0.00000000000E+00 -0.74505805969E-08  0.93827000000E+00  0.93827000000E+00 0.  1.
     999902    2    1    2    0    0  0.17463284711E-01 -0.68937250205E-02  0.11628463675E-01  0.10218458218E+01  0.10216071518E+01 0.  0.
     999903    2    3    3    0    0 -0.11324566423E-01 -0.13668519451E+00  0.10121621228E+00  0.17159554655E+00  0.19728704071E-01 0.  0.
         14    1    1    2    0    0 -0.17463284711E-01  0.68937250205E-02 -0.11628463675E-01  0.22084178160E-01  0.00000000000E+00 0.  1.
     999901    1    3    3    0    0  0.28787851134E-01  0.12979146949E+00 -0.89587748605E-01  0.85025027529E+00  0.83500000000E+00 0.  1.
        -11    1    4    4    0    0 -0.12476222224E-01 -0.11733720755E+00  0.78480052054E-01  0.14171469962E+00  0.51100000000E-03 0. -1.
         11    1    4    4    0    0  0.11516558007E-02 -0.19347986963E-01  0.22736160226E-01  0.29880846933E-01  0.51100000000E-03 0.  1.
</event>
<event>
 8    1  0.5716970E+005  0.1043930E+01  0.7957747E-01            NaN
         13   -1    0    0    0    0  0.00000000000E+00  0.00000000000E+00  0.74505805969E-08  0.10566000000E+00  0.10566000000E+00 0.  1.
     999900   -1    0    0    0    0 -0.00000000000E+00 -0.00000000000E+00 -0.74505805969E-08  0.93827000000E+00  0.93827000000E+00 0. -1.
     999902    2    1    2    0    0  0.18665930374E-01  0.77764603036E-02  0.12297275006E-01  0.10202632878E+01  0.10199887564E+01 0.  0.
     999903    2    3    3    0    0  0.90500350740E-01  0.14372757102E+00 -0.84041191654E-02  0.17097156166E+00  0.17683820889E-01 0.  0.
         14    1    1    2    0    0 -0.18665930374E-01 -0.77764603036E-02 -0.12297275006E-01  0.23666712154E-01  0.00000000000E+00 0. -1.
     999901    1    3    3    0    0 -0.71834420366E-01 -0.13595111071E+00  0.20701394172E-01  0.84929172619E+00  0.83500000000E+00 0.  1.
        -11    1    4    4    0    0  0.85968881893E-01  0.12919884966E+00 -0.45070985730E-02  0.15525323336E+00  0.51100000000E-03 0.  1.
         11    1    4    4    0    0  0.45314688471E-02  0.14528721353E-01 -0.38970205924E-02  0.15718328301E-01  0.51100000000E-03 0. -1.
</event>
<event>
 8    1  0.5716970E+005  0.1043930E+01  0.7957747E-01            NaN
         13   -1    0    0    0    0  0.00000000000E+00  0.00000000000E+00  0.74505805969E-08  0.10566000000E+00  0.10566000000E+00 0. -1.
     999900   -1    0    0    0    0 -0.00000000000E+00 -0.00000000000E+00 -0.74505805969E-08  0.93827000000E+00  0.93827000000E+00 0.  1.
     999902    2    1    2    0    0  0.13865455663E-01 -0.18705471959E-01  0.18623958415E-02  0.10205716169E+01  0.10203042738E+01 0.  0.
     999903    2    3    3    0    0 -0.45640783911E-01  0.72005578003E-01 -0.14156103245E+00  0.16642598126E+00  0.19753402473E-01 0.  0.
         14    1    1    2    0    0 -0.13865455663E-01  0.18705471959E-01 -0.18623958415E-02  0.23358383083E-01  0.00000000000E+00 0. -1.
     999901    1    3    3    0    0  0.59506239574E-01 -0.90711049963E-01  0.14342342829E+00  0.85414563566E+00  0.83500000000E+00 0. -1.
        -11    1    4    4    0    0 -0.17534682196E-03  0.86665703195E-02 -0.22389854608E-01  0.24014722526E-01  0.51100000000E-03 0. -1.
         11    1    4    4    0    0 -0.45465437089E-01  0.63339007684E-01 -0.11917117784E+00  0.14241125873E+00  0.51100000000E-03 0.  1.
</event>
<event>
 8    1  0.5716970E+005  0.1043930E+01  0.7957747E-01            NaN
         13   -1    0    0    0    0  0.00000000000E+00  0.00000000000E+00  0.74505805969E-08  0.10566000000E+00  0.10566000000E+00 0. -1.
     999900   -1    0    0    0    0 -0.00000000000E+00 -0.00000000000E+00 -0.74505805969E-08  0.93827000000E+00  0.93827000000E+00 0. -1.
     999902    2    1    2    0    0  0.10212982593E-01  0.54929098225E-03  0.20560647231E-01  0.10209659640E+01  0.10207076725E+01 0.  0.
     999903    2    3    3    0    0 -0.10537672289E+00 -0.10681085747E+00 -0.67852414609E-01  0.16660711026E+00  0.25321256310E-01 0.  0.
         14    1    1    2    0    0 -0.10212982593E-01 -0.54929098225E-03 -0.20560647231E-01  0.22964035982E-01  0.00000000000E+00 0.  1.
     999901    1    3    3    0    0  0.11558970548E+00  0.10736014845E+00  0.88413061840E-01  0.85435885376E+00  0.83500000000E+00 0.  1.
        -11    1    4    4    0    0 -0.86616232408E-01 -0.97425232965E-01 -0.52182823116E-01  0.14041850264E+00  0.51100000000E-03 0.  1.
         11    1    4    4    0    0 -0.18760490483E-01 -0.93856245016E-02 -0.15669591493E-01  0.26188607618E-01  0.51100000000E-03 0. -1.
</event>
<event>
 8    1  0.5716970E+005  0.1043930E+01  0.7957747E-01            NaN
         13   -1    0    0    0    0  0.00000000000E+00  0.00000000000E+00  0.74505805969E-08  0.10566000000E+00  0.10566000000E+00 0. -1.
     999900   -1    0    0    0    0 -0.00000000000E+00 -0.00000000000E+00 -0.74505805969E-08  0.93827000000E+00  0.93827000000E+00 0.  1.
     999902    2    1    2    0    0  0.13347275290E-01 -0.20226903928E-01  0.82588373863E-03  0.10196821241E+01  0.10193937781E+01 0.  0.
     999903    2    3    3    0    0  0.60863226774E-01 -0.70909793787E-01 -0.14037123735E+00  0.16998326690E+00  0.21393819790E-01 0.  0.
         14    1    1    2    0    0 -0.13347275290E-01  0.20226903928E-01 -0.82588373863E-03  0.24247875868E-01  0.00000000000E+00 0. -1.
     999901    1    3    3    0    0 -0.47515951484E-01  0.50682889858E-01  0.14119712109E+00  0.84969885723E+00  0.83500000000E+00 0. -1.
        -11    1    4    4    0    0  0.34337839239E-01 -0.53710357746E-01 -0.85443353815E-01  0.10660542934E+00  0.51100000000E-03 0.  1.
         11    1    4    4    0    0  0.26525387535E-01 -0.17199436040E-01 -0.54927883531E-01  0.63377837563E-01  0.51100000000E-03 0. -1.
</event>
<event>
 8    1  0.5716970E+005  0.1043930E+01  0.7957747E-01            NaN
         13   -1    0    0    0    0  0.00000000000E+00  0.00000000000E+00  0.74505805969E-08  0.10566000000E+00  0.10566000000E+00 0.  1.
     999900   -1    0    0    0    0 -0.00000000000E+00 -0.00000000000E+00 -0.74505805969E-08  0.93827000000E+00  0.93827000000E+00 0. -1.
     999902    2    1    2    0    0 -0.10355769735E-02 -0.18716959893E-01 -0.15108091970E-01  0.10198540483E+01  0.10195698252E+01 0.  0.
     999903    2    3    3    0    0  0.12168583329E+00  0.67893302210E-01  0.86686194513E-01  0.16536650667E+00  0.20362777314E-01 0.  0.
         14    1    1    2    0    0  0.10355769735E-02  0.18716959893E-01  0.15108091970E-01  0.24075951700E-01  0.00000000000E+00 0.  1.
     999901    1    3    3    0    0 -0.12272141027E+00 -0.86610262103E-01 -0.10179428648E+00  0.85448754163E+00  0.83500000000E+00 0. -1.
        -11    1    4    4    0    0  0.86191410893E-01  0.52864517449E-01  0.52939676916E-01  0.11413363671E+00  0.51100000000E-03 0.  1.
         11    1    4    4    0    0  0.35494422400E-01  0.15028784762E-01  0.33746517597E-01  0.51232869955E-01  0.51100000000E-03 0. -1.
</event>
<event>
 8    1  0.5716970E+005  0.1043930E+01  0.7957747E-01            NaN
         13   -1    0    0    0    0  0.00000000000E+00  0.00000000000E+00  0.74505805969E-08  0.10566000000E+00  0.10566000000E+00 0. -1.
     999900   -1    0    0    0    0 -0.00000000000E+00 -0.00000000000E+00 -0.74505805969E-08  0.93827000000E+00  0.93827000000E+00 0. -1.
     999902    2    1    2    0    0  0.18141386524E-01  0.15725347308E-01 -0.48923155401E-02  0.10194283428E+01  0.10191338553E+01 0.  0.
     999903    2    3    3    0    0  0.35288930701E-01 -0.61055672025E-01  0.14959215099E+00  0.16662132268E+00  0.20291619393E-01 0.  0.
         14    1    1    2    0    0 -0.18141386524E-01 -0.15725347308E-01  0.48923155401E-02  0.24501657175E-01  0.00000000000E+00 0. -1.
     999901    1    3    3    0    0 -0.17147544178E-01  0.76781019333E-01 -0.15448446653E+00  0.85280702014E+00  0.83500000000E+00 0. -1.
        -11    1    4    4    0    0  0.32700035501E-01 -0.38378175498E-01  0.10743650282E+00  0.11868041091E+00  0.51100000000E-03 0.  1.
         11    1    4    4    0    0  0.25888952003E-02 -0.22677496527E-01  0.42155648178E-01  0.47940911771E-01  0.51100000000E-03 0. -1.
</event>
<event>
 8    1  0.5716970E+005  0.1043930E+01  0.7957747E-01            NaN
         13   -1    0    0    0    0  0.00000000000E+00  0.00000000000E+00  0.74505805969E-08  0.10566000000E+00  0.10566000000E+00 0.  1.
     999900   -1    0    0    0    0 -0.00000000000E+00 -0.00000000000E+00 -0.74505805969E-08  0.93827000000E+00  0.93827000000E+00 0.  1.
     999902    2    1    2    0    0  0.13233266673E-01 -0.80934199708E-02 -0.21062227230E-01  0.10177720144E+01  0.10174358128E+01 0.  0.
     999903    2    3    3    0    0  0.28419694825E-02  0.13917406670E+00 -0.89685677663E-01  0.16704886931E+00  0.22006960873E-01 0.  0.
         14    1    1    2    0    0 -0.13233266673E-01  0.80934199708E-02  0.21062227230E-01  0.26157985579E-01  0.00000000000E+00 0.  1.
     999901    1    3    3    0    0  0.10391297191E-01 -0.14726748667E+00  0.68623450433E-01  0.85072314512E+00  0.83500000000E+00 0. -1.
        -11    1    4    4    0    0  0.74829845755E-02  0.84022269957E-01 -0.64752063148E-01  0.10634297208E+00  0.51100000000E-03 0. -1.
         11    1    4    4    0    0 -0.46410150930E-02  0.55151796739E-01 -0.24933614515E-01  0.60705897229E-01  0.51100000000E-03 0.  1.
</event>
<event>
 8    1  0.5716970E+005  0.1043930E+01  0.7957747E-01            NaN
         13   -1    0    0    0    0  0.00000000000E+00  0.00000000000E+00  0.74505805969E-08  0.10566000000E+00  0.10566000000E+00 0.  1.
     999900   -1    0    0    0    0 -0.00000000000E+00 -0.00000000000E+00 -0.74505805969E-08  0.93827000000E+00  0.93827000000E+00 0. -1.
     999902    2    1    2    0    0 -0.18486552449E-01 -0.10728902361E-01  0.75196373679E-02  0.10212715156E+01  0.10210201280E+01 0.  0.
     999903    2    3    3    0    0  0.89487321989E-01 -0.13352714389E+00 -0.46905733386E-01  0.16867261424E+00  0.20318071214E-01 0.  0.
         14    1    1    2    0    0  0.18486552449E-01  0.10728902361E-01 -0.75196373679E-02  0.22658484359E-01  0.00000000000E+00 0. -1.
     999901    1    3    3    0    0 -0.10797387444E+00  0.12279824153E+00  0.54425370754E-01  0.85259890140E+00  0.83500000000E+00 0.  1.
        -11    1    4    4    0    0  0.48139914099E-01 -0.70156778516E-01 -0.14305380597E-01  0.86280530459E-01  0.51100000000E-03 0. -1.
         11    1    4    4    0    0  0.41347407890E-01 -0.63370365376E-01 -0.32600352789E-01  0.82392083783E-01  0.51100000000E-03 0.  1.
</event>
<event>
 8    1  0.5716970E+005  0.1043930E+01  0.7957747E-01            NaN
         13   -1    0    0    0    0  0.00000000000E+00  0.00000000000E+00  0.74505805969E-08  0.10566000000E+00  0.10566000000E+00 0. -1.
     999900   -1    0    0    0    0 -0.00000000000E+00 -0.00000000000E+00 -0.74505805969E-08  0.93827000000E+00  0.93827000000E+00 0.  1.
     999902    2    1    2    0    0  0.15641212001E-01 -0.17221533475E-01  0.38736239803E-02  0.10203453929E+01  0.10200727852E+01 0.  0.
     999903    2    3    3    0    0 -0.11103739030E+00  0.70520084725E-01 -0.98031019603E-01  0.16515207196E+00  0.19045778381E-01 0.  0.
         14    1    1    2    0    0 -0.15641212001E-01  0.17221533475E-01 -0.38736239803E-02  0.23584607074E-01  0.00000000000E+00 0. -1.
     999901    1    3    3    0    0  0.12667860230E+00 -0.87741618199E-01  0.10190464358E+00  0.85519332097E+00  0.83500000000E+00 0. -1.
        -11    1    4    4    0    0 -0.24993709974E-01  0.13629577631E-01 -0.31218293498E-01  0.42252738309E-01  0.51100000000E-03 0.  1.
         11    1    4    4    0    0 -0.86043680323E-01  0.56890507093E-01 -0.66812726105E-01  0.12289933365E+00  0.51100000000E-03 0. -1.
</event>
<event>
 8    1  0.5716970E+005  0.1043930E+01  0.7957747E-01            NaN
         13   -1    0    0    0    0  0.00000000000E+00  0.00000000000E+00  0.74505805969E-08  0.10566000000E+00  0.10566000000E+00 0. -1.
     999900   -1    0    0    0    0 -0.00000000000E+00 -0.00000000000E+00 -0.74505805969E-08  0.93827000000E+00  0.93827000000E+00 0. -1.
     999902    2    1    2    0    0 -0.14054711978E-01  0.18905094428E-01  0.18847786690E-02  0.10202976088E+01  0.10200238824E+01 0.  0.
     999903    2    3    3    0    0 -0.52390279914E-01  0.64397292896E-01  0.14770180907E+00  0.17057602953E+00  0.19713058766E-01 0.  0.
         14    1    1    2    0    0  0.14054711978E-01 -0.18905094428E-01 -0.18847786690E-02  0.23632391219E-01  0.00000000000E+00 0.  1.
     999901    1    3    3    0    0  0.38335567936E-01 -0.45492198469E-01 -0.14581703040E+00  0.84972157925E+00  0.83500000000E+00 0. -1.
        -11    1    4    4    0    0 -0.27624651849E-01  0.41379001018E-01  0.70459076339E-01  0.86255931243E-01  0.51100000000E-03 0. -1.
         11    1    4    4    0    0 -0.24765628065E-01  0.23018291878E-01  0.77242732730E-01  0.84320098286E-01  0.51100000000E-03 0.  1.
</event>
<event>
 8    1  0.5716970E+005  0.1043930E+01  0.7957747E-01            NaN
         13   -1    0    0    0    0  0.00000000000E+00  0.00000000000E+00  0.74505805969E-08  0.10566000000E+00  0.10566000000E+00 0. -1.
     999900   -1    0    0    0    0 -0.00000000000E+00 -0.00000000000E+00 -0.74505805969E-08  0.93827000000E+00  0.93827000000E+00 0.  1.
     999902    2    1    2    0    0 -0.11868387401E-01  0.18072044183E-01 -0.92117428778E-02  0.10204286467E+01  0.10201579826E+01 0.  0.
     999903    2    3    3    0    0 -0.38331226825E-01 -0.12254195810E+00  0.10306065882E+00  0.16585116531E+00  0.19982372003E-01 0.  0.
         14    1    1    2    0    0  0.11868387401E-01 -0.18072044183E-01  0.92117428778E-02  0.23501353308E-01  0.00000000000E+00 0. -1.
     999901    1    3    3    0    0  0.26462839424E-01  0.14061400229E+00 -0.11227240170E+00  0.85457748139E+00  0.83500000000E+00 0. -1.
        -11    1    4    4    0    0 -0.27111940777E-01 -0.53861298418E-01  0.50086743929E-01  0.78390304492E-01  0.51100000000E-03 0. -1.
         11    1    4    4    0    0 -0.11219286049E-01 -0.68680659685E-01  0.52973914892E-01  0.87460860813E-01  0.51100000000E-03 0.  1.
</event>
<event>
 8    1  0.5716970E+005  0.1043930E+01  0.7957747E-01            NaN
         13   -1    0    0    0    0  0.00000000000E+00  0.00000000000E+00  0.74505805969E-08  0.10566000000E+00  0.10566000000E+00 0.  1.
     999900   -1    0    0    0    0 -0.00000000000E+00 -0.00000000000E+00 -0.74505805969E-08  0.93827000000E+00  0.93827000000E+00 0.  1.
     999902    2    1    2    0    0  0.16216568642E-01  0.16216268765E-01 -0.34062884435E-02  0.10207449343E+01  0.10204815891E+01 0.  0.
     999903    2    3    3    0    0  0.11624292112E-01  0.16827639709E+00  0.24258522188E-01  0.17154901262E+00  0.19710856047E-01 0.  0.
         14    1    1    2    0    0 -0.16216568642E-01 -0.16216268765E-01  0.34062884435E-02  0.23185065714E-01  0.00000000000E+00 0. -1.
     999901    1    3    3    0    0  0.45922765308E-02 -0.15206012833E+00 -0.27664810632E-01  0.84919592167E+00  0.83500000000E+00 0.  1.
        -11    1    4    4    0    0 -0.20970738650E-02  0.87726560447E-01  0.69790780762E-02  0.88030198105E-01  0.51100000000E-03 0.  1.
         11    1    4    4    0    0  0.13721365977E-01  0.80549836645E-01  0.17279444112E-01  0.83518814513E-01  0.51100000000E-03 0. -1.
</event>
<event>
 8    1  0.5716970E+005  0.1043930E+01  0.7957747E-01            NaN
         13   -1    0    0    0    0  0.00000000000E+00  0.00000000000E+00  0.74505805969E-08  0.10566000000E+00  0.10566000000E+00 0.  1.
     999900   -1    0    0    0    0 -0.00000000000E+00 -0.00000000000E+00 -0.74505805969E-08  0.93827000000E+00  0.93827000000E+00 0.  1.
     999902    2    1    2    0    0  0.20359287425E-01  0.15930822204E-01 -0.49847676010E-02  0.10176024557E+01  0.10172618239E+01 0.  0.
     999903    2    3    3    0    0 -0.81778692590E-01  0.66289212267E-01 -0.12685050102E+00  0.16610707028E+00  0.20457149474E-01 0.  0.
         14    1    1    2    0    0 -0.20359287425E-01 -0.15930822204E-01  0.49847676010E-02  0.26327544295E-01  0.00000000000E+00 0. -1.
     999901    1    3    3    0    0  0.10213798002E+00 -0.50358390062E-01  0.12186573342E+00  0.85149538542E+00  0.83500000000E+00 0. -1.
        -11    1    4    4    0    0 -0.31233002694E-01  0.32067686353E-01 -0.67290488485E-01  0.80821457095E-01  0.51100000000E-03 0. -1.
         11    1    4    4    0    0 -0.50545689896E-01  0.34221525913E-01 -0.59560012535E-01  0.85285613190E-01  0.51100000000E-03 0.  1.
</event>
<event>
 8    1  0.5716970E+005  0.1043930E+01  0.7957747E-01            NaN
         13   -1    0    0    0    0  0.00000000000E+00  0.00000000000E+00  0.74505805969E-08  0.10566000000E+00  0.10566000000E+00 0. -1.
     999900   -1    0    0    0    0 -0.00000000000E+00 -0.00000000000E+00 -0.74505805969E-08  0.93827000000E+00  0.93827000000E+00 0. -1.
     999902    2    1    2    0    0  0.12579302969E-01  0.14150820757E-01  0.14285166037E-01  0.10202118517E+01  0.10199361116E+01 0.  0.
     999903    2    3    3    0    0  0.12520607786E+00  0.10020574556E+00  0.59139582126E-01  0.17208028220E+00  0.19909293562E-01 0.  0.
         14    1    1    2    0    0 -0.12579302969E-01 -0.14150820757E-01 -0.14285166037E-01  0.23718148325E-01  0.00000000000E+00 0.  1.
     999901    1    3    3    0    0 -0.11262677489E+00 -0.86054924806E-01 -0.44854416089E-01  0.84813156948E+00  0.83500000000E+00 0.  1.
        -11    1    4    4    0    0  0.65409377590E-01  0.48554305083E-01  0.19910014912E-01  0.83860461682E-01  0.51100000000E-03 0.  1.
         11    1    4    4    0    0  0.59796700268E-01  0.51651440480E-01  0.39229567214E-01  0.88219820513E-01  0.51100000000E-03 0. -1.
</event>
<event>
 8    1  0.5716970E+005  0.1043930E+01  0.7957747E-01            NaN
         13   -1    0    0    0    0  0.00000000000E+00  0.00000000000E+00  0.74505805969E-08  0.10566000000E+00  0.10566000000E+00 0. -1.
     999900   -1    0    0    0    0 -0.00000000000E+00 -0.00000000000E+00 -0.74505805969E-08  0.93827000000E+00  0.93827000000E+00 0. -1.
     999902    2    1    2    0    0 -0.19018753881E-01 -0.14081820403E-01 -0.43039533511E-02  0.10198772521E+01  0.10195935831E+01 0.  0.
     999903    2    3    3    0    0  0.14657778990E+00 -0.58214171266E-01 -0.48734899706E-01  0.16631472444E+00  0.20286914164E-01 0.  0.
         14    1    1    2    0    0  0.19018753881E-01  0.14081820403E-01  0.43039533511E-02  0.24052747857E-01  0.00000000000E+00 0. -1.
     999901    1    3    3    0    0 -0.16559654379E+00  0.44132350863E-01  0.44430946355E-01  0.85356252770E+00  0.83500000000E+00 0.  1.
        -11    1    4    4    0    0  0.53084851707E-01 -0.10764906563E-01 -0.16830870615E-01  0.56722341461E-01  0.51100000000E-03 0. -1.
         11    1    4    4    0    0  0.93492938197E-01 -0.47449264703E-01 -0.31904029091E-01  0.10959238298E+00  0.51100000000E-03 0.  1.
</event>
<event>
 8    1  0.5716970E+005  0.1043930E+01  0.7957747E-01            NaN
         13   -1    0    0    0    0  0.00000000000E+00  0.00000000000E+00  0.74505805969E-08  0.10566000000E+00  0.10566000000E+00 0. -1.
     999900   -1    0    0    0    0 -0.00000000000E+00 -0.00000000000E+00 -0.74505805969E-08  0.93827000000E+00  0.93827000000E+00 0.  1.
     999902    2    1    2    0    0 -0.86684176625E-02  0.13895756468E-01 -0.16230604192E-01  0.10208721158E+01  0.10206116846E+01 0.  0.
     999903    2    3    3    0    0  0.12090239073E+00  0.11476598171E+00 -0.25436046733E-01  0.16982973322E+00  0.20162518988E-01 0.  0.
         14    1    1    2    0    0  0.86684176625E-02 -0.13895756468E-01  0.16230604192E-01  0.23057884228E-01  0.00000000000E+00 0. -1.
     999901    1    3    3    0    0 -0.12957080839E+00 -0.10087022524E+00  0.92054425403E-02  0.85104238255E+00  0.83500000000E+00 0.  1.
        -11    1    4    4    0    0  0.47869867488E-01  0.46738037601E-01 -0.20183333542E-01  0.69882733532E-01  0.51100000000E-03 0.  1.
         11    1    4    4    0    0  0.73032523238E-01  0.68027944107E-01 -0.52527131912E-02  0.99946999689E-01  0.51100000000E-03 0. -1.
</event>
<event>
 8    1  0.5716970E+005  0.1043930E+01  0.7957747E-01            NaN
         13   -1    0    0    0    0  0.00000000000E+00  0.00000000000E+00  0.74505805969E-08  0.10566000000E+00  0.10566000000E+00 0. -1.
     999900   -1    0    0    0    0 -0.00000000000E+00 -0.00000000000E+00 -0.74505805969E-08  0.93827000000E+00  0.93827000000E+00 0. -1.
     999902    2    1    2    0    0 -0.34001804619E-02 -0.22447749200E-01  0.97989825032E-02  0.10192018232E+01  0.10189017978E+01 0.  0.
     999903    2    3    3    0    0 -0.54587763253E-01  0.13799885131E+00 -0.66071633448E-01  0.16401492511E+00  0.22625827087E-01 0.  0.
         14    1    1    2    0    0  0.34001804619E-02  0.22447749200E-01 -0.97989825032E-02  0.24728176832E-01  0.00000000000E+00 0.  1.
     999901    1    3    3    0    0  0.51187582791E-01 -0.16044660051E+00  0.75870615951E-01  0.85518689806E+00  0.83500000000E+00 0.  1.
        -11    1    4    4    0    0 -0.31115661966E-01  0.10563117967E+00 -0.49398322978E-01  0.12069211230E+00  0.51100000000E-03 0. -1.
         11    1    4    4    0    0 -0.23472101287E-01  0.32367671642E-01 -0.16673310471E-01  0.43322812806E-01  0.51100000000E-03 0.  1.
</event>
<event>
 8    1  0.5716970E+005  0.1043930E+01  0.7957747E-01            NaN
         13   -1    0    0    0    0  0.00000000000E+00  0.00000000000E+00  0.74505805969E-08  0.10566000000E+00  0.10566000000E+00 0.  1.
     999900   -1    0    0    0    0 -0.00000000000E+00 -0.00000000000E+00 -0.74505805969E-08  0.93827000000E+00  0.93827000000E+00 0. -1.
     999902    2    1    2    0    0 -0.64722804366E-02 -0.19438608893E-01  0.10414636100E-01  0.10209470808E+01  0.10206883595E+01 0.  0.
     999903    2    3    3    0    0  0.11982687601E-01  0.15879534613E+00 -0.41409575611E-01  0.16536618019E+00  0.16482531461E-01 0.  0.
         14    1    1    2    0    0  0.64722804366E-02  0.19438608893E-01 -0.10414636100E-01  0.22982919198E-01  0.00000000000E+00 0.  1.
     999901    1    3    3    0    0 -0.18454968038E-01 -0.17823395503E+00  0.51824211711E-01  0.85558090061E+00  0.83500000000E+00 0.  1.
        -11    1    4    4    0    0  0.23982893545E-02  0.11730647486E+00 -0.33834934181E-01  0.12211316362E+00  0.51100000000E-03 0. -1.
         11    1    4    4    0    0  0.95843982465E-02  0.41488871272E-01 -0.75746414299E-02  0.43253016576E-01  0.51100000000E-03 0.  1.
</event>
<event>
 8    1  0.5716970E+005  0.1043930E+01  0.7957747E-01            NaN
         13   -1    0    0    0    0  0.00000000000E+00  0.00000000000E+00  0.74505805969E-08  0.10566000000E+00  0.10566000000E+00 0.  1.
     999900   -1    0    0    0    0 -0.00000000000E+00 -0.00000000000E+00 -0.74505805969E-08  0.93827000000E+00  0.93827000000E+00 0. -1.
     999902    2    1    2    0    0 -0.12413853253E-01  0.19141932632E-01 -0.53525677254E-02  0.10204956808E+01  0.10202265764E+01 0.  0.
     999903    2    3    3    0    0 -0.52439727327E-01  0.25822059012E-01  0.15711748458E+00  0.16886887717E+00  0.20349201024E-01 0.  0.
         14    1    1    2    0    0  0.12413853253E-01 -0.19141932632E-01  0.53525677254E-02  0.23434319250E-01  0.00000000000E+00 0.  1.
     999901    1    3    3    0    0  0.40025874074E-01 -0.66801263805E-02 -0.16247005230E+00  0.85162680358E+00  0.83500000000E+00 0. -1.
        -11    1    4    4    0    0 -0.33937200537E-01  0.21994825681E-01  0.82301197101E-01  0.91701985269E-01  0.51100000000E-03 0.  1.
         11    1    4    4    0    0 -0.18502526789E-01  0.38272333310E-02  0.74816287477E-01  0.77166891899E-01  0.51100000000E-03 0. -1.
</event>
<event>
 8    1  0.5716970E+005  0.1043930E+01  0.7957747E-01            NaN
         13   -1    0    0    0    0  0.00000000000E+00  0.00000000000E+00  0.74505805969E-08  0.10566000000E+00  0.10566000000E+00 0.  1.
     999900   -1    0    0    0    0 -0.00000000000E+00 -0.00000000000E+00 -0.74505805969E-08  0.93827000000E+00  0.93827000000E+00 0.  1.
     999902    2    1    2    0    0  0.10980694318E-01  0.21691315300E-01 -0.49427203087E-02  0.10191203388E+01  0.10188183084E+01 0.  0.
     999903    2    3    3    0    0 -0.15731370986E+00  0.50605076888E-01  0.10032570562E-01  0.16670713413E+00  0.19548375395E-01 0.  0.
         14    1    1    2    0    0 -0.10980694318E-01 -0.21691315300E-01  0.49427203087E-02  0.24809661247E-01  0.00000000000E+00 0. -1.
     999901    1    3    3    0    0  0.16829440417E+00 -0.28913761588E-01 -0.14975290870E-01  0.85241320463E+00  0.83500000000E+00 0. -1.
        -11    1    4    4    0    0 -0.10111949504E+00  0.23183164591E-01  0.30585899844E-02  0.10378934190E+00  0.51100000000E-03 0. -1.
         11    1    4    4    0    0 -0.56194214815E-01  0.27421912297E-01  0.69739805772E-02  0.62917792228E-01  0.51100000000E-03 0.  1.
</event>
<event>
 8    1  0.5716970E+005  0.1043930E+01  0.7957747E-01            NaN
         13   -1    0    0    0    0  0.00000000000E+00  0.00000000000E+00  0.74505805969E-08  0.10566000000E+00  0.10566000000E+00 0.  1.
     999900   -1    0    0    0    0 -0.00000000000E+00 -0.00000000000E+00 -0.74505805969E-08  0.93827000000E+00  0.93827000000E+00 0. -1.
     999902    2    1    2    0    0  0.19873872985E-01  0.46860831637E-02 -0.14303049153E-01  0.10189999495E+01  0.10186949444E+01 0.  0.
     999903    2    3    3    0    0  0.44700712425E-01  0.13708671855E+00 -0.87881193516E-01  0.17000934676E+00  0.19726928759E-01 0.  0.
         14    1    1    2    0    0 -0.19873872985E-01 -0.46860831637E-02  0.14303049153E-01  0.24930050500E-01  0.00000000000E+00 0.  1.
     999901    1    3    3    0    0 -0.24826839439E-01 -0.13240063539E+00  0.73578144363E-01  0.84899060274E+00  0.83500000000E+00 0.  1.
        -11    1    4    4    0    0  0.25441287412E-01  0.89912410510E-01 -0.46543619291E-01  0.10439382303E+00  0.51100000000E-03 0.  1.
         11    1    4    4    0    0  0.19259425013E-01  0.47174308043E-01 -0.41337574224E-01  0.65615523734E-01  0.51100000000E-03 0. -1.
</event>
<event>
 8    1  0.5716970E+005  0.1043930E+01  0.7957747E-01            NaN
         13   -1    0    0    0    0  0.00000000000E+00  0.00000000000E+00  0.74505805969E-08  0.10566000000E+00  0.10566000000E+00 0.  1.
     999900   -1    0    0    0    0 -0.00000000000E+00 -0.00000000000E+00 -0.74505805969E-08  0.93827000000E+00  0.93827000000E+00 0. -1.
     999902    2    1    2    0    0  0.35215339741E-02  0.45426474412E-02 -0.20159815948E-01  0.10229668174E+01  0.10227520004E+01 0.  0.
     999903    2    3    3    0    0 -0.55094726906E-01  0.21259534003E-01 -0.16222451318E+00  0.17377738117E+00  0.19859224805E-01 0.  0.
         14    1    1    2    0    0 -0.35215339741E-02 -0.45426474412E-02  0.20159815948E-01  0.20963182640E-01  0.00000000000E+00 0.  1.
     999901    1    3    3    0    0  0.58616260880E-01 -0.16716886562E-01  0.14206469724E+00  0.84918943619E+00  0.83500000000E+00 0. -1.
        -11    1    4    4    0    0 -0.20425814320E-01 -0.88915327991E-03 -0.66812369009E-01  0.69872442764E-01  0.51100000000E-03 0.  1.
         11    1    4    4    0    0 -0.34668912586E-01  0.22148687283E-01 -0.95412144175E-01  0.10390493841E+00  0.51100000000E-03 0. -1.
</event>
<event>
 8    1  0.5716970E+005  0.1043930E+01  0.7957747E-01            NaN
         13   -1    0    0    0    0  0.00000000000E+00  0.00000000000E+00  0.74505805969E-08  0.10566000000E+00  0.10566000000E+00 0.  1.
     999900   -1    0    0    0    0 -0.00000000000E+00 -0.00000000000E+00 -0.74505805969E-08  0.93827000000E+00  0.93827000000E+00 0. -1.
     999902    2    1    2    0    0  0.87449191234E-02 -0.10740319106E-01  0.19428629282E-01  0.10200699979E+01  0.10197909104E+01 0.  0.
     999903    2    3    3    0    0 -0.20635273587E-01  0.21229187665E-01  0.16766563793E+00  0.17090307919E+00  0.14819021889E-01 0.  0.
         14    1    1    2    0    0 -0.87449191234E-02  0.10740319106E-01 -0.19428629282E-01  0.23860002111E-01  0.00000000000E+00 0.  1.
     999901    1    3    3    0    0  0.29380192710E-01 -0.31969506770E-01 -0.14823700864E+00  0.84916691870E+00  0.83500000000E+00 0. -1.
        -11    1    4    4    0    0  0.17690541423E-02  0.47268847499E-02  0.19684625151E-01  0.20327778539E-01  0.51100000000E-03 0. -1.
         11    1    4    4    0    0 -0.22404327729E-01  0.16502302915E-01  0.14798101277E+00  0.15057530065E+00  0.51100000000E-03 0.  1.
</event>
<event>
 8    1  0.5716970E+005  0.1043930E+01  0.7957747E-01            NaN
         13   -1    0    0    0    0  0.00000000000E+00  0.00000000000E+00  0.74505805969E-08  0.10566000000E+00  0.10566000000E+00 0. -1.
     999900   -1    0    0    0    0 -0.00000000000E+00 -0.00000000000E+00 -0.74505805969E-08  0.93827000000E+00  0.93827000000E+00 0. -1.
     999902    2    1    2    0    0 -0.23115890332E-01  0.54323686576E-02 -0.25415432564E-02  0.10200487426E+01  0.10197691517E+01 0.  0.
     999903    2    3    3    0    0  0.83872023633E-01 -0.12197325897E+00  0.71183020825E-01  0.16545005367E+00  0.19867197987E-01 0.  0.
         14    1    1    2    0    0  0.23115890332E-01 -0.54323686576E-02  0.25415432564E-02  0.23881257446E-01  0.00000000000E+00 0.  1.
     999901    1    3    3    0    0 -0.10698791397E+00  0.12740562762E+00 -0.73724564081E-01  0.85459868888E+00  0.83500000000E+00 0.  1.
        -11    1    4    4    0    0  0.67819883101E-01 -0.10879045640E+00  0.65205497869E-01  0.14382947549E+00  0.51100000000E-03 0. -1.
         11    1    4    4    0    0  0.16052140533E-01 -0.13182802570E-01  0.59775229554E-02  0.21620578183E-01  0.51100000000E-03 0.  1.
</event>
<event>
 8    1  0.5716970E+005  0.1043930E+01  0.7957747E-01            NaN
         13   -1    0    0    0    0  0.00000000000E+00  0.00000000000E+00  0.74505805969E-08  0.10566000000E+00  0.10566000000E+00 0.  1.
     999900   -1    0    0    0    0 -0.00000000000E+00 -0.00000000000E+00 -0.74505805969E-08  0.93827000000E+00  0.93827000000E+00 0.  1.
     999902    2    1    2    0    0 -0.20064436789E-01  0.11778291330E-01 -0.41198462655E-02  0.10203019890E+01  0.10200283652E+01 0.  0.
     999903    2    3    3    0    0 -0.12891172133E+00 -0.10051474802E+00  0.39683404233E-01  0.16965448105E+00  0.22055019952E-01 0.  0.
         14    1    1    2    0    0  0.20064436789E-01 -0.11778291330E-01  0.41198462655E-02  0.23628010994E-01  0.00000000000E+00 0.  1.
     999901    1    3    3    0    0  0.10884728454E+00  0.11229303934E+00 -0.43803250498E-01  0.85064750796E+00  0.83500000000E+00 0.  1.
        -11    1    4    4    0    0 -0.11275939414E+00 -0.85884963821E-01  0.26560318279E-01  0.14421033113E+00  0.51100000000E-03 0.  1.
         11    1    4    4    0    0 -0.16152327190E-01 -0.14629784194E-01  0.13123085954E-01  0.25444149920E-01  0.51100000000E-03 0. -1.
</event>
<event>
 8    1  0.5716970E+005  0.1043930E+01  0.7957747E-01            NaN
         13   -1    0    0    0    0  0.00000000000E+00  0.00000000000E+00  0.74505805969E-08  0.10566000000E+00  0.10566000000E+00 0.  1.
     999900   -1    0    0    0    0 -0.00000000000E+00 -0.00000000000E+00 -0.74505805969E-08  0.93827000000E+00  0.93827000000E+00 0. -1.
     999902    2    1    2    0    0 -0.21308775313E-01  0.42907259828E-02  0.90494532872E-02  0.10203850039E+01  0.10201133219E+01 0.  0.
     999903    2    3    3    0    0  0.39640628316E-01 -0.85862277178E-01  0.13792131963E+00  0.16851919777E+00  0.20801912279E-01 0.  0.
         14    1    1    2    0    0  0.21308775313E-01 -0.42907259828E-02 -0.90494532872E-02  0.23544996062E-01  0.00000000000E+00 0. -1.
     999901    1    3    3    0    0 -0.60949403629E-01  0.90153003161E-01 -0.12887186634E+00  0.85186580617E+00  0.83500000000E+00 0. -1.
        -11    1    4    4    0    0  0.27007849635E-01 -0.55685272074E-01  0.72146111436E-01  0.95055751978E-01  0.51100000000E-03 0.  1.
         11    1    4    4    0    0  0.12632778681E-01 -0.30177005105E-01  0.65775208190E-01  0.73463445793E-01  0.51100000000E-03 0. -1.
</event>
<event>
 8    1  0.5716970E+005  0.1043930E+01  0.7957747E-01            NaN
         13   -1    0    0    0    0  0.00000000000E+00  0.00000000000E+00  0.74505805969E-08  0.10566000000E+00  0.10566000000E+00 0.  1.
     999900   -1    0    0    0    0 -0.00000000000E+00 -0.00000000000E+00 -0.74505805969E-08  0.93827000000E+00  0.93827000000E+00 0.  1.
     999902    2    1    2    0    0  0.17843167953E-01 -0.90403316251E-02  0.10709034295E-01  0.10212410235E+01  0.10209889512E+01 0.  0.
     999903    2    3    3    0    0  0.94207452243E-01  0.32994930909E-01  0.13772318993E+00  0.17214970749E+00  0.26535546365E-01 0.  0.
         14    1    1    2    0    0 -0.17843167953E-01  0.90403316251E-02 -0.10709034295E-01  0.22688976487E-01  0.00000000000E+00 0. -1.
     999901    1    3    3    0    0 -0.76364284290E-01 -0.42035262534E-01 -0.12701415564E+00  0.84909131602E+00  0.83500000000E+00 0.  1.
        -11    1    4    4    0    0  0.24143707966E-01 -0.21097270267E-02  0.24635550061E-01  0.34562132895E-01  0.51100000000E-03 0. -1.
         11    1    4    4    0    0  0.70063744277E-01  0.35104657936E-01  0.11308763987E+00  0.13758757460E+00  0.51100000000E-03 0.  1.
</event>
<event>
 8    1  0.5716970E+005  0.1043930E+01  0.7957747E-01            NaN
         13   -1    0    0    0    0  0.00000000000E+00  0.00000000000E+00  0.74505805969E-08  0.10566000000E+00  0.10566000000E+00 0. -1.
     999900   -1    0    0    0    0 -0.00000000000E+00 -0.00000000000E+00 -0.74505805969E-08  0.93827000000E+00  0.93827000000E+00 0. -1.
     999902    2    1    2    0    0  0.92671321923E-02  0.11233742906E-01  0.18228891976E-01  0.10205982786E+01  0.10203315526E+01 0.  0.
     999903    2    3    3    0    0  0.71834629967E-02 -0.16548503485E+00 -0.12115875355E-02  0.16687888661E+00  0.20253294888E-01 0.  0.
         14    1    1    2    0    0 -0.92671321923E-02 -0.11233742906E-01 -0.18228891976E-01  0.23331721356E-01  0.00000000000E+00 0.  1.
     999901    1    3    3    0    0  0.20836691956E-02  0.17671877775E+00  0.19440479512E-01  0.85371939203E+00  0.83500000000E+00 0.  1.
        -11    1    4    4    0    0 -0.69478176470E-02 -0.69623449841E-01  0.94052828761E-04  0.69971186247E-01  0.51100000000E-03 0.  1.
         11    1    4    4    0    0  0.14131280644E-01 -0.95861585005E-01 -0.13056403642E-02  0.96907700366E-01  0.51100000000E-03 0. -1.
</event>
<event>
 8    1  0.5716970E+005  0.1043930E+01  0.7957747E-01            NaN
         13   -1    0    0    0    0  0.00000000000E+00  0.00000000000E+00  0.74505805969E-08  0.10566000000E+00  0.10566000000E+00 0. -1.
     999900   -1    0    0    0    0 -0.00000000000E+00 -0.00000000000E+00 -0.74505805969E-08  0.93827000000E+00  0.93827000000E+00 0.  1.
     999902    2    1    2    0    0 -0.10354970832E-01 -0.20676731672E-01  0.61644411249E-02  0.10199977417E+01  0.10197169411E+01 0.  0.
     999903    2    3    3    0    0 -0.50941235204E-02  0.64653134869E-01  0.15127060735E+00  0.16818223225E+00  0.34590297129E-01 0.  0.
         14    1    1    2    0    0  0.10354970832E-01  0.20676731672E-01 -0.61644411249E-02  0.23932258313E-01  0.00000000000E+00 0.  1.
     999901    1    3    3    0    0 -0.52608473113E-02 -0.85329866541E-01 -0.14510616622E+00  0.85181550943E+00  0.83500000000E+00 0.  1.
        -11    1    4    4    0    0 -0.80481598309E-02  0.42186963282E-02  0.44833094326E-01  0.45747543576E-01  0.51100000000E-03 0. -1.
         11    1    4    4    0    0  0.29540363105E-02  0.60434438541E-01  0.10643751302E+00  0.12243468868E+00  0.51100000000E-03 0.  1.
</event>
<event>
 8    1  0.5716970E+005  0.1043930E+01  0.7957747E-01            NaN
         13   -1    0    0    0    0  0.00000000000E+00  0.00000000000E+00  0.74505805969E-08  0.10566000000E+00  0.10566000000E+00 0.  1.
     999900   -1    0    0    0    0 -0.00000000000E+00 -0.00000000000E+00 -0.74505805969E-08  0.93827000000E+00  0.93827000000E+00 0.  1.
     999902    2    1    2    0    0  0.32702297459E-02  0.23352152753E-01 -0.85587715190E-02  0.10188447452E+01  0.10185358829E+01 0.  0.
     999903    2    3    3    0    0 -0.98256876920E-01  0.12732443208E+00 -0.52010121994E-01  0.17018049581E+00  0.19759137042E-01 0.  0.
         14    1    1    2    0    0 -0.32702297459E-02 -0.23352152753E-01  0.85587715190E-02  0.25085254847E-01  0.00000000000E+00 0.  1.
     999901    1    3    3    0    0  0.10152710667E+00 -0.10397227933E+00  0.43451350475E-01  0.84866424934E+00  0.83500000000E+00 0. -1.
        -11    1    4    4    0    0 -0.54241467161E-01  0.85879998428E-01 -0.32108047743E-01  0.10653027148E+00  0.51100000000E-03 0.  1.
         11    1    4    4    0    0 -0.44015409758E-01  0.41444433655E-01 -0.19902074251E-01  0.63650224334E-01  0.51100000000E-03 0. -1.
</event>
<event>
 8    1  0.5716970E+005  0.1043930E+01  0.7957747E-01            NaN
         13   -1    0    0    0    0  0.00000000000E+00  0.00000000000E+00  0.74505805969E-08  0.10566000000E+00  0.10566000000E+00 0.  1.
     999900   -1    0    0    0    0 -0.00000000000E+00 -0.00000000000E+00 -0.74505805969E-08  0.93827000000E+00  0.93827000000E+00 0. -1.
     999902    2    1    2    0    0 -0.40717993125E-02 -0.92292428647E-02  0.21488569523E-01  0.10201914850E+01  0.10199152656E+01 0.  0.
     999903    2    3    3    0    0 -0.97166335448E-01 -0.12719102970E+00  0.56820596110E-01  0.17104195289E+00  0.20196898918E-01 0.  0.
         14    1    1    2    0    0  0.40717993125E-02  0.92292428647E-02 -0.21488569523E-01  0.23738514984E-01  0.00000000000E+00 0. -1.
     999901    1    3    3    0    0  0.93094536135E-01  0.11796178683E+00 -0.35332026587E-01  0.84914953213E+00  0.83500000000E+00 0. -1.
        -11    1    4    4    0    0 -0.19860403199E-01 -0.40913975755E-01  0.15915327606E-01  0.48186593583E-01  0.51100000000E-03 0.  1.
         11    1    4    4    0    0 -0.77305932249E-01 -0.86277053942E-01  0.40905268504E-01  0.12285535931E+00  0.51100000000E-03 0. -1.
</event>
<event>
 8    1  0.5716970E+005  0.1043930E+01  0.7957747E-01            NaN
         13   -1    0    0    0    0  0.00000000000E+00  0.00000000000E+00  0.74505805969E-08  0.10566000000E+00  0.10566000000E+00 0. -1.
     999900   -1    0    0    0    0 -0.00000000000E+00 -0.00000000000E+00 -0.74505805969E-08  0.93827000000E+00  0.93827000000E+00 0.  1.
     999902    2    1    2    0    0 -0.26282455490E-03  0.26342339173E-01  0.99796785691E-02  0.10157594144E+01  0.10153687045E+01 0.  0.
     999903    2    3    3    0    0  0.79076653581E-01  0.10662681370E+00 -0.98145200307E-01  0.16625583047E+00  0.19650096236E-01 0.  0.
         14    1    1    2    0    0  0.26282455490E-03 -0.26342339173E-01 -0.99796785691E-02  0.28170585620E-01  0.00000000000E+00 0. -1.
     999901    1    3    3    0    0 -0.79339478136E-01 -0.80284474523E-01  0.10812487888E+00  0.84950358391E+00  0.83500000000E+00 0. -1.
        -11    1    4    4    0    0  0.23448658305E-01  0.44240062985E-01 -0.44051189940E-01  0.66691762650E-01  0.51100000000E-03 0. -1.
         11    1    4    4    0    0  0.55627995275E-01  0.62386750711E-01 -0.54094010367E-01  0.99564067822E-01  0.51100000000E-03 0.  1.
</event>
<event>
 8    1  0.5716970E+005  0.1043930E+01  0.7957747E-01            NaN
         13   -1    0    0    0    0  0.00000000000E+00  0.00000000000E+00  0.74505805969E-08  0.10566000000E+00  0.10566000000E+00 0. -1.
     999900   -1    0    0    0    0 -0.00000000000E+00 -0.00000000000E+00 -0.74505805969E-08  0.93827000000E+00  0.93827000000E+00 0.  1.
     999902    2    1    2    0    0  0.12890990874E-01  0.19121312902E-01 -0.59282060032E-02  0.10201193747E+01  0.10198414547E+01 0.  0.
     999903    2    3    3    0    0  0.16786741999E+00 -0.48113840532E-02 -0.21080868640E-01  0.17038702224E+00  0.19614132989E-01 0.  0.
         14    1    1    2    0    0 -0.12890990874E-01 -0.19121312902E-01  0.59282060032E-02  0.23810625343E-01  0.00000000000E+00 0. -1.
     999901    1    3    3    0    0 -0.15497642912E+00  0.23932696956E-01  0.15152662637E-01  0.84973235242E+00  0.83500000000E+00 0.  1.
        -11    1    4    4    0    0  0.11493093735E+00  0.58306697067E-02 -0.14359969007E-01  0.11597235404E+00  0.51100000000E-03 0.  1.
         11    1    4    4    0    0  0.52936482639E-01 -0.10642053760E-01 -0.67208996330E-02  0.54414668200E-01  0.51100000000E-03 0. -1.
</event>
<event>
 8    1  0.5716970E+005  0.1043930E+01  0.7957747E-01            NaN
         13   -1    0    0    0    0  0.00000000000E+00  0.00000000000E+00  0.74505805969E-08  0.10566000000E+00  0.10566000000E+00 0.  1.
     999900   -1    0    0    0    0 -0.00000000000E+00 -0.00000000000E+00 -0.74505805969E-08  0.93827000000E+00  0.93827000000E+00 0. -1.
     999902    2    1    2    0    0 -0.16043807165E-01 -0.15518069187E-01 -0.96809276672E-02  0.10196002943E+01  0.10193099752E+01 0.  0.
     999903    2    3    3    0    0  0.99141237257E-03 -0.95837052463E-01 -0.13963566034E+00  0.17056874580E+00  0.20244897646E-01 0.  0.
         14    1    1    2    0    0  0.16043807165E-01  0.15518069187E-01  0.96809276672E-02  0.24329705714E-01  0.00000000000E+00 0. -1.
     999901    1    3    3    0    0 -0.17035219538E-01  0.80318983276E-01  0.12995473268E+00  0.84903154849E+00  0.83500000000E+00 0.  1.
        -11    1    4    4    0    0  0.10237518829E-02 -0.69499605085E-01 -0.11571088472E+00  0.13498338097E+00  0.51100000000E-03 0. -1.
         11    1    4    4    0    0 -0.32339510289E-04 -0.26337447378E-01 -0.23924775621E-01  0.35585364825E-01  0.51100000000E-03 0.  1.
</event>
<event>
 8    1  0.5716970E+005  0.1043930E+01  0.7957747E-01            NaN
         13   -1    0    0    0    0  0.00000000000E+00  0.00000000000E+00  0.74505805969E-08  0.10566000000E+00  0.10566000000E+00 0.  1.
     999900   -1    0    0    0    0 -0.00000000000E+00 -0.00000000000E+00 -0.74505805969E-08  0.93827000000E+00  0.93827000000E+00 0.  1.
     999902    2    1    2    0    0 -0.53655488183E-02  0.18996721443E-01 -0.15600082754E-01  0.10187699698E+01  0.10184592403E+01 0.  0.
     999903    2    3    3    0    0 -0.10923922042E+00 -0.18461346711E-01  0.12124871270E+00  0.16545558494E+00  0.20006790281E-01 0.  0.
         14    1    1    2    0    0  0.53655488183E-02 -0.18996721443E-01  0.15600082754E-01  0.25160030240E-01  0.00000000000E+00 0.  1.
     999901    1    3    3    0    0  0.10387367160E+00  0.37458068154E-01 -0.13684879546E+00  0.85331438482E+00  0.83500000000E+00 0.  1.
        -11    1    4    4    0    0 -0.47327347166E-01 -0.26859834192E-02  0.64161863027E-01  0.79775297460E-01  0.51100000000E-03 0. -1.
         11    1    4    4    0    0 -0.61911873250E-01 -0.15775363292E-01  0.57086849674E-01  0.85680287482E-01  0.51100000000E-03 0.  1.
</event>
<event>
 8    1  0.5716970E+005  0.1043930E+01  0.7957747E-01            NaN
         13   -1    0    0    0    0  0.00000000000E+00  0.00000000000E+00  0.74505805969E-08  0.10566000000E+00  0.10566000000E+00 0.  1.
     999900   -1    0    0    0    0 -0.00000000000E+00 -0.00000000000E+00 -0.74505805969E-08  0.93827000000E+00  0.93827000000E+00 0.  1.
     999902    2    1    2    0    0 -0.10464195506E-01 -0.22251077320E-01 -0.18220089876E-02  0.10192737727E+01  0.10189755120E+01 0.  0.
     999903    2    3    3    0    0 -0.14402403650E+00 -0.76932196148E-01  0.45065142899E-01  0.17059735560E+00  0.20275717943E-01 0.  0.
         14    1    1    2    0    0  0.10464195506E-01  0.22251077320E-01  0.18220089876E-02  0.24656227332E-01  0.00000000000E+00 0. -1.
     999901    1    3    3    0    0  0.13355984099E+00  0.54681118828E-01 -0.46887151886E-01  0.84867641707E+00  0.83500000000E+00 0.  1.
        -11    1    4    4    0    0 -0.10563386012E+00 -0.65765626471E-01  0.31308560409E-01  0.12831257579E+00  0.51100000000E-03 0.  1.
         11    1    4    4    0    0 -0.38390176378E-01 -0.11166569677E-01  0.13756582489E-01  0.42284779808E-01  0.51100000000E-03 0. -1.
</event>
<event>
 8    1  0.5716970E+005  0.1043930E+01  0.7957747E-01            NaN
         13   -1    0    0    0    0  0.00000000000E+00  0.00000000000E+00  0.74505805969E-08  0.10566000000E+00  0.10566000000E+00 0. -1.
     999900   -1    0    0    0    0 -0.00000000000E+00 -0.00000000000E+00 -0.74505805969E-08  0.93827000000E+00  0.93827000000E+00 0.  1.
     999902    2    1    2    0    0  0.11521135260E-01  0.75626200843E-02  0.19438271717E-01  0.10201019454E+01  0.10198236136E+01 0.  0.
     999903    2    3    3    0    0  0.81778466409E-01 -0.12106030198E+00  0.84373558683E-01  0.16985401673E+00  0.19702165089E-01 0.  0.
         14    1    1    2    0    0 -0.11521135260E-01 -0.75626200843E-02 -0.19438271717E-01  0.23828054632E-01  0.00000000000E+00 0. -1.
     999901    1    3    3    0    0 -0.70257331150E-01  0.12862292207E+00 -0.64935286965E-01  0.85024792864E+00  0.83500000000E+00 0.  1.
        -11    1    4    4    0    0  0.35942469062E-01 -0.59020416280E-01  0.29227270883E-01  0.75031760638E-01  0.51100000000E-03 0.  1.
         11    1    4    4    0    0  0.45835997348E-01 -0.62039885705E-01  0.55146287800E-01  0.94822256091E-01  0.51100000000E-03 0. -1.
</event>
<event>
 7    1  0.5716970E+005  0.1043930E+01  0.7957747E-01            NaN
         13   -1    0    0    0    0  0.00000000000E+00  0.00000000000E+00  0.74505805969E-08  0.10566000000E+00  0.10566000000E+00 0. -1.
     999900   -1    0    0    0    0 -0.00000000000E+00 -0.00000000000E+00 -0.74505805969E-08  0.93827000000E+00  0.93827000000E+00 0. -1.
     999902    2    1    2    0    0 -0.22125308669E-01  0.48733903629E-02 -0.16596636541E-02  0.10212136248E+01  0.10209609365E+01 0.  0.
         14    1    1    2    0    0  0.22125308669E-01 -0.48733903629E-02  0.16596636541E-02  0.22716375168E-01  0.00000000000E+00 0. -1.
     999901    1    3    3    0    0  0.10320918628E+00  0.83089155703E-01  0.34505120903E-01  0.84615101920E+00  0.83500000000E+00 0.  1.
        -11    1    3    3    0    0 -0.11394436707E-01  0.10538069197E-01 -0.25989324137E-01  0.30275240385E-01  0.51100000000E-03 0. -1.
         11    1    3    3    0    0 -0.11394005825E+00 -0.88753834537E-01 -0.10175460420E-01  0.14478736524E+00  0.51100000000E-03 0.  1.
</event>
<event>
 8    1  0.5716970E+005  0.1043930E+01  0.7957747E-01            NaN
         13   -1    0    0    0    0  0.00000000000E+00  0.00000000000E+00  0.74505805969E-08  0.10566000000E+00  0.10566000000E+00 0.  1.
     999900   -1    0    0    0    0 -0.00000000000E+00 -0.00000000000E+00 -0.74505805969E-08  0.93827000000E+00  0.93827000000E+00 0. -1.
     999902    2    1    2    0    0  0.44926701957E-02 -0.64660920250E-02 -0.21695613331E-01  0.10208498339E+01  0.10205888933E+01 0.  0.
     999903    2    3    3    0    0 -0.60746901827E-01  0.15261517267E+00 -0.30406544511E-01  0.16828668026E+00  0.20353667855E-01 0.  0.
         14    1    1    2    0    0 -0.44926701957E-02  0.64660920250E-02  0.21695613331E-01  0.23080166147E-01  0.00000000000E+00 0.  1.
     999901    1    3    3    0    0  0.65239572022E-01 -0.15908126469E+00  0.87109311798E-02  0.85256315359E+00  0.83500000000E+00 0. -1.
        -11    1    4    4    0    0 -0.45369432403E-01  0.10917056898E+00 -0.12661036340E-01  0.11889979601E+00  0.51100000000E-03 0.  1.
         11    1    4    4    0    0 -0.15377469424E-01  0.43444603685E-01 -0.17745508171E-01  0.49386884255E-01  0.51100000000E-03 0. -1.
</event>
<event>
 8    1  0.5716970E+005  0.1043930E+01  0.7957747E-01            NaN
         13   -1    0    0    0    0  0.00000000000E+00  0.00000000000E+00  0.74505805969E-08  0.10566000000E+00  0.10566000000E+00 0.  1.
     999900   -1    0    0    0    0 -0.00000000000E+00 -0.00000000000E+00 -0.74505805969E-08  0.93827000000E+00  0.93827000000E+00 0.  1.
     999902    2    1    2    0    0  0.12461055869E-01 -0.16560581677E-01  0.13686429070E-01  0.10190935526E+01  0.10187908617E+01 0.  0.
     999903    2    3    3    0    0 -0.42266864177E-01  0.12932692998E+00 -0.88461036628E-01  0.16356014236E+00  0.20362282328E-01 0.  0.
         14    1    1    2    0    0 -0.12461055869E-01  0.16560581677E-01 -0.13686429070E-01  0.24836447401E-01  0.00000000000E+00 0. -1.
     999901    1    3    3    0    0  0.54727920047E-01 -0.14588751166E+00  0.10214746570E+00  0.85553341024E+00  0.83500000000E+00 0. -1.
        -11    1    4    4    0    0 -0.31108407758E-01  0.11522621308E+00 -0.73553411333E-01  0.14019692811E+00  0.51100000000E-03 0.  1.
         11    1    4    4    0    0 -0.11158456419E-01  0.14100716904E-01 -0.14907625295E-01  0.23363214243E-01  0.51100000000E-03 0. -1.
</event>
<event>
 8    1  0.5716970E+005  0.1043930E+01  0.7957747E-01            NaN
         13   -1    0    0    0    0  0.00000000000E+00  0.00000000000E+00  0.74505805969E-08  0.10566000000E+00  0.10566000000E+00 0.  1.
     999900   -1    0    0    0    0 -0.00000000000E+00 -0.00000000000E+00 -0.74505805969E-08  0.93827000000E+00  0.93827000000E+00 0. -1.
     999902    2    1    2    0    0 -0.17239863548E-01 -0.13938285204E-01 -0.73688974556E-02  0.10205678653E+01  0.10203004353E+01 0.  0.
     999903    2    3    3    0    0  0.49413318939E-01  0.11077050135E+00 -0.11338928994E+00  0.16706903586E+00  0.18524351895E-01 0.  0.
         14    1    1    2    0    0  0.17239863548E-01  0.13938285204E-01  0.73688974556E-02  0.23362134733E-01  0.00000000000E+00 0.  1.
     999901    1    3    3    0    0 -0.66653182486E-01 -0.12470878655E+00  0.10602039248E+00  0.85349882941E+00  0.83500000000E+00 0.  1.
        -11    1    4    4    0    0  0.24387072112E-02  0.22657695450E-01 -0.22970575408E-01  0.32360885519E-01  0.51100000000E-03 0. -1.
         11    1    4    4    0    0  0.46974611727E-01  0.88112805899E-01 -0.90418714527E-01  0.13470815034E+00  0.51100000000E-03 0.  1.
</event>
<event>
 8    1  0.5716970E+005  0.1043930E+01  0.7957747E-01            NaN
         13   -1    0    0    0    0  0.00000000000E+00  0.00000000000E+00  0.74505805969E-08  0.10566000000E+00  0.10566000000E+00 0.  1.
     999900   -1    0    0    0    0 -0.00000000000E+00 -0.00000000000E+00 -0.74505805969E-08  0.93827000000E+00  0.93827000000E+00 0.  1.
     999902    2    1    2    0    0 -0.41617039834E-02 -0.21933105166E-01  0.64809336437E-02  0.10206838523E+01  0.10204191016E+01 0.  0.
     999903    2    3    3    0    0 -0.57385866698E-01  0.19853915844E-01  0.15697972788E+00  0.16953530257E+00  0.20304388259E-01 0.  0.
         14    1    1    2    0    0  0.41617039834E-02  0.21933105166E-01 -0.64809336437E-02  0.23246147706E-01  0.00000000000E+00 0. -1.
     999901    1    3    3    0    0  0.53224162715E-01 -0.41787021011E-01 -0.15049879424E+00  0.85114854972E+00  0.83500000000E+00 0.  1.
        -11    1    4    4    0    0 -0.34706961872E-01  0.57217459974E-02  0.67054064771E-01  0.75721993522E-01  0.51100000000E-03 0.  1.
         11    1    4    4    0    0 -0.22678904826E-01  0.14132169847E-01  0.89925663110E-01  0.93813309053E-01  0.51100000000E-03 0. -1.
</event>
<event>
 8    1  0.5716970E+005  0.1043930E+01  0.7957747E-01            NaN
         13   -1    0    0    0    0  0.00000000000E+00  0.00000000000E+00  0.74505805969E-08  0.10566000000E+00  0.10566000000E+00 0. -1.
     999900   -1    0    0    0    0 -0.00000000000E+00 -0.00000000000E+00 -0.74505805969E-08  0.93827000000E+00  0.93827000000E+00 0. -1.
     999902    2    1    2    0    0  0.20033609764E-01  0.86608559207E-02 -0.80641482248E-02  0.10206622878E+01  0.10203970400E+01 0.  0.
     999903    2    3    3    0    0  0.89748609748E-01  0.10786339982E+00 -0.97415321107E-01  0.17218720975E+00  0.21664820376E-01 0.  0.
         14    1    1    2    0    0 -0.20033609764E-01 -0.86608559207E-02  0.80641482248E-02  0.23267712222E-01  0.00000000000E+00 0. -1.
     999901    1    3    3    0    0 -0.69714999984E-01 -0.99202543903E-01  0.89351172882E-01  0.84847507803E+00  0.83500000000E+00 0. -1.
        -11    1    4    4    0    0  0.55596843367E-02  0.16974111618E-01 -0.15593154379E-01  0.23715778284E-01  0.51100000000E-03 0. -1.
         11    1    4    4    0    0  0.84188925411E-01  0.90889288205E-01 -0.81822166728E-01  0.14847143147E+00  0.51100000000E-03 0.  1.
</event>
<event>
 8    1  0.5716970E+005  0.1043930E+01  0.7957747E-01            NaN
         13   -1    0    0    0    0  0.00000000000E+00  0.00000000000E+00  0.74505805969E-08  0.10566000000E+00  0.10566000000E+00 0.  1.
     999900   -1    0    0    0    0 -0.00000000000E+00 -0.00000000000E+00 -0.74505805969E-08  0.93827000000E+00  0.93827000000E+00 0. -1.
     999902    2    1    2    0    0  0.12243572432E-01  0.18337645627E-01  0.90528764980E-02  0.10200945456E+01  0.10198160389E+01 0.  0.
     999903    2    3    3    0    0 -0.14388972007E+00 -0.55493124714E-01  0.58205531611E-01  0.16600463747E+00  0.19644778413E-01 0.  0.
         14    1    1    2    0    0 -0.12243572432E-01 -0.18337645627E-01 -0.90528764980E-02  0.23835454389E-01  0.00000000000E+00 0.  1.
     999901    1    3    3    0    0  0.15613329251E+00  0.73830770341E-01 -0.49152655113E-01  0.85408990814E+00  0.83500000000E+00 0.  1.
        -11    1    4    4    0    0 -0.47513604225E-01 -0.22853227267E-01  0.11130331829E-01  0.53888384561E-01  0.51100000000E-03 0. -1.
         11    1    4    4    0    0 -0.96376115849E-01 -0.32639897447E-01  0.47075199782E-01  0.11211625291E+00  0.51100000000E-03 0.  1.
</event>
<event>
 8    1  0.5716970E+005  0.1043930E+01  0.7957747E-01            NaN
         13   -1    0    0    0    0  0.00000000000E+00  0.00000000000E+00  0.74505805969E-08  0.10566000000E+00  0.10566000000E+00 0.  1.
     999900   -1    0    0    0    0 -0.00000000000E+00 -0.00000000000E+00 -0.74505805969E-08  0.93827000000E+00  0.93827000000E+00 0. -1.
     999902    2    1    2    0    0  0.88879780419E-03 -0.65792125787E-02  0.26881264933E-01  0.10162410418E+01  0.10158637589E+01 0.  0.
     999903    2    3    3    0    0  0.10347722275E+00 -0.12421569915E+00  0.35251662204E-01  0.16673660309E+00  0.20526557871E-01 0.  0.
         14    1    1    2    0    0 -0.88879780419E-03  0.65792125787E-02 -0.26881264933E-01  0.27688958162E-01  0.00000000000E+00 0. -1.
     999901    1    3    3    0    0 -0.10258842495E+00  0.11763648657E+00 -0.83703972705E-02  0.84950443875E+00  0.83500000000E+00 0. -1.
        -11    1    4    4    0    0  0.69825518386E-01 -0.68494704156E-01  0.18980482916E-01  0.99637580099E-01  0.51100000000E-03 0. -1.
         11    1    4    4    0    0  0.33651704363E-01 -0.55720994993E-01  0.16271179288E-01  0.67099022989E-01  0.51100000000E-03 0.  1.
</event>
<event>
 8    1  0.5716970E+005  0.1043930E+01  0.7957747E-01            NaN
         13   -1    0    0    0    0  0.00000000000E+00  0.00000000000E+00  0.74505805969E-08  0.10566000000E+00  0.10566000000E+00 0. -1.
     999900   -1    0    0    0    0 -0.00000000000E+00 -0.00000000000E+00 -0.74505805969E-08  0.93827000000E+00  0.93827000000E+00 0. -1.
     999902    2    1    2    0    0  0.14496366630E-01 -0.14586109265E-01  0.12000801581E-01  0.10201199503E+01  0.10198420439E+01 0.  0.
     999903    2    3    3    0    0  0.10437320436E+00 -0.10031016247E+00  0.90801092910E-01  0.17226327302E+00  0.21769296636E-01 0.  0.
         14    1    1    2    0    0 -0.14496366630E-01  0.14586109265E-01 -0.12000801581E-01  0.23810049718E-01  0.00000000000E+00 0.  1.
     999901    1    3    3    0    0 -0.89876837734E-01  0.85724053201E-01 -0.78800291329E-01  0.84785667726E+00  0.83500000000E+00 0.  1.
        -11    1    4    4    0    0  0.46326545001E-01 -0.59592837630E-01  0.46579164187E-01  0.88697997305E-01  0.51100000000E-03 0.  1.
         11    1    4    4    0    0  0.58046659363E-01 -0.40717324836E-01  0.44221928723E-01  0.83565275719E-01  0.51100000000E-03 0. -1.
</event>
<event>
 7    1  0.5716970E+005  0.1043930E+01  0.7957747E-01            NaN
         13   -1    0    0    0    0  0.00000000000E+00  0.00000000000E+00  0.74505805969E-08  0.10566000000E+00  0.10566000000E+00 0. -1.
     999900   -1    0    0    0    0 -0.00000000000E+00 -0.00000000000E+00 -0.74505805969E-08  0.93827000000E+00  0.93827000000E+00 0.  1.
     999903    2    1    2    0    0  0.57009719263E-01  0.34090777126E-01 -0.19660304007E-01  0.72964535317E-01  0.22913024349E-01 0.  0.
         14    1    1    2    0    0  0.77710843528E-01 -0.94998993578E-01 -0.56243743504E-03  0.12273589662E+00  0.00000000000E+00 0. -1.
     999901    1    1    2    0    0 -0.13472056279E+00  0.60908216452E-01  0.20222741442E-01  0.84822956807E+00  0.83500000000E+00 0.  1.
        -11    1    3    3    0    0  0.12754577163E-01  0.98845944229E-02  0.48813213753E-02  0.16866323395E-01  0.51100000000E-03 0. -1.
         11    1    3    3    0    0  0.44255142100E-01  0.24206182703E-01 -0.24541625383E-01  0.56098211921E-01  0.51100000000E-03 0.  1.
</event>
<event>
 8    1  0.5716970E+005  0.1043930E+01  0.7957747E-01            NaN
         13   -1    0    0    0    0  0.00000000000E+00  0.00000000000E+00  0.74505805969E-08  0.10566000000E+00  0.10566000000E+00 0.  1.
     999900   -1    0    0    0    0 -0.00000000000E+00 -0.00000000000E+00 -0.74505805969E-08  0.93827000000E+00  0.93827000000E+00 0. -1.
     999902    2    1    2    0    0  0.19579121222E-02 -0.37046996624E-02 -0.23389222015E-01  0.10201683939E+01  0.10198916305E+01 0.  0.
     999903    2    3    3    0    0  0.40169252472E-01 -0.10750952508E+00 -0.12608144675E+00  0.17163657871E+00  0.19766565485E-01 0.  0.
         14    1    1    2    0    0 -0.19579121222E-02  0.37046996624E-02  0.23389222015E-01  0.23761606131E-01  0.00000000000E+00 0.  1.
     999901    1    3    3    0    0 -0.38211340350E-01  0.10380482541E+00  0.10269222474E+00  0.84853181516E+00  0.83500000000E+00 0. -1.
        -11    1    4    4    0    0  0.33256356921E-01 -0.90546496357E-01 -0.93986585556E-01  0.13467885010E+00  0.51100000000E-03 0. -1.
         11    1    4    4    0    0  0.69128955510E-02 -0.16963028719E-01 -0.32094861195E-01  0.36957728615E-01  0.51100000000E-03 0.  1.
</event>
<event>
 8    1  0.5716970E+005  0.1043930E+01  0.7957747E-01            NaN
         13   -1    0    0    0    0  0.00000000000E+00  0.00000000000E+00  0.74505805969E-08  0.10566000000E+00  0.10566000000E+00 0.  1.
     999900   -1    0    0    0    0 -0.00000000000E+00 -0.00000000000E+00 -0.74505805969E-08  0.93827000000E+00  0.93827000000E+00 0. -1.
     999902    2    1    2    0    0 -0.19910560617E-01  0.12744571155E-01  0.82484509709E-02  0.10188921993E+01  0.10185845190E+01 0.  0.
     999903    2    3    3    0    0 -0.10311513882E+00  0.93845858272E-01 -0.94934222866E-01  0.16955593803E+00  0.17231728932E-01 0.  0.
         14    1    1    2    0    0  0.19910560617E-01 -0.12744571155E-01 -0.82484509709E-02  0.25037800651E-01  0.00000000000E+00 0.  1.
     999901    1    3    3    0    0  0.83204578205E-01 -0.81101287117E-01  0.10318267384E+00  0.84933626132E+00  0.83500000000E+00 0.  1.
        -11    1    4    4    0    0 -0.72138734593E-01  0.66991878542E-01 -0.76127699247E-01  0.12444917249E+00  0.51100000000E-03 0.  1.
         11    1    4    4    0    0 -0.30976404230E-01  0.26853979730E-01 -0.18806523619E-01  0.45106765545E-01  0.51100000000E-03 0. -1.
</event>
<event>
 8    1  0.5716970E+005  0.1043930E+01  0.7957747E-01            NaN
         13   -1    0    0    0    0  0.00000000000E+00  0.00000000000E+00  0.74505805969E-08  0.10566000000E+00  0.10566000000E+00 0.  1.
     999900   -1    0    0    0    0 -0.00000000000E+00 -0.00000000000E+00 -0.74505805969E-08  0.93827000000E+00  0.93827000000E+00 0.  1.
     999902    2    1    2    0    0 -0.17838083089E-01 -0.12623101922E-01  0.10206600296E-01  0.10198112397E+01  0.10195259928E+01 0.  0.
     999903    2    3    3    0    0  0.15750328977E+00  0.39730799529E-01  0.19653441434E-01  0.16494296277E+00  0.20835078345E-01 0.  0.
         14    1    1    2    0    0  0.17838083089E-01  0.12623101922E-01 -0.10206600296E-01  0.24118760334E-01  0.00000000000E+00 0. -1.
     999901    1    3    3    0    0 -0.17534137286E+00 -0.52353901451E-01 -0.94468411381E-02  0.85486827689E+00  0.83500000000E+00 0. -1.
        -11    1    4    4    0    0  0.14157318441E+00  0.29125429383E-01  0.15641801832E-01  0.14538288849E+00  0.51100000000E-03 0.  1.
         11    1    4    4    0    0  0.15930105361E-01  0.10605370146E-01  0.40116396024E-02  0.19560074285E-01  0.51100000000E-03 0. -1.
</event>
<event>
 8    1  0.5716970E+005  0.1043930E+01  0.7957747E-01            NaN
         13   -1    0    0    0    0  0.00000000000E+00  0.00000000000E+00  0.74505805969E-08  0.10566000000E+00  0.10566000000E+00 0. -1.
     999900   -1    0    0    0    0 -0.00000000000E+00 -0.00000000000E+00 -0.74505805969E-08  0.93827000000E+00  0.93827000000E+00 0.  1.
     999902    2    1    2    0    0  0.73315734681E-02 -0.21525375461E-01  0.70084449802E-02  0.10201347892E+01  0.10198572331E+01 0.  0.
     999903    2    3    3    0    0  0.61101408580E-01  0.15251877075E+00  0.35168829429E-02  0.16548880923E+00  0.19463297601E-01 0.  0.
         14    1    1    2    0    0 -0.73315734681E-02  0.21525375461E-01 -0.70084449802E-02  0.23795210848E-01  0.00000000000E+00 0. -1.
     999901    1    3    3    0    0 -0.53769835112E-01 -0.17404414621E+00  0.34915620372E-02  0.85464597993E+00  0.83500000000E+00 0.  1.
        -11    1    4    4    0    0  0.28073422468E-01  0.53580301071E-01  0.83765653892E-02  0.61068761905E-01  0.51100000000E-03 0.  1.
         11    1    4    4    0    0  0.33027986112E-01  0.98938469676E-01 -0.48596824463E-02  0.10442004732E+00  0.51100000000E-03 0. -1.
</event>
<event>
 8    1  0.5716970E+005  0.1043930E+01  0.7957747E-01            NaN
         13   -1    0    0    0    0  0.00000000000E+00  0.00000000000E+00  0.74505805969E-08  0.10566000000E+00  0.10566000000E+00 0.  1.
     999900   -1    0    0    0    0 -0.00000000000E+00 -0.00000000000E+00 -0.74505805969E-08  0.93827000000E+00  0.93827000000E+00 0.  1.
     999902    2    1    2    0    0 -0.81646302676E-02  0.22013744783E-01 -0.25252493104E-02  0.10203155334E+01  0.10200422269E+01 0.  0.
     999903    2    3    3    0    0  0.14663875807E+00  0.18397874406E-01  0.76133430443E-01  0.16744429377E+00  0.19997128138E-01 0.  0.
         14    1    1    2    0    0  0.81646302676E-02 -0.22013744783E-01  0.25252493104E-02  0.23614466559E-01  0.00000000000E+00 0.  1.
     999901    1    3    3    0    0 -0.15480338834E+00  0.36158703771E-02 -0.78658679753E-01  0.85287123967E+00  0.83500000000E+00 0.  1.
        -11    1    4    4    0    0  0.82554020681E-01  0.10661899455E-01  0.31676600956E-01  0.89064642814E-01  0.51100000000E-03 0.  1.
         11    1    4    4    0    0  0.64084737389E-01  0.77359749511E-02  0.44456829487E-01  0.78379650954E-01  0.51100000000E-03 0. -1.
</event>
<event>
 8    1  0.5716970E+005  0.1043930E+01  0.7957747E-01            NaN
         13   -1    0    0    0    0  0.00000000000E+00  0.00000000000E+00  0.74505805969E-08  0.10566000000E+00  0.10566000000E+00 0. -1.
     999900   -1    0    0    0    0 -0.00000000000E+00 -0.00000000000E+00 -0.74505805969E-08  0.93827000000E+00  0.93827000000E+00 0.  1.
     999902    2    1    2    0    0 -0.97340499673E-02 -0.58897414546E-02 -0.20434977145E-01  0.10205413473E+01  0.10202733029E+01 0.  0.
     999903    2    3    3    0    0  0.12281504470E+00 -0.40794284514E-01 -0.10826208365E+00  0.16982036471E+00  0.19250160006E-01 0.  0.
         14    1    1    2    0    0  0.97340499673E-02  0.58897414546E-02  0.20434977145E-01  0.23388652678E-01  0.00000000000E+00 0. -1.
     999901    1    3    3    0    0 -0.13254909467E+00  0.34904543059E-01  0.87827106503E-01  0.85072098261E+00  0.83500000000E+00 0. -1.
        -11    1    4    4    0    0  0.73125074070E-01 -0.15043059200E-01 -0.57089434195E-01  0.93984225834E-01  0.51100000000E-03 0. -1.
         11    1    4    4    0    0  0.49689970628E-01 -0.25751225314E-01 -0.51172649454E-01  0.75836138874E-01  0.51100000000E-03 0.  1.
</event>
<event>
 8    1  0.5716970E+005  0.1043930E+01  0.7957747E-01            NaN
         13   -1    0    0    0    0  0.00000000000E+00  0.00000000000E+00  0.74505805969E-08  0.10566000000E+00  0.10566000000E+00 0.  1.
     999900   -1    0    0    0    0 -0.00000000000E+00 -0.00000000000E+00 -0.74505805969E-08  0.93827000000E+00  0.93827000000E+00 0.  1.
     999902    2    1    2    0    0  0.74305610307E-02 -0.20616817133E-01  0.76530145908E-02  0.10207171799E+01  0.10204531965E+01 0.  0.
     999903    2    3    3    0    0 -0.11314292478E+00  0.68206580820E-01 -0.98209383172E-01  0.16581402234E+00  0.19893415129E-01 0.  0.
         14    1    1    2    0    0 -0.74305610307E-02  0.20616817133E-01 -0.76530145908E-02  0.23212820127E-01  0.00000000000E+00 0. -1.
     999901    1    3    3    0    0  0.12057348581E+00 -0.88823397953E-01  0.10586239776E+00  0.85490315754E+00  0.83500000000E+00 0. -1.
        -11    1    4    4    0    0 -0.81889448242E-01  0.40791495749E-01 -0.60494275635E-01  0.10967974455E+00  0.51100000000E-03 0.  1.
         11    1    4    4    0    0 -0.31253476539E-01  0.27415085071E-01 -0.37715107537E-01  0.56134277788E-01  0.51100000000E-03 0. -1.
</event>
<event>
 8    1  0.5716970E+005  0.1043930E+01  0.7957747E-01            NaN
         13   -1    0    0    0    0  0.00000000000E+00  0.00000000000E+00  0.74505805969E-08  0.10566000000E+00  0.10566000000E+00 0.  1.
     999900   -1    0    0    0    0 -0.00000000000E+00 -0.00000000000E+00 -0.74505805969E-08  0.93827000000E+00  0.93827000000E+00 0. -1.
     999902    2    1    2    0    0 -0.12537965244E-01  0.23740232621E-01  0.48325538036E-03  0.10170779469E+01  0.10167234223E+01 0.  0.
     999903    2    3    3    0    0 -0.60071180649E-01  0.80540661146E-01  0.13350686240E+00  0.16831062001E+00  0.20224679462E-01 0.  0.
         14    1    1    2    0    0  0.12537965244E-01 -0.23740232621E-01 -0.48325538036E-03  0.26852053053E-01  0.00000000000E+00 0. -1.
     999901    1    3    3    0    0  0.47533215405E-01 -0.56800428524E-01 -0.13302360702E+00  0.84876732693E+00  0.83500000000E+00 0. -1.
        -11    1    4    4    0    0 -0.24864016969E-01  0.17966873583E-01  0.38889572782E-01  0.49534713871E-01  0.51100000000E-03 0.  1.
         11    1    4    4    0    0 -0.35207163680E-01  0.62573787563E-01  0.94617289617E-01  0.11877590614E+00  0.51100000000E-03 0. -1.
</event>
<event>
 8    1  0.5716970E+005  0.1043930E+01  0.7957747E-01            NaN
         13   -1    0    0    0    0  0.00000000000E+00  0.00000000000E+00  0.74505805969E-08  0.10566000000E+00  0.10566000000E+00 0.  1.
     999900   -1    0    0    0    0 -0.00000000000E+00 -0.00000000000E+00 -0.74505805969E-08  0.93827000000E+00  0.93827000000E+00 0.  1.
     999902    2    1    2    0    0 -0.10491780819E-01 -0.20942609549E-01  0.98374830771E-03  0.10204856378E+01  0.10202163000E+01 0.  0.
     999903    2    3    3    0    0 -0.13475968276E+00  0.86178793289E-01  0.47186024918E-01  0.16826667720E+00  0.22365088793E-01 0.  0.
         14    1    1    2    0    0  0.10491780819E-01  0.20942609549E-01 -0.98374830771E-03  0.23444362227E-01  0.00000000000E+00 0. -1.
     999901    1    3    3    0    0  0.12426790194E+00 -0.10712140284E+00 -0.46202276611E-01  0.85221896057E+00  0.83500000000E+00 0.  1.
        -11    1    4    4    0    0 -0.33573134902E-01  0.28897279406E-01  0.21251046115E-01  0.49133249701E-01  0.51100000000E-03 0. -1.
         11    1    4    4    0    0 -0.10118654786E+00  0.57281513883E-01  0.25934978803E-01  0.11913342750E+00  0.51100000000E-03 0.  1.
</event>
<event>
 8    1  0.5716970E+005  0.1043930E+01  0.7957747E-01            NaN
         13   -1    0    0    0    0  0.00000000000E+00  0.00000000000E+00  0.74505805969E-08  0.10566000000E+00  0.10566000000E+00 0.  1.
     999900   -1    0    0    0    0 -0.00000000000E+00 -0.00000000000E+00 -0.74505805969E-08  0.93827000000E+00  0.93827000000E+00 0. -1.
     999902    2    1    2    0    0  0.12415660106E-01 -0.99763685565E-03 -0.20072823880E-01  0.10203066608E+01  0.10200331465E+01 0.  0.
     999903    2    3    3    0    0 -0.37198752460E-01  0.13511528050E+00 -0.93286503295E-01  0.16967538991E+00  0.21153723878E-01 0.  0.
         14    1    1    2    0    0 -0.12415660106E-01  0.99763685565E-03  0.20072823880E-01  0.23623339173E-01  0.00000000000E+00 0.  1.
     999901    1    3    3    0    0  0.49614412566E-01 -0.13611291736E+00  0.73213679415E-01  0.85063127092E+00  0.83500000000E+00 0. -1.
        -11    1    4    4    0    0 -0.11560604732E-01  0.50173285182E-01 -0.22597529639E-01  0.56230913157E-01  0.51100000000E-03 0.  1.
         11    1    4    4    0    0 -0.25638147729E-01  0.84941995323E-01 -0.70688973656E-01  0.11344447675E+00  0.51100000000E-03 0. -1.
</event>
<event>
 8    1  0.5716970E+005  0.1043930E+01  0.7957747E-01            NaN
         13   -1    0    0    0    0  0.00000000000E+00  0.00000000000E+00  0.74505805969E-08  0.10566000000E+00  0.10566000000E+00 0. -1.
     999900   -1    0    0    0    0 -0.00000000000E+00 -0.00000000000E+00 -0.74505805969E-08  0.93827000000E+00  0.93827000000E+00 0.  1.
     999902    2    1    2    0    0 -0.20707570856E-01  0.12458554236E-01  0.75926518804E-04  0.10197633943E+01  0.10194770010E+01 0.  0.
     999903    2    3    3    0    0 -0.15643813579E+00 -0.24316147159E-01  0.61180815746E-01  0.17080286969E+00  0.19140604389E-01 0.  0.
         14    1    1    2    0    0  0.20707570856E-01 -0.12458554236E-01 -0.75926518804E-04  0.24166605662E-01  0.00000000000E+00 0. -1.
     999901    1    3    3    0    0  0.13573056494E+00  0.36774701395E-01 -0.61104889228E-01  0.84896052465E+00  0.83500000000E+00 0.  1.
        -11    1    4    4    0    0 -0.76024109715E-01 -0.18815611965E-01  0.23090882704E-01  0.81652571892E-01  0.51100000000E-03 0.  1.
         11    1    4    4    0    0 -0.80414026078E-01 -0.55005351941E-02  0.38089933043E-01  0.89150297799E-01  0.51100000000E-03 0. -1.
</event>
<event>
 8    1  0.5716970E+005  0.1043930E+01  0.7957747E-01            NaN
         13   -1    0    0    0    0  0.00000000000E+00  0.00000000000E+00  0.74505805969E-08  0.10566000000E+00  0.10566000000E+00 0.  1.
     999900   -1    0    0    0    0 -0.00000000000E+00 -0.00000000000E+00 -0.74505805969E-08  0.93827000000E+00  0.93827000000E+00 0. -1.
     999902    2    1    2    0    0  0.82640831422E-02 -0.25067989600E-02  0.21508034790E-01  0.10207529710E+01  0.10204898104E+01 0.  0.
     999903    2    3    3    0    0 -0.14004431492E+00 -0.46154619994E-01 -0.74015893792E-01  0.16620611208E+00  0.20086315471E-01 0.  0.
         14    1    1    2    0    0 -0.82640831422E-02  0.25067989600E-02 -0.21508034790E-01  0.23177028967E-01  0.00000000000E+00 0. -1.
     999901    1    3    3    0    0  0.14830839807E+00  0.43647821034E-01  0.95523928581E-01  0.85454685895E+00  0.83500000000E+00 0. -1.
        -11    1    4    4    0    0 -0.11519905380E+00 -0.45704729114E-01 -0.60492339093E-01  0.13791058143E+00  0.51100000000E-03 0.  1.
         11    1    4    4    0    0 -0.24845261125E-01 -0.44989087997E-03 -0.13523554699E-01  0.28295530652E-01  0.51100000000E-03 0. -1.
</event>
<event>
 8    1  0.5716970E+005  0.1043930E+01  0.7957747E-01            NaN
         13   -1    0    0    0    0  0.00000000000E+00  0.00000000000E+00  0.74505805969E-08  0.10566000000E+00  0.10566000000E+00 0.  1.
     999900   -1    0    0    0    0 -0.00000000000E+00 -0.00000000000E+00 -0.74505805969E-08  0.93827000000E+00  0.93827000000E+00 0.  1.
     999902    2    1    2    0    0 -0.52470143503E-03 -0.12349498763E-01 -0.17940729709E-01  0.10221434167E+01  0.10219112041E+01 0.  0.
     999903    2    3    3    0    0  0.11362952376E+00 -0.21752012436E-01 -0.12621252747E+00  0.17239793913E+00  0.20165034335E-01 0.  0.
         14    1    1    2    0    0  0.52470143503E-03  0.12349498763E-01  0.17940729709E-01  0.21786583343E-01  0.00000000000E+00 0.  1.
     999901    1    3    3    0    0 -0.11415422519E+00  0.94025136733E-02  0.10827179777E+00  0.84974547753E+00  0.83500000000E+00 0.  1.
        -11    1    4    4    0    0  0.44307532063E-01 -0.10644373965E-01 -0.35942665577E-01  0.58039610822E-01  0.51100000000E-03 0.  1.
         11    1    4    4    0    0  0.69321991693E-01 -0.11107638472E-01 -0.90269861897E-01  0.11435832830E+00  0.51100000000E-03 0. -1.
</event>
<event>
 8    1  0.5716970E+005  0.1043930E+01  0.7957747E-01            NaN
         13   -1    0    0    0    0  0.00000000000E+00  0.00000000000E+00  0.74505805969E-08  0.10566000000E+00  0.10566000000E+00 0.  1.
     999900   -1    0    0    0    0 -0.00000000000E+00 -0.00000000000E+00 -0.74505805969E-08  0.93827000000E+00  0.93827000000E+00 0. -1.
     999902    2    1    2    0    0 -0.19538011719E-01  0.22409127015E-02 -0.12884704041E-01  0.10204189135E+01  0.10201480225E+01 0.  0.
     999903    2    3    3    0    0  0.18943308564E-01 -0.16484999870E+00  0.11891414103E-01  0.16763579877E+00  0.20639386861E-01 0.  0.
         14    1    1    2    0    0  0.19538011719E-01 -0.22409127015E-02  0.12884704041E-01  0.23511086532E-01  0.00000000000E+00 0.  1.
     999901    1    3    3    0    0 -0.38481320283E-01  0.16709091140E+00 -0.24776118144E-01  0.85278311470E+00  0.83500000000E+00 0. -1.
        -11    1    4    4    0    0  0.17356773597E-01 -0.11523228413E+00 -0.22275393348E-03  0.11653346144E+00  0.51100000000E-03 0.  1.
         11    1    4    4    0    0  0.15865349671E-02 -0.49617714567E-01  0.12114168036E-01  0.51102337327E-01  0.51100000000E-03 0. -1.
</event>
<event>
 8    1  0.5716970E+005  0.1043930E+01  0.7957747E-01            NaN
         13   -1    0    0    0    0  0.00000000000E+00  0.00000000000E+00  0.74505805969E-08  0.10566000000E+00  0.10566000000E+00 0. -1.
     999900   -1    0    0    0    0 -0.00000000000E+00 -0.00000000000E+00 -0.74505805969E-08  0.93827000000E+00  0.93827000000E+00 0. -1.
     999902    2    1    2    0    0 -0.39794642718E-02  0.26555420652E-02  0.23570312348E-01  0.10198790611E+01  0.10195954352E+01 0.  0.
     999903    2    3    3    0    0  0.11299180224E+00  0.25118639986E-01  0.12352666734E+00  0.17052451739E+00  0.20534849311E-01 0.  0.
         14    1    1    2    0    0  0.39794642718E-02 -0.26555420652E-02 -0.23570312348E-01  0.24050938936E-01  0.00000000000E+00 0.  1.
     999901    1    3    3    0    0 -0.11697126651E+00 -0.22463097921E-01 -0.99956354997E-01  0.84935454368E+00  0.83500000000E+00 0.  1.
        -11    1    4    4    0    0  0.69567761816E-01  0.20970789578E-01  0.88971554882E-01  0.11487230388E+00  0.51100000000E-03 0.  1.
         11    1    4    4    0    0  0.43424040427E-01  0.41478504083E-02  0.34555112463E-01  0.55652213508E-01  0.51100000000E-03 0. -1.
</event>
<event>
 7    1  0.5716970E+005  0.1043930E+01  0.7957747E-01            NaN
         13   -1    0    0    0    0  0.00000000000E+00  0.00000000000E+00  0.74505805969E-08  0.10566000000E+00  0.10566000000E+00 0. -1.
     999900   -1    0    0    0    0 -0.00000000000E+00 -0.00000000000E+00 -0.74505805969E-08  0.93827000000E+00  0.93827000000E+00 0. -1.
     999903    2    1    2    0    0 -0.26602095718E-01 -0.30741089178E-01  0.14494842098E+00  0.15174692802E+00  0.19089247181E-01 0.  0.
         14    1    1    2    0    0  0.38461031411E-01  0.20773795679E-01 -0.18725364144E-01  0.47554608468E-01  0.00000000000E+00 0. -1.
     999901    1    1    2    0    0 -0.11858935694E-01  0.99672934988E-02 -0.12622305684E+00  0.84462846351E+00  0.83500000000E+00 0. -1.
        -11    1    3    3    0    0 -0.68111399931E-03 -0.30307633663E-02  0.40438420100E-01  0.40560773957E-01  0.51100000000E-03 0. -1.
         11    1    3    3    0    0 -0.25920981718E-01 -0.27710325812E-01  0.10451000088E+00  0.11118615406E+00  0.51100000000E-03 0.  1.
</event>
<event>
 8    1  0.5716970E+005  0.1043930E+01  0.7957747E-01            NaN
         13   -1    0    0    0    0  0.00000000000E+00  0.00000000000E+00  0.74505805969E-08  0.10566000000E+00  0.10566000000E+00 0. -1.
     999900   -1    0    0    0    0 -0.00000000000E+00 -0.00000000000E+00 -0.74505805969E-08  0.93827000000E+00  0.93827000000E+00 0.  1.
     999902    2    1    2    0    0  0.18090636697E-01  0.11062777197E-01 -0.98991164646E-02  0.10205281052E+01  0.10202597536E+01 0.  0.
     999903    2    3    3    0    0 -0.15567259225E+00  0.19406949986E-01 -0.52261361274E-01  0.16654751712E+00  0.19905775337E-01 0.  0.
         14    1    1    2    0    0 -0.18090636697E-01 -0.11062777197E-01  0.98991164646E-02  0.23401894842E-01  0.00000000000E+00 0. -1.
     999901    1    3    3    0    0  0.17376322895E+00 -0.83441727893E-02  0.42362244809E-01  0.85398058803E+00  0.83500000000E+00 0. -1.
        -11    1    4    4    0    0 -0.15817875273E-01  0.82050862767E-02 -0.54632282101E-02  0.18645015485E-01  0.51100000000E-03 0. -1.
         11    1    4    4    0    0 -0.13985471698E+00  0.11201863709E-01 -0.46798133064E-01  0.14790250164E+00  0.51100000000E-03 0.  1.
</event>
<event>
 8    1  0.5716970E+005  0.1043930E+01  0.7957747E-01            NaN
         13   -1    0    0    0    0  0.00000000000E+00  0.00000000000E+00  0.74505805969E-08  0.10566000000E+00  0.10566000000E+00 0. -1.
     999900   -1    0    0    0    0 -0.00000000000E+00 -0.00000000000E+00 -0.74505805969E-08  0.93827000000E+00  0.93827000000E+00 0.  1.
     999902    2    1    2    0    0 -0.22127846524E-02  0.19717518691E-02 -0.23022785172E-01  0.10207172264E+01  0.10204532441E+01 0.  0.
     999903    2    3    3    0    0 -0.86532991561E-01 -0.22484960921E-01  0.13813861810E+00  0.16578680467E+00  0.20234986880E-01 0.  0.
         14    1    1    2    0    0  0.22127846524E-02 -0.19717518691E-02  0.23022785172E-01  0.23212773605E-01  0.00000000000E+00 0. -1.
     999901    1    3    3    0    0  0.84320206909E-01  0.24456712790E-01 -0.16116140327E+00  0.85493042173E+00  0.83500000000E+00 0.  1.
        -11    1    4    4    0    0 -0.55996986310E-01 -0.72551428319E-02  0.73438050129E-01  0.92637508069E-01  0.51100000000E-03 0. -1.
         11    1    4    4    0    0 -0.30536005251E-01 -0.15229818089E-01  0.64700567972E-01  0.73149296597E-01  0.51100000000E-03 0.  1.
</event>
<event>
 8    1  0.5716970E+005  0.1043930E+01  0.7957747E-01            NaN
         13   -1    0    0    0    0  0.00000000000E+00  0.00000000000E+00  0.74505805969E-08  0.10566000000E+00  0.10566000000E+00 0. -1.
     999900   -1    0    0    0    0 -0.00000000000E+00 -0.00000000000E+00 -0.74505805969E-08  0.93827000000E+00  0.93827000000E+00 0.  1.
     999902    2    1    2    0    0 -0.48612997683E-02  0.35120938375E-02 -0.23609208403E-01  0.10195709820E+01  0.10192799544E+01 0.  0.
     999903    2    3    3    0    0  0.12055421970E+00  0.97022791322E-01  0.57222847633E-01  0.16620580552E+00  0.20079182649E-01 0.  0.
         14    1    1    2    0    0  0.48612997683E-02 -0.35120938375E-02  0.23609208403E-01  0.24359018042E-01  0.00000000000E+00 0. -1.
     999901    1    3    3    0    0 -0.12541551947E+00 -0.93510697485E-01 -0.80832056036E-01  0.85336517643E+00  0.83500000000E+00 0. -1.
        -11    1    4    4    0    0  0.10400043977E+00  0.82306703042E-01  0.56145277142E-01  0.14402443579E+00  0.51100000000E-03 0.  1.
         11    1    4    4    0    0  0.16553779925E-01  0.14716088280E-01  0.10775704907E-02  0.22181369733E-01  0.51100000000E-03 0. -1.
</event>
<event>
 8    1  0.5716970E+005  0.1043930E+01  0.7957747E-01            NaN
         13   -1    0    0    0    0  0.00000000000E+00  0.00000000000E+00  0.74505805969E-08  0.10566000000E+00  0.10566000000E+00 0.  1.
     999900   -1    0    0    0    0 -0.00000000000E+00 -0.00000000000E+00 -0.74505805969E-08  0.93827000000E+00  0.93827000000E+00 0. -1.
     999902    2    1    2    0    0  0.46507768121E-02  0.20220763263E-01  0.12746376997E-01  0.10195788374E+01  0.10192879998E+01 0.  0.
     999903    2    3    3    0    0  0.66606874882E-01  0.30236926189E-01 -0.14878676376E+00  0.16678528846E+00  0.18140669438E-01 0.  0.
         14    1    1    2    0    0 -0.46507768121E-02 -0.20220763263E-01 -0.12746376997E-01  0.24351162568E-01  0.00000000000E+00 0. -1.
     999901    1    3    3    0    0 -0.61956098070E-01 -0.10016162927E-01  0.16153314076E+00  0.85279354897E+00  0.83500000000E+00 0.  1.
        -11    1    4    4    0    0  0.30863621095E-01  0.20340553044E-01 -0.89730837549E-01  0.97047336560E-01  0.51100000000E-03 0.  1.
         11    1    4    4    0    0  0.35743253787E-01  0.98963731457E-02 -0.59055926214E-01  0.69737951897E-01  0.51100000000E-03 0. -1.
</event>
<event>
 8    1  0.5716970E+005  0.1043930E+01  0.7957747E-01            NaN
         13   -1    0    0    0    0  0.00000000000E+00  0.00000000000E+00  0.74505805969E-08  0.10566000000E+00  0.10566000000E+00 0.  1.
     999900   -1    0    0    0    0 -0.00000000000E+00 -0.00000000000E+00 -0.74505805969E-08  0.93827000000E+00  0.93827000000E+00 0. -1.
     999902    2    1    2    0    0 -0.10358125917E-03  0.15383347528E-02 -0.23758045263E-01  0.10201219779E+01  0.10198441194E+01 0.  0.
     999903    2    3    3    0    0 -0.12737463054E+00 -0.83490218696E-01 -0.72625127330E-01  0.16980393937E+00  0.19080240655E-01 0.  0.
         14    1    1    2    0    0  0.10358125917E-03 -0.15383347528E-02  0.23758045263E-01  0.23808022127E-01  0.00000000000E+00 0.  1.
     999901    1    3    3    0    0  0.12727104928E+00  0.85028553449E-01  0.48867082067E-01  0.85031803850E+00  0.83500000000E+00 0.  1.
        -11    1    4    4    0    0 -0.46608814206E-01 -0.19884173126E-01 -0.23191596678E-01  0.55730361385E-01  0.51100000000E-03 0. -1.
         11    1    4    4    0    0 -0.80765816336E-01 -0.63606045570E-01 -0.49433530652E-01  0.11407357799E+00  0.51100000000E-03 0.  1.
</event>
<event>
 8    1  0.5716970E+005  0.1043930E+01  0.7957747E-01            NaN
         13   -1    0    0    0    0  0.00000000000E+00  0.00000000000E+00  0.74505805969E-08  0.10566000000E+00  0.10566000000E+00 0.  1.
     999900   -1    0    0    0    0 -0.00000000000E+00 -0.00000000000E+00 -0.74505805969E-08  0.93827000000E+00  0.93827000000E+00 0. -1.
     999902    2    1    2    0    0 -0.17124436417E-01 -0.99602021719E-02 -0.14482419037E-01  0.10193903910E+01  0.10190949793E+01 0.  0.
     999903    2    3    3    0    0  0.15567782278E-01 -0.16362471959E+00 -0.35912382038E-01  0.16946933088E+00  0.20365417211E-01 0.  0.
         14    1    1    2    0    0  0.17124436417E-01  0.99602021719E-02  0.14482419037E-01  0.24539609025E-01  0.00000000000E+00 0.  1.
     999901    1    3    3    0    0 -0.32692218695E-01  0.15366451742E+00  0.21429963000E-01  0.84992106009E+00  0.83500000000E+00 0.  1.
        -11    1    4    4    0    0  0.63638183068E-03 -0.66047784901E-01 -0.60101501310E-02  0.66325695608E-01  0.51100000000E-03 0.  1.
         11    1    4    4    0    0  0.14931400447E-01 -0.97576934693E-01 -0.29902231907E-01  0.10314363527E+00  0.51100000000E-03 0. -1.
</event>
<event>
 8    1  0.5716970E+005  0.1043930E+01  0.7957747E-01            NaN
         13   -1    0    0    0    0  0.00000000000E+00  0.00000000000E+00  0.74505805969E-08  0.10566000000E+00  0.10566000000E+00 0. -1.
     999900   -1    0    0    0    0 -0.00000000000E+00 -0.00000000000E+00 -0.74505805969E-08  0.93827000000E+00  0.93827000000E+00 0.  1.
     999902    2    1    2    0    0 -0.16829291013E-01  0.22737975153E-02 -0.16318578033E-01  0.10203781173E+01  0.10201062744E+01 0.  0.
     999903    2    3    3    0    0  0.10495969317E+00  0.12537220360E+00 -0.30734994623E-01  0.16748972638E+00  0.19324645458E-01 0.  0.
         14    1    1    2    0    0  0.16829291013E-01 -0.22737975153E-02  0.16318578033E-01  0.23551882731E-01  0.00000000000E+00 0. -1.
     999901    1    3    3    0    0 -0.12178898418E+00 -0.12309840609E+00  0.14416416590E-01  0.85288839089E+00  0.83500000000E+00 0. -1.
        -11    1    4    4    0    0  0.51776446690E-01  0.51840288225E-01 -0.64924835117E-02  0.73556980486E-01  0.51100000000E-03 0.  1.
         11    1    4    4    0    0  0.53183246476E-01  0.73531915378E-01 -0.24242511111E-01  0.93932745892E-01  0.51100000000E-03 0. -1.
</event>
<event>
 8    1  0.5716970E+005  0.1043930E+01  0.7957747E-01            NaN
         13   -1    0    0    0    0  0.00000000000E+00  0.00000000000E+00  0.74505805969E-08  0.10566000000E+00  0.10566000000E+00 0. -1.
     999900   -1    0    0    0    0 -0.00000000000E+00 -0.00000000000E+00 -0.74505805969E-08  0.93827000000E+00  0.93827000000E+00 0. -1.
     999902    2    1    2    0    0  0.19910884752E-03 -0.23204389932E-01 -0.20094600538E-02  0.10206379137E+01  0.10203721035E+01 0.  0.
     999903    2    3    3    0    0 -0.68574192624E-01  0.88984178964E-01  0.12106534152E+00  0.16641988015E+00  0.20448853085E-01 0.  0.
         14    1    1    2    0    0 -0.19910884752E-03  0.23204389932E-01  0.20094600538E-02  0.23292086342E-01  0.00000000000E+00 0.  1.
     999901    1    3    3    0    0  0.68773301472E-01 -0.11218856890E+00 -0.12307480157E+00  0.85421803351E+00  0.83500000000E+00 0. -1.
        -11    1    4    4    0    0 -0.52487577963E-01  0.55838475636E-01  0.90144910605E-01  0.11831841459E+00  0.51100000000E-03 0.  1.
         11    1    4    4    0    0 -0.16086614662E-01  0.33145703328E-01  0.30920430914E-01  0.48101465563E-01  0.51100000000E-03 0. -1.
</event>
<event>
 8    1  0.5716970E+005  0.1043930E+01  0.7957747E-01            NaN
         13   -1    0    0    0    0  0.00000000000E+00  0.00000000000E+00  0.74505805969E-08  0.10566000000E+00  0.10566000000E+00 0.  1.
     999900   -1    0    0    0    0 -0.00000000000E+00 -0.00000000000E+00 -0.74505805969E-08  0.93827000000E+00  0.93827000000E+00 0. -1.
     999902    2    1    2    0    0 -0.10450133352E-01 -0.18843942542E-01  0.46249033097E-02  0.10218916428E+01  0.10216539729E+01 0.  0.
     999903    2    3    3    0    0 -0.14268723095E+00 -0.31539508880E-01 -0.88682762958E-01  0.17125708673E+00  0.10486697002E-01 0.  0.
         14    1    1    2    0    0  0.10450133352E-01  0.18843942542E-01 -0.46249033097E-02  0.22038357204E-01  0.00000000000E+00 0. -1.
     999901    1    3    3    0    0  0.13223709760E+00  0.12695566337E-01  0.93307666268E-01  0.85063455606E+00  0.83500000000E+00 0.  1.
        -11    1    4    4    0    0 -0.68269170790E-01 -0.20377571619E-01 -0.44001526444E-01  0.83739599687E-01  0.51100000000E-03 0.  1.
         11    1    4    4    0    0 -0.74418060159E-01 -0.11161937260E-01 -0.44681236515E-01  0.87517487045E-01  0.51100000000E-03 0. -1.
</event>
<event>
 8    1  0.5716970E+005  0.1043930E+01  0.7957747E-01            NaN
         13   -1    0    0    0    0  0.00000000000E+00  0.00000000000E+00  0.74505805969E-08  0.10566000000E+00  0.10566000000E+00 0. -1.
     999900   -1    0    0    0    0 -0.00000000000E+00 -0.00000000000E+00 -0.74505805969E-08  0.93827000000E+00  0.93827000000E+00 0. -1.
     999902    2    1    2    0    0  0.14916290637E-01  0.15946115073E-01 -0.13428894479E-01  0.10182958525E+01  0.10179731498E+01 0.  0.
     999903    2    3    3    0    0 -0.77418383511E-01  0.14756833854E+00  0.27094789451E-02  0.16780449517E+00  0.19518880055E-01 0.  0.
         14    1    1    2    0    0 -0.14916290637E-01 -0.15946115073E-01  0.13428894479E-01  0.25634147523E-01  0.00000000000E+00 0. -1.
     999901    1    3    3    0    0  0.92334674149E-01 -0.13162222346E+00 -0.16138373424E-01  0.85049135731E+00  0.83500000000E+00 0. -1.
        -11    1    4    4    0    0 -0.40040501371E-01  0.55725875323E-01  0.15918160478E-02  0.68639711027E-01  0.51100000000E-03 0.  1.
         11    1    4    4    0    0 -0.37377882140E-01  0.91842463214E-01  0.11176628973E-02  0.99164784142E-01  0.51100000000E-03 0. -1.
</event>
<event>
 8    1  0.5716970E+005  0.1043930E+01  0.7957747E-01            NaN
         13   -1    0    0    0    0  0.00000000000E+00  0.00000000000E+00  0.74505805969E-08  0.10566000000E+00  0.10566000000E+00 0.  1.
     999900   -1    0    0    0    0 -0.00000000000E+00 -0.00000000000E+00 -0.74505805969E-08  0.93827000000E+00  0.93827000000E+00 0. -1.
     999902    2    1    2    0    0 -0.56576313641E-02  0.16735195607E-01 -0.15458833946E-01  0.10204555221E+01  0.10201854839E+01 0.  0.
     999903    2    3    3    0    0 -0.21558563658E-01 -0.13210743825E+00  0.93795359567E-01  0.16513777526E+00  0.23574741416E-01 0.  0.
         14    1    1    2    0    0  0.56576313641E-02 -0.16735195607E-01  0.15458833946E-01  0.23474477877E-01  0.00000000000E+00 0.  1.
     999901    1    3    3    0    0  0.15900932294E-01  0.14884263386E+00 -0.10925419351E+00  0.85531774686E+00  0.83500000000E+00 0. -1.
        -11    1    4    4    0    0 -0.11688110416E-01 -0.46867720788E-01  0.21259990077E-01  0.52777300765E-01  0.51100000000E-03 0.  1.
         11    1    4    4    0    0 -0.98704532419E-02 -0.85239717462E-01  0.72535369490E-01  0.11236047449E+00  0.51100000000E-03 0. -1.
</event>
<event>
 8    1  0.5716970E+005  0.1043930E+01  0.7957747E-01            NaN
         13   -1    0    0    0    0  0.00000000000E+00  0.00000000000E+00  0.74505805969E-08  0.10566000000E+00  0.10566000000E+00 0. -1.
     999900   -1    0    0    0    0 -0.00000000000E+00 -0.00000000000E+00 -0.74505805969E-08  0.93827000000E+00  0.93827000000E+00 0.  1.
     999902    2    1    2    0    0  0.11190022732E-01  0.11725302347E-01 -0.16783586507E-01  0.10205978741E+01  0.10203311386E+01 0.  0.
     999903    2    3    3    0    0 -0.83710540631E-01  0.11006783978E+00 -0.98042222625E-01  0.17059473436E+00  0.19180771778E-01 0.  0.
         14    1    1    2    0    0 -0.11190022732E-01 -0.11725302347E-01  0.16783586507E-01  0.23332125919E-01  0.00000000000E+00 0. -1.
     999901    1    3    3    0    0  0.94900563363E-01 -0.98342537436E-01  0.81258636119E-01  0.85000313972E+00  0.83500000000E+00 0. -1.
        -11    1    4    4    0    0 -0.61368078514E-01  0.66969802379E-01 -0.68443274401E-01  0.11373538773E+00  0.51100000000E-03 0.  1.
         11    1    4    4    0    0 -0.22342462117E-01  0.43098037404E-01 -0.29598948224E-01  0.56859346624E-01  0.51100000000E-03 0. -1.
</event>
<event>
 8    1  0.5716970E+005  0.1043930E+01  0.7957747E-01            NaN
         13   -1    0    0    0    0  0.00000000000E+00  0.00000000000E+00  0.74505805969E-08  0.10566000000E+00  0.10566000000E+00 0.  1.
     999900   -1    0    0    0    0 -0.00000000000E+00 -0.00000000000E+00 -0.74505805969E-08  0.93827000000E+00  0.93827000000E+00 0. -1.
     999902    2    1    2    0    0 -0.15782238993E-01  0.15781625134E-01 -0.98960024866E-02  0.10195154628E+01  0.10192230911E+01 0.  0.
     999903    2    3    3    0    0 -0.10985708056E+00 -0.80074176621E-01 -0.95996286654E-01  0.16941154597E+00  0.31694367738E-01 0.  0.
         14    1    1    2    0    0  0.15782238993E-01 -0.15781625134E-01  0.98960024866E-02  0.24414537160E-01  0.00000000000E+00 0.  1.
     999901    1    3    3    0    0  0.94074841564E-01  0.95855801755E-01  0.86100284167E-01  0.85010391687E+00  0.83500000000E+00 0.  1.
        -11    1    4    4    0    0 -0.76353330672E-01 -0.43891297585E-01 -0.46715819518E-01  0.99694062123E-01  0.51100000000E-03 0. -1.
         11    1    4    4    0    0 -0.33503749886E-01 -0.36182879036E-01 -0.49280467137E-01  0.69717483847E-01  0.51100000000E-03 0.  1.
</event>
<event>
 8    1  0.5716970E+005  0.1043930E+01  0.7957747E-01            NaN
         13   -1    0    0    0    0  0.00000000000E+00  0.00000000000E+00  0.74505805969E-08  0.10566000000E+00  0.10566000000E+00 0. -1.
     999900   -1    0    0    0    0 -0.00000000000E+00 -0.00000000000E+00 -0.74505805969E-08  0.93827000000E+00  0.93827000000E+00 0.  1.
     999902    2    1    2    0    0  0.18009342099E-01 -0.99357004881E-02 -0.13979445101E-01  0.10190607533E+01  0.10187572525E+01 0.  0.
     999903    2    3    3    0    0  0.71189581879E-02 -0.16761247974E+00  0.95881475531E-02  0.16890723856E+00  0.17120155765E-01 0.  0.
         14    1    1    2    0    0 -0.18009342099E-01  0.99357004881E-02  0.13979445101E-01  0.24869246719E-01  0.00000000000E+00 0.  1.
     999901    1    3    3    0    0  0.10890383911E-01  0.15767677925E+00 -0.23567592654E-01  0.85015351473E+00  0.83500000000E+00 0.  1.
        -11    1    4    4    0    0  0.85772841629E-03 -0.13006036034E-02  0.15911164665E-02  0.22847407685E-02  0.51100000000E-03 0. -1.
         11    1    4    4    0    0  0.62612297716E-02 -0.16631187613E+00  0.79970310866E-02  0.16662249779E+00  0.51100000000E-03 0.  1.
</event>
<event>
 8    1  0.5716970E+005  0.1043930E+01  0.7957747E-01            NaN
         13   -1    0    0    0    0  0.00000000000E+00  0.00000000000E+00  0.74505805969E-08  0.10566000000E+00  0.10566000000E+00 0. -1.
     999900   -1    0    0    0    0 -0.00000000000E+00 -0.00000000000E+00 -0.74505805969E-08  0.93827000000E+00  0.93827000000E+00 0. -1.
     999902    2    1    2    0    0  0.77450201758E-02  0.13899456018E-01 -0.17669780809E-01  0.10201518300E+01  0.10198746761E+01 0.  0.
     999903    2    3    3    0    0  0.89642668731E-01 -0.13888658238E+00 -0.15862753602E-01  0.16734524951E+00  0.20676430031E-01 0.  0.
         14    1    1    2    0    0 -0.77450201758E-02 -0.13899456018E-01  0.17669780809E-01  0.23778170008E-01  0.00000000000E+00 0.  1.
     999901    1    3    3    0    0 -0.81897648555E-01  0.15278603840E+00 -0.18070272064E-02  0.85280658048E+00  0.83500000000E+00 0. -1.
        -11    1    4    4    0    0  0.34831056330E-02 -0.10815881558E-01  0.32011576591E-02  0.11816253640E-01  0.51100000000E-03 0.  1.
         11    1    4    4    0    0  0.86159563098E-01 -0.12807070082E+00 -0.19063911261E-01  0.15552899587E+00  0.51100000000E-03 0. -1.
</event>
<event>
 8    1  0.5716970E+005  0.1043930E+01  0.7957747E-01            NaN
         13   -1    0    0    0    0  0.00000000000E+00  0.00000000000E+00  0.74505805969E-08  0.10566000000E+00  0.10566000000E+00 0.  1.
     999900   -1    0    0    0    0 -0.00000000000E+00 -0.00000000000E+00 -0.74505805969E-08  0.93827000000E+00  0.93827000000E+00 0. -1.
     999902    2    1    2    0    0 -0.20511981443E-02 -0.12359290527E-01  0.19427326283E-01  0.10208133289E+01  0.10205515528E+01 0.  0.
     999903    2    3    3    0    0  0.15108408665E+00  0.56745735122E-01  0.44433970919E-01  0.16871224787E+00  0.21046736487E-01 0.  0.
         14    1    1    2    0    0  0.20511981443E-02  0.12359290527E-01 -0.19427326283E-01  0.23116671098E-01  0.00000000000E+00 0. -1.
     999901    1    3    3    0    0 -0.15313528479E+00 -0.69105025649E-01 -0.25006644636E-01  0.85210108103E+00  0.83500000000E+00 0.  1.
        -11    1    4    4    0    0  0.10493546903E+00  0.29275871220E-01  0.32585685331E-01  0.11371287220E+00  0.51100000000E-03 0. -1.
         11    1    4    4    0    0  0.46148617623E-01  0.27469863902E-01  0.11848285588E-01  0.54999375666E-01  0.51100000000E-03 0.  1.
</event>
<event>
 8    1  0.5716970E+005  0.1043930E+01  0.7957747E-01            NaN
         13   -1    0    0    0    0  0.00000000000E+00  0.00000000000E+00  0.74505805969E-08  0.10566000000E+00  0.10566000000E+00 0. -1.
     999900   -1    0    0    0    0 -0.00000000000E+00 -0.00000000000E+00 -0.74505805969E-08  0.93827000000E+00  0.93827000000E+00 0. -1.
     999902    2    1    2    0    0 -0.21194490586E-01  0.17401074103E-02  0.94182268034E-02  0.10206719390E+01  0.10204069138E+01 0.  0.
     999903    2    3    3    0    0  0.57043825502E-01 -0.15573965023E+00 -0.50400084378E-02  0.16723468371E+00  0.20813482855E-01 0.  0.
         14    1    1    2    0    0  0.21194490586E-01 -0.17401074103E-02 -0.94182268034E-02  0.23258060992E-01  0.00000000000E+00 0. -1.
     999901    1    3    3    0    0 -0.78238316087E-01  0.15747975764E+00  0.14458235241E-01  0.85343725530E+00  0.83500000000E+00 0.  1.
        -11    1    4    4    0    0  0.27683825799E-02 -0.10421125408E-02  0.10448293035E-02  0.31784791851E-02  0.51100000000E-03 0. -1.
         11    1    4    4    0    0  0.54275442922E-01 -0.15469753769E+00 -0.60848377413E-02  0.16405620452E+00  0.51100000000E-03 0.  1.
</event>
<event>
 8    1  0.5716970E+005  0.1043930E+01  0.7957747E-01            NaN
         13   -1    0    0    0    0  0.00000000000E+00  0.00000000000E+00  0.74505805969E-08  0.10566000000E+00  0.10566000000E+00 0. -1.
     999900   -1    0    0    0    0 -0.00000000000E+00 -0.00000000000E+00 -0.74505805969E-08  0.93827000000E+00  0.93827000000E+00 0.  1.
     999902    2    1    2    0    0  0.11913913298E-01 -0.83366761203E-03 -0.20413636699E-01  0.10202793574E+01  0.10200052031E+01 0.  0.
     999903    2    3    3    0    0  0.76731024374E-01  0.14299376536E+00 -0.47061306353E-01  0.17008956291E+00  0.19514759079E-01 0.  0.
         14    1    1    2    0    0 -0.11913913298E-01  0.83366761203E-03  0.20413636699E-01  0.23650642593E-01  0.00000000000E+00 0.  1.
     999901    1    3    3    0    0 -0.64817111075E-01 -0.14382743298E+00  0.26647669654E-01  0.85018979449E+00  0.83500000000E+00 0.  1.
        -11    1    4    4    0    0  0.79617134988E-02  0.21957953859E-01 -0.73266514124E-03  0.23373885828E-01  0.51100000000E-03 0. -1.
         11    1    4    4    0    0  0.68769310875E-01  0.12103581150E+00 -0.46328641212E-01  0.14671567708E+00  0.51100000000E-03 0.  1.
</event>
<event>
 8    1  0.5716970E+005  0.1043930E+01  0.7957747E-01            NaN
         13   -1    0    0    0    0  0.00000000000E+00  0.00000000000E+00  0.74505805969E-08  0.10566000000E+00  0.10566000000E+00 0.  1.
     999900   -1    0    0    0    0 -0.00000000000E+00 -0.00000000000E+00 -0.74505805969E-08  0.93827000000E+00  0.93827000000E+00 0.  1.
     999902    2    1    2    0    0  0.21671844118E-01  0.98973572626E-02  0.10727850667E-01  0.10178012172E+01  0.10174657756E+01 0.  0.
     999903    2    3    3    0    0 -0.94369952284E-01 -0.10673447858E+00 -0.75537599559E-01  0.16238587278E+00  0.19112977758E-01 0.  0.
         14    1    1    2    0    0 -0.21671844118E-01 -0.98973572626E-02 -0.10727850667E-01  0.26128782753E-01  0.00000000000E+00 0.  1.
     999901    1    3    3    0    0  0.11604179640E+00  0.11663183585E+00  0.86265450226E-01  0.85541534447E+00  0.83500000000E+00 0. -1.
        -11    1    4    4    0    0 -0.52281649481E-01 -0.44738278476E-01 -0.36122861372E-01  0.77717479811E-01  0.51100000000E-03 0. -1.
         11    1    4    4    0    0 -0.42088302803E-01 -0.61996200108E-01 -0.39414738187E-01  0.84668392970E-01  0.51100000000E-03 0.  1.
</event>
<event>
 8    1  0.5716970E+005  0.1043930E+01  0.7957747E-01            NaN
         13   -1    0    0    0    0  0.00000000000E+00  0.00000000000E+00  0.74505805969E-08  0.10566000000E+00  0.10566000000E+00 0.  1.
     999900   -1    0    0    0    0 -0.00000000000E+00 -0.00000000000E+00 -0.74505805969E-08  0.93827000000E+00  0.93827000000E+00 0.  1.
     999902    2    1    2    0    0 -0.24228899545E-02  0.20035871204E-01 -0.12892602670E-01  0.10199816027E+01  0.10197004188E+01 0.  0.
     999903    2    3    3    0    0  0.13614879838E+00 -0.47489901987E-01  0.79579338546E-01  0.16585169291E+00  0.19548064555E-01 0.  0.
         14    1    1    2    0    0  0.24228899545E-02 -0.20035871204E-01  0.12892602670E-01  0.23948397321E-01  0.00000000000E+00 0.  1.
     999901    1    3    3    0    0 -0.13857168833E+00  0.67525773191E-01 -0.92471941216E-01  0.85412990977E+00  0.83500000000E+00 0.  1.
        -11    1    4    4    0    0  0.48485129610E-01 -0.10284742718E-01  0.35146148193E-01  0.60762624860E-01  0.51100000000E-03 0. -1.
         11    1    4    4    0    0  0.87663668765E-01 -0.37205159268E-01  0.44433190352E-01  0.10508906805E+00  0.51100000000E-03 0.  1.
</event>
<event>
 8    1  0.5716970E+005  0.1043930E+01  0.7957747E-01            NaN
         13   -1    0    0    0    0  0.00000000000E+00  0.00000000000E+00  0.74505805969E-08  0.10566000000E+00  0.10566000000E+00 0.  1.
     999900   -1    0    0    0    0 -0.00000000000E+00 -0.00000000000E+00 -0.74505805969E-08  0.93827000000E+00  0.93827000000E+00 0.  1.
     999902    2    1    2    0    0  0.84992282246E-02 -0.17962243927E-01  0.11845289082E-01  0.10207958270E+01  0.10205336498E+01 0.  0.
     999903    2    3    3    0    0  0.19528400928E-01 -0.16491337828E+00 -0.37367456757E-01  0.17146481208E+00  0.20641564365E-01 0.  0.
         14    1    1    2    0    0 -0.84992282246E-02  0.17962243927E-01 -0.11845289082E-01  0.23134173008E-01  0.00000000000E+00 0. -1.
     999901    1    3    3    0    0 -0.11029172703E-01  0.14695113435E+00  0.49212745839E-01  0.84933101491E+00  0.83500000000E+00 0.  1.
        -11    1    4    4    0    0 -0.99984266134E-03 -0.46185551224E-01 -0.36375618318E-02  0.46342181695E-01  0.51100000000E-03 0.  1.
         11    1    4    4    0    0  0.20528243589E-01 -0.11872782705E+00 -0.33729894925E-01  0.12512263039E+00  0.51100000000E-03 0. -1.
</event>
<event>
 8    1  0.5716970E+005  0.1043930E+01  0.7957747E-01            NaN
         13   -1    0    0    0    0  0.00000000000E+00  0.00000000000E+00  0.74505805969E-08  0.10566000000E+00  0.10566000000E+00 0. -1.
     999900   -1    0    0    0    0 -0.00000000000E+00 -0.00000000000E+00 -0.74505805969E-08  0.93827000000E+00  0.93827000000E+00 0.  1.
     999902    2    1    2    0    0  0.55932427139E-02 -0.17944641452E-01  0.56948395809E-02  0.10242900988E+01  0.10241017922E+01 0.  0.
     999903    2    3    3    0    0  0.16393487439E+00 -0.48309914314E-01 -0.19141894699E-01  0.17350458795E+00  0.22998674854E-01 0.  0.
         14    1    1    2    0    0 -0.55932427139E-02  0.17944641452E-01 -0.56948395809E-02  0.19639901189E-01  0.00000000000E+00 0. -1.
     999901    1    3    3    0    0 -0.15834163168E+00  0.30365272862E-01  0.24836734280E-01  0.85078551086E+00  0.83500000000E+00 0.  1.
        -11    1    4    4    0    0  0.39814627563E-01 -0.44469647386E-02  0.22757331869E-02  0.40130040443E-01  0.51100000000E-03 0.  1.
         11    1    4    4    0    0  0.12412024683E+00 -0.43862949575E-01 -0.21417627886E-01  0.13337454751E+00  0.51100000000E-03 0. -1.
</event>
<event>
 8    1  0.5716970E+005  0.1043930E+01  0.7957747E-01            NaN
         13   -1    0    0    0    0  0.00000000000E+00  0.00000000000E+00  0.74505805969E-08  0.10566000000E+00  0.10566000000E+00 0.  1.
     999900   -1    0    0    0    0 -0.00000000000E+00 -0.00000000000E+00 -0.74505805969E-08  0.93827000000E+00  0.93827000000E+00 0. -1.
     999902    2    1    2    0    0  0.32132303630E-01  0.68692325739E-02  0.56405614766E-02  0.10105910254E+01  0.10100409563E+01 0.  0.
     999903    2    3    3    0    0  0.38511393421E-01  0.14927795361E+00 -0.46161766668E-01  0.16192771301E+00  0.17962201522E-01 0.  0.
         14    1    1    2    0    0 -0.32132303630E-01 -0.68692325739E-02 -0.56405614766E-02  0.33338974587E-01  0.00000000000E+00 0. -1.
     999901    1    3    3    0    0 -0.63790897906E-02 -0.14240872103E+00  0.51802328145E-01  0.84866331240E+00  0.83500000000E+00 0.  1.
        -11    1    4    4    0    0  0.21135280680E-01  0.54448675448E-01 -0.23005269796E-01  0.62776284589E-01  0.51100000000E-03 0.  1.
         11    1    4    4    0    0  0.17376112741E-01  0.94829278159E-01 -0.23156496872E-01  0.99151428424E-01  0.51100000000E-03 0. -1.
</event>
<event>
 8    1  0.5716970E+005  0.1043930E+01  0.7957747E-01            NaN
         13   -1    0    0    0    0  0.00000000000E+00  0.00000000000E+00  0.74505805969E-08  0.10566000000E+00  0.10566000000E+00 0. -1.
     999900   -1    0    0    0    0 -0.00000000000E+00 -0.00000000000E+00 -0.74505805969E-08  0.93827000000E+00  0.93827000000E+00 0. -1.
     999902    2    1    2    0    0  0.90166866719E-02  0.19976170171E-01 -0.66896690726E-02  0.10210149463E+01  0.10207577680E+01 0.  0.
     999903    2    3    3    0    0  0.15991447842E+00 -0.11507161730E-01  0.52390250755E-01  0.16985292844E+00  0.20005592902E-01 0.  0.
         14    1    1    2    0    0 -0.90166866719E-02 -0.19976170171E-01  0.66896690726E-02  0.22915053689E-01  0.00000000000E+00 0. -1.
     999901    1    3    3    0    0 -0.15089779174E+00  0.31483331902E-01 -0.59079919827E-01  0.85116201787E+00  0.83500000000E+00 0. -1.
        -11    1    4    4    0    0  0.89534301592E-01  0.34896749518E-02  0.29751751450E-01  0.94413965219E-01  0.51100000000E-03 0.  1.
         11    1    4    4    0    0  0.70380176823E-01 -0.14996836682E-01  0.22638499304E-01  0.75438963221E-01  0.51100000000E-03 0. -1.
</event>
<event>
 8    1  0.5716970E+005  0.1043930E+01  0.7957747E-01            NaN
         13   -1    0    0    0    0  0.00000000000E+00  0.00000000000E+00  0.74505805969E-08  0.10566000000E+00  0.10566000000E+00 0.  1.
     999900   -1    0    0    0    0 -0.00000000000E+00 -0.00000000000E+00 -0.74505805969E-08  0.93827000000E+00  0.93827000000E+00 0.  1.
     999902    2    1    2    0    0 -0.68283688770E-02 -0.17681685798E-01 -0.14870796698E-01  0.10198383162E+01  0.10195537170E+01 0.  0.
     999903    2    3    3    0    0 -0.96592864526E-02 -0.16918987194E+00  0.92811980459E-02  0.17085594688E+00  0.19674840921E-01 0.  0.
         14    1    1    2    0    0  0.68283688770E-02  0.17681685798E-01  0.14870796698E-01  0.24091683806E-01  0.00000000000E+00 0.  1.
     999901    1    3    3    0    0  0.28309175756E-02  0.15150818614E+00 -0.24151994744E-01  0.84898236932E+00  0.83500000000E+00 0. -1.
        -11    1    4    4    0    0 -0.11300598989E-01 -0.11767739066E+00  0.14251160455E-01  0.11907572593E+00  0.51100000000E-03 0. -1.
         11    1    4    4    0    0  0.16413125366E-02 -0.51512481279E-01 -0.49699624086E-02  0.51780220951E-01  0.51100000000E-03 0.  1.
</event>
<event>
 8    1  0.5716970E+005  0.1043930E+01  0.7957747E-01            NaN
         13   -1    0    0    0    0  0.00000000000E+00  0.00000000000E+00  0.74505805969E-08  0.10566000000E+00  0.10566000000E+00 0. -1.
     999900   -1    0    0    0    0 -0.00000000000E+00 -0.00000000000E+00 -0.74505805969E-08  0.93827000000E+00  0.93827000000E+00 0.  1.
     999902    2    1    2    0    0  0.18052784378E-01  0.21757163875E-02 -0.15249498683E-01  0.10201985025E+01  0.10199224482E+01 0.  0.
     999903    2    3    3    0    0 -0.15488815907E-01 -0.33644730441E-01 -0.16517598876E+00  0.17042730043E+00  0.19760722836E-01 0.  0.
         14    1    1    2    0    0 -0.18052784378E-01 -0.21757163875E-02  0.15249498683E-01  0.23731497544E-01  0.00000000000E+00 0. -1.
     999901    1    3    3    0    0  0.33541600285E-01  0.35820446828E-01  0.14992649007E+00  0.84977120202E+00  0.83500000000E+00 0. -1.
        -11    1    4    4    0    0 -0.15345526588E-01 -0.11332774538E-01 -0.90370458318E-01  0.92363400883E-01  0.51100000000E-03 0. -1.
         11    1    4    4    0    0 -0.14328931903E-03 -0.22311955902E-01 -0.74805530438E-01  0.78063899551E-01  0.51100000000E-03 0.  1.
</event>
<event>
 8    1  0.5716970E+005  0.1043930E+01  0.7957747E-01            NaN
         13   -1    0    0    0    0  0.00000000000E+00  0.00000000000E+00  0.74505805969E-08  0.10566000000E+00  0.10566000000E+00 0.  1.
     999900   -1    0    0    0    0 -0.00000000000E+00 -0.00000000000E+00 -0.74505805969E-08  0.93827000000E+00  0.93827000000E+00 0.  1.
     999902    2    1    2    0    0  0.23068436064E-02 -0.21582199317E-01  0.10585103791E-01  0.10197813504E+01  0.10194953876E+01 0.  0.
     999903    2    3    3    0    0 -0.16303192701E+00 -0.25473540208E-01  0.26617355420E-01  0.16840946651E+00  0.20614420339E-01 0.  0.
         14    1    1    2    0    0 -0.23068436064E-02  0.21582199317E-01 -0.10585103791E-01  0.24148649591E-01  0.00000000000E+00 0. -1.
     999901    1    3    3    0    0  0.16533877061E+00  0.38913408906E-02 -0.16032251629E-01  0.85137188390E+00  0.83500000000E+00 0. -1.
        -11    1    4    4    0    0 -0.14726693604E+00 -0.16986405066E-01  0.25851881994E-01  0.15048145843E+00  0.51100000000E-03 0. -1.
         11    1    4    4    0    0 -0.15764990965E-01 -0.84871351411E-02  0.76547342671E-03  0.17928008077E-01  0.51100000000E-03 0.  1.
</event>
<event>
 8    1  0.5716970E+005  0.1043930E+01  0.7957747E-01            NaN
         13   -1    0    0    0    0  0.00000000000E+00  0.00000000000E+00  0.74505805969E-08  0.10566000000E+00  0.10566000000E+00 0. -1.
     999900   -1    0    0    0    0 -0.00000000000E+00 -0.00000000000E+00 -0.74505805969E-08  0.93827000000E+00  0.93827000000E+00 0. -1.
     999902    2    1    2    0    0  0.21790658254E-01 -0.95027147141E-02  0.43853321096E-02  0.10197563467E+01  0.10194697844E+01 0.  0.
     999903    2    3    3    0    0  0.10582734991E-01 -0.16759777328E+00  0.15528091135E-01  0.16977468449E+00  0.19527262791E-01 0.  0.
         14    1    1    2    0    0 -0.21790658254E-01  0.95027147141E-02 -0.43853321096E-02  0.24173653257E-01  0.00000000000E+00 0. -1.
     999901    1    3    3    0    0  0.11207923263E-01  0.15809505856E+00 -0.11142759025E-01  0.84998166225E+00  0.83500000000E+00 0.  1.
        -11    1    4    4    0    0 -0.11454636854E-02 -0.88230297015E-01  0.15225526782E-01  0.89543147058E-01  0.51100000000E-03 0. -1.
         11    1    4    4    0    0  0.11728198677E-01 -0.79367476263E-01  0.30256435335E-03  0.80231537433E-01  0.51100000000E-03 0.  1.
</event>
<event>
 8    1  0.5716970E+005  0.1043930E+01  0.7957747E-01            NaN
         13   -1    0    0    0    0  0.00000000000E+00  0.00000000000E+00  0.74505805969E-08  0.10566000000E+00  0.10566000000E+00 0.  1.
     999900   -1    0    0    0    0 -0.00000000000E+00 -0.00000000000E+00 -0.74505805969E-08  0.93827000000E+00  0.93827000000E+00 0. -1.
     999902    2    1    2    0    0  0.16315155456E-01 -0.62043422118E-02 -0.17729247903E-01  0.10190502011E+01  0.10187464395E+01 0.  0.
     999903    2    3    3    0    0  0.78440460636E-01 -0.80145769173E-01  0.12200507926E+00  0.16694834670E+00  0.20254898658E-01 0.  0.
         14    1    1    2    0    0 -0.16315155456E-01  0.62043422118E-02  0.17729247903E-01  0.24879798854E-01  0.00000000000E+00 0.  1.
     999901    1    3    3    0    0 -0.62125305180E-01  0.73941426961E-01 -0.13973432716E+00  0.85210185445E+00  0.83500000000E+00 0. -1.
        -11    1    4    4    0    0  0.47728395435E-01 -0.51060129042E-01  0.61363575856E-01  0.93010139616E-01  0.51100000000E-03 0.  1.
         11    1    4    4    0    0  0.30712065201E-01 -0.29085640130E-01  0.60641503402E-01  0.73938207082E-01  0.51100000000E-03 0. -1.
</event>
<event>
 8    1  0.5716970E+005  0.1043930E+01  0.7957747E-01            NaN
         13   -1    0    0    0    0  0.00000000000E+00  0.00000000000E+00  0.74505805969E-08  0.10566000000E+00  0.10566000000E+00 0.  1.
     999900   -1    0    0    0    0 -0.00000000000E+00 -0.00000000000E+00 -0.74505805969E-08  0.93827000000E+00  0.93827000000E+00 0.  1.
     999902    2    1    2    0    0  0.11700862354E-01 -0.19557621054E-01 -0.14125713644E-02  0.10210956820E+01  0.10208403331E+01 0.  0.
     999903    2    3    3    0    0  0.59065453239E-01 -0.34747891162E-01  0.15446276603E+00  0.17021597863E+00  0.20459461991E-01 0.  0.
         14    1    1    2    0    0 -0.11700862354E-01  0.19557621054E-01  0.14125713644E-02  0.22834318010E-01  0.00000000000E+00 0.  1.
     999901    1    3    3    0    0 -0.47364590885E-01  0.15190270108E-01 -0.15587533740E+00  0.85087970336E+00  0.83500000000E+00 0.  1.
        -11    1    4    4    0    0  0.57128155088E-02 -0.16806848733E-02  0.32529178687E-01  0.33073698761E-01  0.51100000000E-03 0. -1.
         11    1    4    4    0    0  0.53352637730E-01 -0.33067206289E-01  0.12193358735E+00  0.13714227987E+00  0.51100000000E-03 0.  1.
</event>
<event>
 8    1  0.5716970E+005  0.1043930E+01  0.7957747E-01            NaN
         13   -1    0    0    0    0  0.00000000000E+00  0.00000000000E+00  0.74505805969E-08  0.10566000000E+00  0.10566000000E+00 0.  1.
     999900   -1    0    0    0    0 -0.00000000000E+00 -0.00000000000E+00 -0.74505805969E-08  0.93827000000E+00  0.93827000000E+00 0.  1.
     999902    2    1    2    0    0  0.19906068387E-01  0.12045713546E-01 -0.11922790390E-02  0.10206325258E+01  0.10203665912E+01 0.  0.
     999903    2    3    3    0    0 -0.50471195426E-01 -0.14842582388E+00 -0.50831999591E-01  0.16600209375E+00  0.19880547893E-01 0.  0.
         14    1    1    2    0    0 -0.19906068387E-01 -0.12045713546E-01  0.11922790390E-02  0.23297474172E-01  0.00000000000E+00 0.  1.
     999901    1    3    3    0    0  0.70377263813E-01  0.16047153742E+00  0.49639720552E-01  0.85463043208E+00  0.83500000000E+00 0. -1.
        -11    1    4    4    0    0 -0.22159908865E-01 -0.66166568792E-01 -0.33029387387E-01  0.77202836339E-01  0.51100000000E-03 0.  1.
         11    1    4    4    0    0 -0.28311286560E-01 -0.82259255085E-01 -0.17802612204E-01  0.88799257407E-01  0.51100000000E-03 0. -1.
</event>
<event>
 8    1  0.5716970E+005  0.1043930E+01  0.7957747E-01            NaN
         13   -1    0    0    0    0  0.00000000000E+00  0.00000000000E+00  0.74505805969E-08  0.10566000000E+00  0.10566000000E+00 0.  1.
     999900   -1    0    0    0    0 -0.00000000000E+00 -0.00000000000E+00 -0.74505805969E-08  0.93827000000E+00  0.93827000000E+00 0.  1.
     999902    2    1    2    0    0  0.15639293112E-01  0.18511653616E-01  0.25727240516E-02  0.10195601884E+01  0.10192688998E+01 0.  0.
     999903    2    3    3    0    0 -0.96987053646E-01  0.10131858078E+00 -0.90494310628E-01  0.16783948645E+00  0.17576392434E-01 0.  0.
         14    1    1    2    0    0 -0.15639293112E-01 -0.18511653616E-01 -0.25727240516E-02  0.24369811606E-01  0.00000000000E+00 0. -1.
     999901    1    3    3    0    0  0.11262634676E+00 -0.82806927162E-01  0.93067034679E-01  0.85172070194E+00  0.83500000000E+00 0. -1.
        -11    1    4    4    0    0 -0.30125122218E-01  0.43180597118E-01 -0.36735346890E-01  0.64201509237E-01  0.51100000000E-03 0.  1.
         11    1    4    4    0    0 -0.66861931429E-01  0.58137983660E-01 -0.53758963737E-01  0.10363797722E+00  0.51100000000E-03 0. -1.
</event>
<event>
 8    1  0.5716970E+005  0.1043930E+01  0.7957747E-01            NaN
         13   -1    0    0    0    0  0.00000000000E+00  0.00000000000E+00  0.74505805969E-08  0.10566000000E+00  0.10566000000E+00 0. -1.
     999900   -1    0    0    0    0 -0.00000000000E+00 -0.00000000000E+00 -0.74505805969E-08  0.93827000000E+00  0.93827000000E+00 0.  1.
     999902    2    1    2    0    0 -0.20552557249E-02 -0.83004059325E-02  0.19855617878E-01  0.10223113419E+01  0.10220827332E+01 0.  0.
     999903    2    3    3    0    0 -0.16832032111E+00  0.32590650392E-02 -0.15053635060E-01  0.17012512446E+00  0.19328580928E-01 0.  0.
         14    1    1    2    0    0  0.20552557249E-02  0.83004059325E-02 -0.19855617878E-01  0.21618658054E-01  0.00000000000E+00 0.  1.
     999901    1    3    3    0    0  0.16626506538E+00 -0.11559470972E-01  0.34909252938E-01  0.85218621749E+00  0.83500000000E+00 0.  1.
        -11    1    4    4    0    0 -0.56372338286E-01  0.31091644728E-02  0.38484169997E-02  0.56591332039E-01  0.51100000000E-03 0.  1.
         11    1    4    4    0    0 -0.11194798282E+00  0.14990056641E-03 -0.18902052060E-01  0.11353379242E+00  0.51100000000E-03 0. -1.
</event>
<event>
 8    1  0.5716970E+005  0.1043930E+01  0.7957747E-01            NaN
         13   -1    0    0    0    0  0.00000000000E+00  0.00000000000E+00  0.74505805969E-08  0.10566000000E+00  0.10566000000E+00 0.  1.
     999900   -1    0    0    0    0 -0.00000000000E+00 -0.00000000000E+00 -0.74505805969E-08  0.93827000000E+00  0.93827000000E+00 0. -1.
     999902    2    1    2    0    0 -0.10342725946E-01 -0.20934595268E-01  0.66847249077E-02  0.10196418381E+01  0.10193525216E+01 0.  0.
     999903    2    3    3    0    0  0.24358992825E-01 -0.12422825300E+00  0.11302896459E+00  0.17087338543E+00  0.19903457972E-01 0.  0.
         14    1    1    2    0    0  0.10342725946E-01  0.20934595268E-01 -0.66847249077E-02  0.24288161851E-01  0.00000000000E+00 0. -1.
     999901    1    3    3    0    0 -0.34701718771E-01  0.10329365773E+00 -0.10634423968E+00  0.84876845272E+00  0.83500000000E+00 0.  1.
        -11    1    4    4    0    0  0.22747297939E-01 -0.64628794692E-01  0.61420817509E-01  0.92016838738E-01  0.51100000000E-03 0. -1.
         11    1    4    4    0    0  0.16116948856E-02 -0.59599458305E-01  0.51608147079E-01  0.78856546695E-01  0.51100000000E-03 0.  1.
</event>
<event>
 7    1  0.5716970E+005  0.1043930E+01  0.7957747E-01            NaN
         13   -1    0    0    0    0  0.00000000000E+00  0.00000000000E+00  0.74505805969E-08  0.10566000000E+00  0.10566000000E+00 0. -1.
     999900   -1    0    0    0    0 -0.00000000000E+00 -0.00000000000E+00 -0.74505805969E-08  0.93827000000E+00  0.93827000000E+00 0.  1.
     999903    2    1    2    0    0 -0.62055760543E-01 -0.80520480072E-01 -0.10461170597E+00  0.14710952589E+00  0.19056192038E-01 0.  0.
         14    1    1    2    0    0 -0.13530553675E-01 -0.87870275126E-02  0.49275406514E-01  0.51849333866E-01  0.00000000000E+00 0. -1.
     999901    1    1    2    0    0  0.75586314218E-01  0.89307507585E-01  0.55336299452E-01  0.84497114024E+00  0.83500000000E+00 0.  1.
        -11    1    3    3    0    0 -0.40885786211E-01 -0.53169345401E-01 -0.81298068746E-01  0.10539574900E+00  0.51100000000E-03 0. -1.
         11    1    3    3    0    0 -0.21169974333E-01 -0.27351134672E-01 -0.23313637219E-01  0.41713776890E-01  0.51100000000E-03 0.  1.
</event>
<event>
 8    1  0.5716970E+005  0.1043930E+01  0.7957747E-01            NaN
         13   -1    0    0    0    0  0.00000000000E+00  0.00000000000E+00  0.74505805969E-08  0.10566000000E+00  0.10566000000E+00 0. -1.
     999900   -1    0    0    0    0 -0.00000000000E+00 -0.00000000000E+00 -0.74505805969E-08  0.93827000000E+00  0.93827000000E+00 0. -1.
     999902    2    1    2    0    0  0.59219917447E-03 -0.16192497144E-01 -0.17111037911E-01  0.10203644471E+01  0.10200922849E+01 0.  0.
     999903    2    3    3    0    0 -0.14239359915E+00 -0.88551720841E-01  0.15112857032E-01  0.16951535641E+00  0.19741156734E-01 0.  0.
         14    1    1    2    0    0 -0.59219917447E-03  0.16192497144E-01  0.17111037911E-01  0.23565552869E-01  0.00000000000E+00 0.  1.
     999901    1    3    3    0    0  0.14298579832E+00  0.72359223697E-01 -0.32223894943E-01  0.85084909072E+00  0.83500000000E+00 0. -1.
        -11    1    4    4    0    0 -0.51803325152E-01 -0.31084936527E-01  0.14930915347E-01  0.62233842319E-01  0.51100000000E-03 0. -1.
         11    1    4    4    0    0 -0.90590273994E-01 -0.57466784314E-01  0.18194168504E-03  0.10728151409E+00  0.51100000000E-03 0.  1.
</event>
<event>
 8    1  0.5716970E+005  0.1043930E+01  0.7957747E-01            NaN
         13   -1    0    0    0    0  0.00000000000E+00  0.00000000000E+00  0.74505805969E-08  0.10566000000E+00  0.10566000000E+00 0.  1.
     999900   -1    0    0    0    0 -0.00000000000E+00 -0.00000000000E+00 -0.74505805969E-08  0.93827000000E+00  0.93827000000E+00 0. -1.
     999902    2    1    2    0    0  0.39373637780E-02 -0.45729191036E-02 -0.24073054514E-01  0.10191121359E+01  0.10188099034E+01 0.  0.
     999903    2    3    3    0    0  0.68987761474E-01 -0.21071033708E-01  0.14631927596E+00  0.16426578232E+00  0.19251416304E-01 0.  0.
         14    1    1    2    0    0 -0.39373637780E-02  0.45729191036E-02  0.24073054514E-01  0.24817864056E-01  0.00000000000E+00 0.  1.
     999901    1    3    3    0    0 -0.65050397696E-01  0.16498114604E-01 -0.17039233047E+00  0.85484635363E+00  0.83500000000E+00 0. -1.
        -11    1    4    4    0    0  0.38508855918E-01 -0.10461881671E-01  0.10124895062E+00  0.10883011566E+00  0.51100000000E-03 0.  1.
         11    1    4    4    0    0  0.30478905556E-01 -0.10609152037E-01  0.45070325336E-01  0.55435666657E-01  0.51100000000E-03 0. -1.
</event>
<event>
 8    1  0.5716970E+005  0.1043930E+01  0.7957747E-01            NaN
         13   -1    0    0    0    0  0.00000000000E+00  0.00000000000E+00  0.74505805969E-08  0.10566000000E+00  0.10566000000E+00 0.  1.
     999900   -1    0    0    0    0 -0.00000000000E+00 -0.00000000000E+00 -0.74505805969E-08  0.93827000000E+00  0.93827000000E+00 0. -1.
     999902    2    1    2    0    0  0.11059194990E-01 -0.87319320498E-02  0.23402927363E-01  0.10166124335E+01  0.10162453397E+01 0.  0.
     999903    2    3    3    0    0  0.31435282873E-01  0.79030244087E-01  0.14370022350E+00  0.16819400843E+00  0.20137371948E-01 0.  0.
         14    1    1    2    0    0 -0.11059194990E-01  0.87319320498E-02 -0.23402927363E-01  0.27317566515E-01  0.00000000000E+00 0. -1.
     999901    1    3    3    0    0 -0.20376087883E-01 -0.87762176137E-01 -0.12029729613E+00  0.84841842506E+00  0.83500000000E+00 0. -1.
        -11    1    4    4    0    0  0.15343113193E-01  0.51348807461E-01  0.72827895856E-01  0.90422755355E-01  0.51100000000E-03 0.  1.
         11    1    4    4    0    0  0.16092169680E-01  0.27681436626E-01  0.70872327639E-01  0.77771253074E-01  0.51100000000E-03 0. -1.
</event>
<event>
 8    1  0.5716970E+005  0.1043930E+01  0.7957747E-01            NaN
         13   -1    0    0    0    0  0.00000000000E+00  0.00000000000E+00  0.74505805969E-08  0.10566000000E+00  0.10566000000E+00 0.  1.
     999900   -1    0    0    0    0 -0.00000000000E+00 -0.00000000000E+00 -0.74505805969E-08  0.93827000000E+00  0.93827000000E+00 0.  1.
     999902    2    1    2    0    0  0.46410489605E-02 -0.29551784119E-02 -0.23794695827E-01  0.10195074701E+01  0.10192149046E+01 0.  0.
     999903    2    3    3    0    0 -0.18825251435E-01 -0.88823068529E-01  0.13572648438E+00  0.16475840244E+00  0.21902625864E-01 0.  0.
         14    1    1    2    0    0 -0.46410489605E-02  0.29551784119E-02  0.23794695827E-01  0.24422529852E-01  0.00000000000E+00 0.  1.
     999901    1    3    3    0    0  0.23466300396E-01  0.85867890117E-01 -0.15952118020E+00  0.85474906770E+00  0.83500000000E+00 0.  1.
        -11    1    4    4    0    0  0.47489285884E-02 -0.18838583282E-01  0.25042115115E-01  0.31698788514E-01  0.51100000000E-03 0. -1.
         11    1    4    4    0    0 -0.23574180023E-01 -0.69984485247E-01  0.11068436926E+00  0.13305961393E+00  0.51100000000E-03 0.  1.
</event>
<event>
 8    1  0.5716970E+005  0.1043930E+01  0.7957747E-01            NaN
         13   -1    0    0    0    0  0.00000000000E+00  0.00000000000E+00  0.74505805969E-08  0.10566000000E+00  0.10566000000E+00 0.  1.
     999900   -1    0    0    0    0 -0.00000000000E+00 -0.00000000000E+00 -0.74505805969E-08  0.93827000000E+00  0.93827000000E+00 0.  1.
     999902    2    1    2    0    0 -0.18609000230E-01 -0.29221051176E-02  0.14886521726E-01  0.10199207910E+01  0.10196381602E+01 0.  0.
     999903    2    3    3    0    0 -0.15943290449E+00 -0.60178227898E-02  0.61209419640E-01  0.17185725190E+00  0.18255321197E-01 0.  0.
         14    1    1    2    0    0  0.18609000230E-01  0.29221051176E-02 -0.14886521726E-01  0.24009209003E-01  0.00000000000E+00 0.  1.
     999901    1    3    3    0    0  0.14082390426E+00  0.30957176722E-02 -0.46322897915E-01  0.84806353910E+00  0.83500000000E+00 0.  1.
        -11    1    4    4    0    0 -0.12557920649E-01 -0.11797826058E-02  0.10432748924E-01  0.16376709961E-01  0.51100000000E-03 0.  1.
         11    1    4    4    0    0 -0.14687498384E+00 -0.48380401840E-02  0.50776670716E-01  0.15548054194E+00  0.51100000000E-03 0. -1.
</event>
<event>
 8    1  0.5716970E+005  0.1043930E+01  0.7957747E-01            NaN
         13   -1    0    0    0    0  0.00000000000E+00  0.00000000000E+00  0.74505805969E-08  0.10566000000E+00  0.10566000000E+00 0. -1.
     999900   -1    0    0    0    0 -0.00000000000E+00 -0.00000000000E+00 -0.74505805969E-08  0.93827000000E+00  0.93827000000E+00 0. -1.
     999902    2    1    2    0    0  0.23696803132E-01 -0.45546709892E-02  0.40205530780E-02  0.10194667959E+01  0.10191732432E+01 0.  0.
     999903    2    3    3    0    0 -0.89930714246E-01  0.87374050966E-01 -0.10503189414E+00  0.16478583857E+00  0.20022878412E-01 0.  0.
         14    1    1    2    0    0 -0.23696803132E-01  0.45546709892E-02 -0.40205530780E-02  0.24463204073E-01  0.00000000000E+00 0.  1.
     999901    1    3    3    0    0  0.11362751738E+00 -0.91928721956E-01  0.10905244721E+00  0.85468095736E+00  0.83500000000E+00 0.  1.
        -11    1    4    4    0    0 -0.48047219797E-01  0.60237965302E-01 -0.62634052837E-01  0.99299715457E-01  0.51100000000E-03 0.  1.
         11    1    4    4    0    0 -0.41883494449E-01  0.27136085664E-01 -0.42397841299E-01  0.65486123112E-01  0.51100000000E-03 0. -1.
</event>
<event>
 8    1  0.5716970E+005  0.1043930E+01  0.7957747E-01            NaN
         13   -1    0    0    0    0  0.00000000000E+00  0.00000000000E+00  0.74505805969E-08  0.10566000000E+00  0.10566000000E+00 0. -1.
     999900   -1    0    0    0    0 -0.00000000000E+00 -0.00000000000E+00 -0.74505805969E-08  0.93827000000E+00  0.93827000000E+00 0.  1.
     999902    2    1    2    0    0  0.12607002226E-02 -0.21878603280E-01  0.12189346642E-01  0.10188532614E+01  0.10185446114E+01 0.  0.
     999903    2    3    3    0    0 -0.57336297736E-01  0.38854662250E-01 -0.14787263656E+00  0.16447221283E+00  0.19688990161E-01 0.  0.
         14    1    1    2    0    0 -0.12607002226E-02  0.21878603280E-01 -0.12189346642E-01  0.25076738586E-01  0.00000000000E+00 0.  1.
     999901    1    3    3    0    0  0.58596997959E-01 -0.60733265530E-01  0.16006198320E+00  0.85438104858E+00  0.83500000000E+00 0. -1.
        -11    1    4    4    0    0 -0.48041450790E-01  0.26011325458E-01 -0.12702878374E+00  0.13827922138E+00  0.51100000000E-03 0.  1.
         11    1    4    4    0    0 -0.92948469464E-02  0.12843336792E-01 -0.20843852816E-01  0.26192991447E-01  0.51100000000E-03 0. -1.
</event>
<event>
 8    1  0.5716970E+005  0.1043930E+01  0.7957747E-01            NaN
         13   -1    0    0    0    0  0.00000000000E+00  0.00000000000E+00  0.74505805969E-08  0.10566000000E+00  0.10566000000E+00 0.  1.
     999900   -1    0    0    0    0 -0.00000000000E+00 -0.00000000000E+00 -0.74505805969E-08  0.93827000000E+00  0.93827000000E+00 0. -1.
     999902    2    1    2    0    0 -0.72358545886E-02 -0.20204176687E-01 -0.10486310881E-01  0.10200442498E+01  0.10197645525E+01 0.  0.
     999903    2    3    3    0    0 -0.12916829827E+00 -0.84867839172E-01  0.67250109837E-01  0.17015198534E+00  0.23283501434E-01 0.  0.
         14    1    1    2    0    0  0.72358545886E-02  0.20204176687E-01  0.10486310881E-01  0.23885750211E-01  0.00000000000E+00 0.  1.
     999901    1    3    3    0    0  0.12193244368E+00  0.64663662484E-01 -0.77736420718E-01  0.84989226445E+00  0.83500000000E+00 0.  1.
        -11    1    4    4    0    0 -0.42754818475E-01 -0.37237598657E-01  0.33557223989E-01  0.65885974680E-01  0.51100000000E-03 0. -1.
         11    1    4    4    0    0 -0.86413479791E-01 -0.47630240514E-01  0.33692885848E-01  0.10426601066E+00  0.51100000000E-03 0.  1.
</event>
<event>
 8    1  0.5716970E+005  0.1043930E+01  0.7957747E-01            NaN
         13   -1    0    0    0    0  0.00000000000E+00  0.00000000000E+00  0.74505805969E-08  0.10566000000E+00  0.10566000000E+00 0. -1.
     999900   -1    0    0    0    0 -0.00000000000E+00 -0.00000000000E+00 -0.74505805969E-08  0.93827000000E+00  0.93827000000E+00 0. -1.
     999902    2    1    2    0    0 -0.45401074513E-02  0.19121424789E-01  0.13097731706E-01  0.10203123787E+01  0.10200389983E+01 0.  0.
     999903    2    3    3    0    0 -0.14808307515E+00 -0.75920192315E-01  0.94644791406E-03  0.16766347891E+00  0.20437065590E-01 0.  0.
         14    1    1    2    0    0  0.45401074513E-02 -0.19121424789E-01 -0.13097731706E-01  0.23617621334E-01  0.00000000000E+00 0.  1.
     999901    1    3    3    0    0  0.14354296770E+00  0.95041617104E-01  0.12151283792E-01  0.85264889976E+00  0.83500000000E+00 0.  1.
        -11    1    4    4    0    0 -0.12701361647E+00 -0.58504997716E-01 -0.39086795164E-02  0.13989579130E+00  0.51100000000E-03 0. -1.
         11    1    4    4    0    0 -0.21069458681E-01 -0.17415194599E-01  0.48551274305E-02  0.27767687613E-01  0.51100000000E-03 0.  1.
</event>
<event>
 8    1  0.5716970E+005  0.1043930E+01  0.7957747E-01            NaN
         13   -1    0    0    0    0  0.00000000000E+00  0.00000000000E+00  0.74505805969E-08  0.10566000000E+00  0.10566000000E+00 0. -1.
     999900   -1    0    0    0    0 -0.00000000000E+00 -0.00000000000E+00 -0.74505805969E-08  0.93827000000E+00  0.93827000000E+00 0. -1.
     999902    2    1    2    0    0 -0.18028369206E-01 -0.17026339274E-01 -0.36089269660E-02  0.10188712155E+01  0.10185630129E+01 0.  0.
     999903    2    3    3    0    0  0.13061791915E-01  0.15963784189E+00  0.29935858824E-01  0.16416244426E+00  0.19957492122E-01 0.  0.
         14    1    1    2    0    0  0.18028369206E-01  0.17026339274E-01  0.36089269660E-02  0.25058784470E-01  0.00000000000E+00 0.  1.
     999901    1    3    3    0    0 -0.31090161121E-01 -0.17666418116E+00 -0.33544785790E-01  0.85470877127E+00  0.83500000000E+00 0. -1.
        -11    1    4    4    0    0  0.12196873266E-01  0.44311378347E-01  0.11359575031E-01  0.47345147950E-01  0.51100000000E-03 0.  1.
         11    1    4    4    0    0  0.86491864890E-03  0.11532646354E+00  0.18576283794E-01  0.11681729631E+00  0.51100000000E-03 0. -1.
</event>
<event>
 8    1  0.5716970E+005  0.1043930E+01  0.7957747E-01            NaN
         13   -1    0    0    0    0  0.00000000000E+00  0.00000000000E+00  0.74505805969E-08  0.10566000000E+00  0.10566000000E+00 0.  1.
     999900   -1    0    0    0    0 -0.00000000000E+00 -0.00000000000E+00 -0.74505805969E-08  0.93827000000E+00  0.93827000000E+00 0. -1.
     999902    2    1    2    0    0 -0.19984634873E-01  0.53425428280E-03  0.12757275190E-01  0.10202146225E+01  0.10199389476E+01 0.  0.
     999903    2    3    3    0    0 -0.14893064921E+00  0.79842181331E-01 -0.17339736787E-01  0.17106937462E+00  0.20222568287E-01 0.  0.
         14    1    1    2    0    0  0.19984634873E-01 -0.53425428280E-03 -0.12757275190E-01  0.23715377478E-01  0.00000000000E+00 0.  1.
     999901    1    3    3    0    0  0.12894601433E+00 -0.79307927048E-01  0.30097011977E-01  0.84914524790E+00  0.83500000000E+00 0.  1.
        -11    1    4    4    0    0 -0.61598935602E-01  0.43813956830E-01 -0.44890964290E-02  0.75726513112E-01  0.51100000000E-03 0. -1.
         11    1    4    4    0    0 -0.87331713604E-01  0.36028224501E-01 -0.12850640358E-01  0.95342861507E-01  0.51100000000E-03 0.  1.
</event>
<event>
 8    1  0.5716970E+005  0.1043930E+01  0.7957747E-01            NaN
         13   -1    0    0    0    0  0.00000000000E+00  0.00000000000E+00  0.74505805969E-08  0.10566000000E+00  0.10566000000E+00 0. -1.
     999900   -1    0    0    0    0 -0.00000000000E+00 -0.00000000000E+00 -0.74505805969E-08  0.93827000000E+00  0.93827000000E+00 0.  1.
     999902    2    1    2    0    0 -0.18450904174E-01  0.62326912308E-02  0.13965350897E-01  0.10199651647E+01  0.10196835901E+01 0.  0.
     999903    2    3    3    0    0 -0.56046782245E-01 -0.74355034797E-01 -0.13696805189E+00  0.16678656459E+00  0.19687505884E-01 0.  0.
         14    1    1    2    0    0  0.18450904174E-01 -0.62326912308E-02 -0.13965350897E-01  0.23964835290E-01  0.00000000000E+00 0.  1.
     999901    1    3    3    0    0  0.37595878072E-01  0.80587726027E-01  0.15093340279E+00  0.85317860012E+00  0.83500000000E+00 0. -1.
        -11    1    4    4    0    0 -0.16859444402E-01 -0.26831206257E-01 -0.63045049813E-01  0.70562694971E-01  0.51100000000E-03 0. -1.
         11    1    4    4    0    0 -0.39187337844E-01 -0.47523828540E-01 -0.73923002077E-01  0.96223869614E-01  0.51100000000E-03 0.  1.
</event>
<event>
 8    1  0.5716970E+005  0.1043930E+01  0.7957747E-01            NaN
         13   -1    0    0    0    0  0.00000000000E+00  0.00000000000E+00  0.74505805969E-08  0.10566000000E+00  0.10566000000E+00 0.  1.
     999900   -1    0    0    0    0 -0.00000000000E+00 -0.00000000000E+00 -0.74505805969E-08  0.93827000000E+00  0.93827000000E+00 0.  1.
     999902    2    1    2    0    0 -0.20287595292E-01  0.81508374962E-02  0.92120031881E-02  0.10202048303E+01  0.10199289250E+01 0.  0.
     999903    2    3    3    0    0 -0.57631050231E-01 -0.13663062142E+00  0.78722253587E-01  0.16908035093E+00  0.20042634518E-01 0.  0.
         14    1    1    2    0    0  0.20287595292E-01 -0.81508374962E-02 -0.92120031881E-02  0.23725169701E-01  0.00000000000E+00 0. -1.
     999901    1    3    3    0    0  0.37343454939E-01  0.14478145892E+00 -0.69510250399E-01  0.85112447937E+00  0.83500000000E+00 0.  1.
        -11    1    4    4    0    0 -0.24169072641E-01 -0.51123622133E-01  0.40810321247E-01  0.69738886237E-01  0.51100000000E-03 0. -1.
         11    1    4    4    0    0 -0.33461977589E-01 -0.85506999292E-01  0.37911932340E-01  0.99341464691E-01  0.51100000000E-03 0.  1.
</event>
<event>
 8    1  0.5716970E+005  0.1043930E+01  0.7957747E-01            NaN
         13   -1    0    0    0    0  0.00000000000E+00  0.00000000000E+00  0.74505805969E-08  0.10566000000E+00  0.10566000000E+00 0. -1.
     999900   -1    0    0    0    0 -0.00000000000E+00 -0.00000000000E+00 -0.74505805969E-08  0.93827000000E+00  0.93827000000E+00 0. -1.
     999902    2    1    2    0    0 -0.40501366433E-02 -0.14750571647E-01  0.17081431600E-01  0.10210005806E+01  0.10207430760E+01 0.  0.
     999903    2    3    3    0    0 -0.10701379823E-02  0.16424217541E+00  0.22862606150E-01  0.16700660758E+00  0.19795727737E-01 0.  0.
         14    1    1    2    0    0  0.40501366433E-02  0.14750571647E-01 -0.17081431600E-01  0.22929419448E-01  0.00000000000E+00 0.  1.
     999901    1    3    3    0    0 -0.29799986610E-02 -0.17899274706E+00 -0.57811745502E-02  0.85399397297E+00  0.83500000000E+00 0.  1.
        -11    1    4    4    0    0 -0.56025435112E-02  0.14617781837E+00  0.24420236318E-01  0.14831032378E+00  0.51100000000E-03 0. -1.
         11    1    4    4    0    0  0.45324055289E-02  0.18064357043E-01 -0.15576301679E-02  0.18696283802E-01  0.51100000000E-03 0.  1.
</event>
<event>
 8    1  0.5716970E+005  0.1043930E+01  0.7957747E-01            NaN
         13   -1    0    0    0    0  0.00000000000E+00  0.00000000000E+00  0.74505805969E-08  0.10566000000E+00  0.10566000000E+00 0. -1.
     999900   -1    0    0    0    0 -0.00000000000E+00 -0.00000000000E+00 -0.74505805969E-08  0.93827000000E+00  0.93827000000E+00 0. -1.
     999902    2    1    2    0    0 -0.10595791009E-01  0.10880565871E-01  0.18375243319E-01  0.10200908082E+01  0.10198122130E+01 0.  0.
     999903    2    3    3    0    0 -0.10864363807E+00 -0.10522642039E+00  0.73920721627E-01  0.16955890826E+00  0.20246250130E-01 0.  0.
         14    1    1    2    0    0  0.10595791009E-01 -0.10880565871E-01 -0.18375243319E-01  0.23839191845E-01  0.00000000000E+00 0.  1.
     999901    1    3    3    0    0  0.98047847060E-01  0.11610698626E+00 -0.55545478307E-01  0.85053189989E+00  0.83500000000E+00 0. -1.
        -11    1    4    4    0    0 -0.22610670409E-01 -0.11702008017E-01  0.14057628735E-01  0.29087066794E-01  0.51100000000E-03 0. -1.
         11    1    4    4    0    0 -0.86032967659E-01 -0.93524412376E-01  0.59863092891E-01  0.14047184147E+00  0.51100000000E-03 0.  1.
</event>
<event>
 8    1  0.5716970E+005  0.1043930E+01  0.7957747E-01            NaN
         13   -1    0    0    0    0  0.00000000000E+00  0.00000000000E+00  0.74505805969E-08  0.10566000000E+00  0.10566000000E+00 0. -1.
     999900   -1    0    0    0    0 -0.00000000000E+00 -0.00000000000E+00 -0.74505805969E-08  0.93827000000E+00  0.93827000000E+00 0.  1.
     999902    2    1    2    0    0 -0.56826769564E-02  0.10913727290E-01  0.19945065278E-01  0.10204948151E+01  0.10202256906E+01 0.  0.
     999903    2    3    3    0    0 -0.14745829831E+00 -0.33183739315E-01 -0.69694068400E-01  0.16767297697E+00  0.20294179945E-01 0.  0.
         14    1    1    2    0    0  0.56826769564E-02 -0.10913727290E-01 -0.19945065278E-01  0.23435184866E-01  0.00000000000E+00 0.  1.
     999901    1    3    3    0    0  0.14177562135E+00  0.44097466605E-01  0.89639133679E-01  0.85282183817E+00  0.83500000000E+00 0. -1.
        -11    1    4    4    0    0 -0.90762446017E-01 -0.15332359193E-01 -0.51661077917E-01  0.10555581906E+00  0.51100000000E-03 0.  1.
         11    1    4    4    0    0 -0.56695852290E-01 -0.17851380121E-01 -0.18032990484E-01  0.62117157903E-01  0.51100000000E-03 0. -1.
</event>
<event>
 8    1  0.5716970E+005  0.1043930E+01  0.7957747E-01            NaN
         13   -1    0    0    0    0  0.00000000000E+00  0.00000000000E+00  0.74505805969E-08  0.10566000000E+00  0.10566000000E+00 0.  1.
     999900   -1    0    0    0    0 -0.00000000000E+00 -0.00000000000E+00 -0.74505805969E-08  0.93827000000E+00  0.93827000000E+00 0. -1.
     999902    2    1    2    0    0 -0.90624726353E-02 -0.19385444917E-01  0.11827520366E-01  0.10194797623E+01  0.10191865245E+01 0.  0.
     999903    2    3    3    0    0 -0.15920523155E+00  0.85221912110E-02  0.54239258666E-01  0.16957068497E+00  0.19833973989E-01 0.  0.
         14    1    1    2    0    0  0.90624726353E-02  0.19385444917E-01 -0.11827520366E-01  0.24450237686E-01  0.00000000000E+00 0. -1.
     999901    1    3    3    0    0  0.15014275891E+00 -0.27907636128E-01 -0.42411738300E-01  0.84990907735E+00  0.83500000000E+00 0. -1.
        -11    1    4    4    0    0 -0.26310872233E-01  0.83140600860E-02  0.12297774965E-01  0.30213936898E-01  0.51100000000E-03 0.  1.
         11    1    4    4    0    0 -0.13289435932E+00  0.20813112507E-03  0.41941483701E-01  0.13935674807E+00  0.51100000000E-03 0. -1.
</event>
<event>
 7    1  0.5716970E+005  0.1043930E+01  0.7957747E-01            NaN
         13   -1    0    0    0    0  0.00000000000E+00  0.00000000000E+00  0.74505805969E-08  0.10566000000E+00  0.10566000000E+00 0.  1.
     999900   -1    0    0    0    0 -0.00000000000E+00 -0.00000000000E+00 -0.74505805969E-08  0.93827000000E+00  0.93827000000E+00 0. -1.
     999902    2    1    2    0    0  0.10234609568E-01 -0.16890668865E-01  0.89951280810E-02  0.10222285195E+01  0.10219981369E+01 0.  0.
         14    1    1    2    0    0 -0.10234609568E-01  0.16890668865E-01 -0.89951280810E-02  0.21701480524E-01  0.00000000000E+00 0. -1.
     999901    1    3    3    0    0  0.80472674909E-01 -0.13493340617E+00  0.10281453309E+00  0.85584969692E+00  0.83500000000E+00 0.  1.
        -11    1    3    3    0    0 -0.32928834017E-01  0.52124420225E-01 -0.42465713477E-01  0.74865621186E-01  0.51100000000E-03 0. -1.
         11    1    3    3    0    0 -0.37309231324E-01  0.65918317083E-01 -0.51353691536E-01  0.91513201367E-01  0.51100000000E-03 0.  1.
</event>
<event>
 8    1  0.5716970E+005  0.1043930E+01  0.7957747E-01            NaN
         13   -1    0    0    0    0  0.00000000000E+00  0.00000000000E+00  0.74505805969E-08  0.10566000000E+00  0.10566000000E+00 0. -1.
     999900   -1    0    0    0    0 -0.00000000000E+00 -0.00000000000E+00 -0.74505805969E-08  0.93827000000E+00  0.93827000000E+00 0.  1.
     999902    2    1    2    0    0  0.21669357364E-03 -0.11371150647E-01 -0.20649505943E-01  0.10203556046E+01  0.10200832357E+01 0.  0.
     999903    2    3    3    0    0  0.33474221539E-01  0.14146948060E-01  0.15967874830E+00  0.16507757038E+00  0.20800046598E-01 0.  0.
         14    1    1    2    0    0 -0.21669357364E-03  0.11371150647E-01  0.20649505943E-01  0.23574395408E-01  0.00000000000E+00 0. -1.
     999901    1    3    3    0    0 -0.33257527965E-01 -0.25518098707E-01 -0.18032825424E+00  0.85527803421E+00  0.83500000000E+00 0.  1.
        -11    1    4    4    0    0  0.27087921987E-01  0.11021140822E-01  0.15118756357E+00  0.15399078401E+00  0.51100000000E-03 0. -1.
         11    1    4    4    0    0  0.63862995521E-02  0.31258072384E-02  0.84911847267E-02  0.11086786366E-01  0.51100000000E-03 0.  1.
</event>
<event>
 8    1  0.6327673E+005  0.1043930E+01  0.7957747E-01            NaN
         13   -1    0    0    0    0  0.00000000000E+00  0.00000000000E+00  0.74505805969E-08  0.10566000000E+00  0.10566000000E+00 0. -1.
     999900   -1    0    0    0    0 -0.00000000000E+00 -0.00000000000E+00 -0.74505805969E-08  0.93827000000E+00  0.93827000000E+00 0.  1.
     999902    2    1    2    0    0  0.10788905858E-01  0.22521440085E-01 -0.41593450997E-02  0.10186136830E+01  0.10182990324E+01 0.  0.
     999903    2    3    3    0    0 -0.56154126606E-01 -0.68722364581E-01  0.13675711821E+00  0.16427812184E+00  0.20217383743E-01 0.  0.
         14    1    1    2    0    0 -0.10788905858E-01 -0.22521440085E-01  0.41593450997E-02  0.25316316967E-01  0.00000000000E+00 0. -1.
     999901    1    3    3    0    0  0.66943032463E-01  0.91243804666E-01 -0.14091646331E+00  0.85433556119E+00  0.83500000000E+00 0.  1.
        -11    1    4    4    0    0 -0.50915051759E-01 -0.62821581716E-01  0.11098479493E+00  0.13731998927E+00  0.51100000000E-03 0.  1.
         11    1    4    4    0    0 -0.52390748466E-02 -0.59007828647E-02  0.25772323279E-01  0.26958132574E-01  0.51100000000E-03 0. -1.
</event>
<event>
 8    1  0.5716970E+005  0.1043930E+01  0.7957747E-01            NaN
         13   -1    0    0    0    0  0.00000000000E+00  0.00000000000E+00  0.74505805969E-08  0.10566000000E+00  0.10566000000E+00 0. -1.
     999900   -1    0    0    0    0 -0.00000000000E+00 -0.00000000000E+00 -0.74505805969E-08  0.93827000000E+00  0.93827000000E+00 0. -1.
     999902    2    1    2    0    0 -0.13728099921E-01  0.22282652694E-01 -0.53886433069E-02  0.10172089443E+01  0.10168579162E+01 0.  0.
     999903    2    3    3    0    0  0.11800927016E+00  0.78912919872E-01 -0.84150355744E-01  0.16633284927E+00  0.20782146371E-01 0.  0.
         14    1    1    2    0    0  0.13728099921E-01 -0.22282652694E-01  0.53886433069E-02  0.26721055653E-01  0.00000000000E+00 0. -1.
     999901    1    3    3    0    0 -0.13173737008E+00 -0.56630267178E-01  0.78761712437E-01  0.85087609508E+00  0.83500000000E+00 0.  1.
        -11    1    4    4    0    0  0.89622290639E-01  0.63715584396E-01 -0.74089691623E-01  0.13259477441E+00  0.51100000000E-03 0. -1.
         11    1    4    4    0    0  0.28386979516E-01  0.15197335476E-01 -0.10060664121E-01  0.33738074858E-01  0.51100000000E-03 0.  1.
</event>
<event>
 8    1  0.5716970E+005  0.1043930E+01  0.7957747E-01            NaN
         13   -1    0    0    0    0  0.00000000000E+00  0.00000000000E+00  0.74505805969E-08  0.10566000000E+00  0.10566000000E+00 0. -1.
     999900   -1    0    0    0    0 -0.00000000000E+00 -0.00000000000E+00 -0.74505805969E-08  0.93827000000E+00  0.93827000000E+00 0. -1.
     999902    2    1    2    0    0 -0.10267254094E-01 -0.15640964297E-01  0.10799543687E-01  0.10223270739E+01  0.10220988013E+01 0.  0.
     999903    2    3    3    0    0 -0.13432933493E+00  0.94964982776E-01  0.40158406068E-01  0.17043974674E+00  0.19346615088E-01 0.  0.
         14    1    1    2    0    0  0.10267254094E-01  0.15640964297E-01 -0.10799543687E-01  0.21602926066E-01  0.00000000000E+00 0. -1.
     999901    1    3    3    0    0  0.12406208084E+00 -0.11060594707E+00 -0.29358862381E-01  0.85188732719E+00  0.83500000000E+00 0. -1.
        -11    1    4    4    0    0 -0.88367912851E-01  0.72281724338E-01  0.23643349821E-01  0.11658818468E+00  0.51100000000E-03 0. -1.
         11    1    4    4    0    0 -0.45961422078E-01  0.22683258439E-01  0.16515056248E-01  0.53851562064E-01  0.51100000000E-03 0.  1.
</event>
<event>
 8    1  0.5716970E+005  0.1043930E+01  0.7957747E-01            NaN
         13   -1    0    0    0    0  0.00000000000E+00  0.00000000000E+00  0.74505805969E-08  0.10566000000E+00  0.10566000000E+00 0.  1.
     999900   -1    0    0    0    0 -0.00000000000E+00 -0.00000000000E+00 -0.74505805969E-08  0.93827000000E+00  0.93827000000E+00 0.  1.
     999902    2    1    2    0    0 -0.17700784581E-01 -0.42588031909E-02 -0.15553941929E-01  0.10199846395E+01  0.10197035278E+01 0.  0.
     999903    2    3    3    0    0 -0.14497397925E+00  0.79895673738E-01  0.32334170227E-01  0.16980894393E+00  0.19718152387E-01 0.  0.
         14    1    1    2    0    0  0.17700784581E-01  0.42588031909E-02  0.15553941929E-01  0.23945360488E-01  0.00000000000E+00 0.  1.
     999901    1    3    3    0    0  0.12727319467E+00 -0.84154476929E-01 -0.47888112156E-01  0.85017569558E+00  0.83500000000E+00 0.  1.
        -11    1    4    4    0    0 -0.10327004848E+00  0.52686728392E-01  0.14149750199E-01  0.11679499481E+00  0.51100000000E-03 0.  1.
         11    1    4    4    0    0 -0.41703930774E-01  0.27208945346E-01  0.18184420028E-01  0.53013949123E-01  0.51100000000E-03 0. -1.
</event>
<event>
 8    1  0.5716970E+005  0.1043930E+01  0.7957747E-01            NaN
         13   -1    0    0    0    0  0.00000000000E+00  0.00000000000E+00  0.74505805969E-08  0.10566000000E+00  0.10566000000E+00 0.  1.
     999900   -1    0    0    0    0 -0.00000000000E+00 -0.00000000000E+00 -0.74505805969E-08  0.93827000000E+00  0.93827000000E+00 0. -1.
     999902    2    1    2    0    0  0.91742312199E-02  0.89608461559E-02 -0.20002617332E-01  0.10201693606E+01  0.10198926200E+01 0.  0.
     999903    2    3    3    0    0 -0.10650164331E+00  0.16005903938E-02  0.12435859899E+00  0.16489148645E+00  0.19467389238E-01 0.  0.
         14    1    1    2    0    0 -0.91742312199E-02 -0.89608461559E-02  0.20002617332E-01  0.23760639353E-01  0.00000000000E+00 0.  1.
     999901    1    3    3    0    0  0.11567587453E+00  0.73602557621E-02 -0.14436121632E+00  0.85527787420E+00  0.83500000000E+00 0. -1.
        -11    1    4    4    0    0 -0.12763121702E-01 -0.25478221436E-02  0.25247665195E-01  0.28409406753E-01  0.51100000000E-03 0.  1.
         11    1    4    4    0    0 -0.93738521606E-01  0.41484125374E-02  0.99110933796E-01  0.13648207970E+00  0.51100000000E-03 0. -1.
</event>
<event>
 8    1  0.5716970E+005  0.1043930E+01  0.7957747E-01            NaN
         13   -1    0    0    0    0  0.00000000000E+00  0.00000000000E+00  0.74505805969E-08  0.10566000000E+00  0.10566000000E+00 0. -1.
     999900   -1    0    0    0    0 -0.00000000000E+00 -0.00000000000E+00 -0.74505805969E-08  0.93827000000E+00  0.93827000000E+00 0.  1.
     999902    2    1    2    0    0 -0.96107844202E-02 -0.10775979246E-01  0.17382676722E-01  0.10213325144E+01  0.10210824935E+01 0.  0.
     999903    2    3    3    0    0 -0.16280519044E+00  0.29086929042E-01 -0.33655141940E-01  0.16992929827E+00  0.19791875985E-01 0.  0.
         14    1    1    2    0    0  0.96107844202E-02  0.10775979246E-01 -0.17382676722E-01  0.22597485610E-01  0.00000000000E+00 0.  1.
     999901    1    3    3    0    0  0.15319440602E+00 -0.39862908288E-01  0.51037818662E-01  0.85140321612E+00  0.83500000000E+00 0. -1.
        -11    1    4    4    0    0 -0.10769653092E+00  0.24844382550E-01 -0.30046687873E-01  0.11453755144E+00  0.51100000000E-03 0.  1.
         11    1    4    4    0    0 -0.55108659522E-01  0.42425464921E-02 -0.36084540672E-02  0.55391746830E-01  0.51100000000E-03 0. -1.
</event>
<event>
 8    1  0.5716970E+005  0.1043930E+01  0.7957747E-01            NaN
         13   -1    0    0    0    0  0.00000000000E+00  0.00000000000E+00  0.74505805969E-08  0.10566000000E+00  0.10566000000E+00 0.  1.
     999900   -1    0    0    0    0 -0.00000000000E+00 -0.00000000000E+00 -0.74505805969E-08  0.93827000000E+00  0.93827000000E+00 0. -1.
     999902    2    1    2    0    0 -0.57552805510E-03  0.13955192540E-01  0.19672363921E-01  0.10198036548E+01  0.10195182263E+01 0.  0.
     999903    2    3    3    0    0 -0.11107477520E+00  0.11572893044E+00 -0.48941335613E-01  0.16862751725E+00  0.17583919241E-01 0.  0.
         14    1    1    2    0    0  0.57552805510E-03 -0.13955192540E-01 -0.19672363921E-01  0.24126345218E-01  0.00000000000E+00 0. -1.
     999901    1    3    3    0    0  0.11049924714E+00 -0.10177373790E+00  0.68613699534E-01  0.85117613753E+00  0.83500000000E+00 0. -1.
        -11    1    4    4    0    0 -0.36791926214E-01  0.50293664127E-01 -0.16715953689E-01  0.64519630460E-01  0.51100000000E-03 0. -1.
         11    1    4    4    0    0 -0.74282848984E-01  0.65435266309E-01 -0.32225381924E-01  0.10410788679E+00  0.51100000000E-03 0.  1.
</event>
<event>
 8    1  0.5716970E+005  0.1043930E+01  0.7957747E-01            NaN
         13   -1    0    0    0    0  0.00000000000E+00  0.00000000000E+00  0.74505805969E-08  0.10566000000E+00  0.10566000000E+00 0. -1.
     999900   -1    0    0    0    0 -0.00000000000E+00 -0.00000000000E+00 -0.74505805969E-08  0.93827000000E+00  0.93827000000E+00 0. -1.
     999902    2    1    2    0    0  0.23998319759E-01 -0.48779594578E-02 -0.40314870411E-02  0.10191113230E+01  0.10188090704E+01 0.  0.
     999903    2    3    3    0    0  0.11681957948E+00  0.46317281410E-02 -0.12257755635E+00  0.17059238335E+00  0.20204872694E-01 0.  0.
         14    1    1    2    0    0 -0.23998319759E-01  0.48779594578E-02  0.40314870411E-02  0.24818676989E-01  0.00000000000E+00 0. -1.
     999901    1    3    3    0    0 -0.92821259720E-01 -0.95096875987E-02  0.11854606931E+00  0.84851893966E+00  0.83500000000E+00 0.  1.
        -11    1    4    4    0    0  0.86735100137E-01 -0.52645405121E-02 -0.92458311290E-01  0.12688377922E+00  0.51100000000E-03 0.  1.
         11    1    4    4    0    0  0.30084479342E-01  0.98962686531E-02 -0.30119245062E-01  0.43708604126E-01  0.51100000000E-03 0. -1.
</event>
<event>
 8    1  0.5716970E+005  0.1043930E+01  0.7957747E-01            NaN
         13   -1    0    0    0    0  0.00000000000E+00  0.00000000000E+00  0.74505805969E-08  0.10566000000E+00  0.10566000000E+00 0. -1.
     999900   -1    0    0    0    0 -0.00000000000E+00 -0.00000000000E+00 -0.74505805969E-08  0.93827000000E+00  0.93827000000E+00 0. -1.
     999902    2    1    2    0    0  0.11459675225E-01 -0.19141812830E-01 -0.77028045160E-03  0.10216067725E+01  0.10213628499E+01 0.  0.
     999903    2    3    3    0    0 -0.14489868310E+00 -0.69582415225E-01  0.48917024714E-01  0.16914796475E+00  0.19514553509E-01 0.  0.
         14    1    1    2    0    0 -0.11459675225E-01  0.19141812830E-01  0.77028045160E-03  0.22323227514E-01  0.00000000000E+00 0. -1.
     999901    1    3    3    0    0  0.15635835833E+00  0.50440602395E-01 -0.49687305166E-01  0.85245880773E+00  0.83500000000E+00 0. -1.
        -11    1    4    4    0    0 -0.41330987776E-01 -0.29667883600E-01  0.17269888356E-01  0.53730289713E-01  0.51100000000E-03 0.  1.
         11    1    4    4    0    0 -0.10356769533E+00 -0.39914531625E-01  0.31647136358E-01  0.11541767504E+00  0.51100000000E-03 0. -1.
</event>
<event>
 8    1  0.5716970E+005  0.1043930E+01  0.7957747E-01            NaN
         13   -1    0    0    0    0  0.00000000000E+00  0.00000000000E+00  0.74505805969E-08  0.10566000000E+00  0.10566000000E+00 0.  1.
     999900   -1    0    0    0    0 -0.00000000000E+00 -0.00000000000E+00 -0.74505805969E-08  0.93827000000E+00  0.93827000000E+00 0. -1.
     999902    2    1    2    0    0 -0.20219780526E-01 -0.82773553846E-02  0.23523247030E-02  0.10219552971E+01  0.10217190131E+01 0.  0.
     999903    2    3    3    0    0 -0.83906103794E-01 -0.82488400018E-01  0.12442761070E+00  0.17243154676E+00  0.20145411911E-01 0.  0.
         14    1    1    2    0    0  0.20219780526E-01  0.82773553846E-02 -0.23523247030E-02  0.21974702915E-01  0.00000000000E+00 0. -1.
     999901    1    3    3    0    0  0.63686323268E-01  0.74211044633E-01 -0.12207528600E+00  0.84952375033E+00  0.83500000000E+00 0. -1.
        -11    1    4    4    0    0 -0.38609389130E-01 -0.50489875664E-01  0.59828349815E-01  0.87290349043E-01  0.51100000000E-03 0. -1.
         11    1    4    4    0    0 -0.45296714664E-01 -0.31998524354E-01  0.64599260888E-01  0.85141197715E-01  0.51100000000E-03 0.  1.
</event>
<event>
 8    1  0.5716970E+005  0.1043930E+01  0.7957747E-01            NaN
         13   -1    0    0    0    0  0.00000000000E+00  0.00000000000E+00  0.74505805969E-08  0.10566000000E+00  0.10566000000E+00 0. -1.
     999900   -1    0    0    0    0 -0.00000000000E+00 -0.00000000000E+00 -0.74505805969E-08  0.93827000000E+00  0.93827000000E+00 0. -1.
     999902    2    1    2    0    0 -0.14831844060E-01  0.18789383929E-01  0.34120877259E-02  0.10197501140E+01  0.10194634020E+01 0.  0.
     999903    2    3    3    0    0 -0.11980964646E+00 -0.16493038479E-02 -0.11763028557E+00  0.16927122821E+00  0.21419454451E-01 0.  0.
         14    1    1    2    0    0  0.14831844060E-01 -0.18789383929E-01 -0.34120877259E-02  0.24179886048E-01  0.00000000000E+00 0.  1.
     999901    1    3    3    0    0  0.10497780240E+00  0.20438687776E-01  0.12104237330E+00  0.85047888574E+00  0.83500000000E+00 0. -1.
        -11    1    4    4    0    0 -0.83156617200E-02 -0.33727972096E-02 -0.33220784212E-02  0.95824483769E-02  0.51100000000E-03 0. -1.
         11    1    4    4    0    0 -0.11149398474E+00  0.17234933617E-02 -0.11430820715E+00  0.15968877984E+00  0.51100000000E-03 0.  1.
</event>
<event>
 8    1  0.5716970E+005  0.1043930E+01  0.7957747E-01            NaN
         13   -1    0    0    0    0  0.00000000000E+00  0.00000000000E+00  0.74505805969E-08  0.10566000000E+00  0.10566000000E+00 0. -1.
     999900   -1    0    0    0    0 -0.00000000000E+00 -0.00000000000E+00 -0.74505805969E-08  0.93827000000E+00  0.93827000000E+00 0. -1.
     999902    2    1    2    0    0 -0.17041253839E-01 -0.15846396174E-01  0.49186128033E-02  0.10201454387E+01  0.10198681340E+01 0.  0.
     999903    2    3    3    0    0  0.13010071455E+00 -0.62751479908E-02  0.10203616373E+00  0.16668238365E+00  0.20151052072E-01 0.  0.
         14    1    1    2    0    0  0.17041253839E-01  0.15846396174E-01 -0.49186128033E-02  0.23784561295E-01  0.00000000000E+00 0. -1.
     999901    1    3    3    0    0 -0.14714196839E+00 -0.95712481832E-02 -0.97117550930E-01  0.85346305506E+00  0.83500000000E+00 0. -1.
        -11    1    4    4    0    0  0.96536825307E-01 -0.12722362672E-01  0.79910878635E-01  0.12596518089E+00  0.51100000000E-03 0.  1.
         11    1    4    4    0    0  0.33563889242E-01  0.64472146813E-02  0.22125285098E-01  0.40717202751E-01  0.51100000000E-03 0. -1.
</event>
<event>
 8    1  0.5716970E+005  0.1043930E+01  0.7957747E-01            NaN
         13   -1    0    0    0    0  0.00000000000E+00  0.00000000000E+00  0.74505805969E-08  0.10566000000E+00  0.10566000000E+00 0.  1.
     999900   -1    0    0    0    0 -0.00000000000E+00 -0.00000000000E+00 -0.74505805969E-08  0.93827000000E+00  0.93827000000E+00 0.  1.
     999902    2    1    2    0    0  0.17668637818E-01  0.15358451683E-01  0.29226886407E-02  0.10203375243E+01  0.10200647326E+01 0.  0.
     999903    2    3    3    0    0  0.58082283066E-01  0.15621635570E+00 -0.35887865005E-01  0.17168832062E+00  0.20293821384E-01 0.  0.
         14    1    1    2    0    0 -0.17668637818E-01 -0.15358451683E-01 -0.29226886407E-02  0.23592475693E-01  0.00000000000E+00 0. -1.
     999901    1    3    3    0    0 -0.40413645248E-01 -0.14085790402E+00  0.38810553646E-01  0.84864920369E+00  0.83500000000E+00 0. -1.
        -11    1    4    4    0    0  0.23687657463E-01  0.76323678190E-01 -0.26520117105E-01  0.84202058768E-01  0.51100000000E-03 0.  1.
         11    1    4    4    0    0  0.34394625603E-01  0.79892677514E-01 -0.93677479002E-02  0.87486261850E-01  0.51100000000E-03 0. -1.
</event>
<event>
 8    1  0.5716970E+005  0.1043930E+01  0.7957747E-01            NaN
         13   -1    0    0    0    0  0.00000000000E+00  0.00000000000E+00  0.74505805969E-08  0.10566000000E+00  0.10566000000E+00 0.  1.
     999900   -1    0    0    0    0 -0.00000000000E+00 -0.00000000000E+00 -0.74505805969E-08  0.93827000000E+00  0.93827000000E+00 0.  1.
     999902    2    1    2    0    0 -0.35772362503E-02 -0.23038850202E-01 -0.68587689098E-02  0.10196271617E+01  0.10193374912E+01 0.  0.
     999903    2    3    3    0    0  0.12377034847E+00 -0.11386928864E+00 -0.84215696672E-02  0.17010081237E+00  0.24042659560E-01 0.  0.
         14    1    1    2    0    0  0.35772362503E-02  0.23038850202E-01  0.68587689098E-02  0.24302838286E-01  0.00000000000E+00 0.  1.
     999901    1    3    3    0    0 -0.12734758472E+00  0.90830438441E-01  0.15628007574E-02  0.84952634934E+00  0.83500000000E+00 0. -1.
        -11    1    4    4    0    0  0.10722251585E+00 -0.86951840741E-01 -0.33097721334E-02  0.13808876213E+00  0.51100000000E-03 0.  1.
         11    1    4    4    0    0  0.16547832616E-01 -0.26917447902E-01 -0.51117975338E-02  0.32012050245E-01  0.51100000000E-03 0. -1.
</event>
<event>
 8    1  0.5716970E+005  0.1043930E+01  0.7957747E-01            NaN
         13   -1    0    0    0    0  0.00000000000E+00  0.00000000000E+00  0.74505805969E-08  0.10566000000E+00  0.10566000000E+00 0.  1.
     999900   -1    0    0    0    0 -0.00000000000E+00 -0.00000000000E+00 -0.74505805969E-08  0.93827000000E+00  0.93827000000E+00 0.  1.
     999902    2    1    2    0    0 -0.12328120304E-01  0.12889799122E-01 -0.11204604908E-01  0.10228664618E+01  0.10226495617E+01 0.  0.
     999903    2    3    3    0    0  0.10240746200E+00  0.13483745081E+00 -0.13256693090E-01  0.17124172360E+00  0.21898894399E-01 0.  0.
         14    1    1    2    0    0  0.12328120304E-01 -0.12889799122E-01  0.11204604908E-01  0.21063538230E-01  0.00000000000E+00 0.  1.
     999901    1    3    3    0    0 -0.11473558231E+00 -0.12194765168E+00  0.20520881825E-02  0.85162473817E+00  0.83500000000E+00 0. -1.
        -11    1    4    4    0    0  0.59656046515E-01  0.78519296980E-01 -0.18525338166E-01  0.10033729695E+00  0.51100000000E-03 0.  1.
         11    1    4    4    0    0  0.42751415487E-01  0.56318153826E-01  0.52686450758E-02  0.70904426649E-01  0.51100000000E-03 0. -1.
</event>
<event>
 8    1  0.5716970E+005  0.1043930E+01  0.7957747E-01            NaN
         13   -1    0    0    0    0  0.00000000000E+00  0.00000000000E+00  0.74505805969E-08  0.10566000000E+00  0.10566000000E+00 0.  1.
     999900   -1    0    0    0    0 -0.00000000000E+00 -0.00000000000E+00 -0.74505805969E-08  0.93827000000E+00  0.93827000000E+00 0. -1.
     999902    2    1    2    0    0  0.95546233541E-02 -0.18626743074E-01 -0.11058985390E-01  0.10202541147E+01  0.10199793680E+01 0.  0.
     999903    2    3    3    0    0 -0.12655205298E+00 -0.58844381813E-01  0.89434932943E-01  0.16733763968E+00  0.22917134194E-01 0.  0.
         14    1    1    2    0    0 -0.95546233541E-02  0.18626743074E-01  0.11058985390E-01  0.23675885260E-01  0.00000000000E+00 0. -1.
     999901    1    3    3    0    0  0.13610667633E+00  0.40217638739E-01 -0.10049391833E+00  0.85291647506E+00  0.83500000000E+00 0. -1.
        -11    1    4    4    0    0 -0.79915073041E-01 -0.31025468066E-01  0.43108394240E-01  0.95956205338E-01  0.51100000000E-03 0. -1.
         11    1    4    4    0    0 -0.46636979935E-01 -0.27818913747E-01  0.46326538703E-01  0.71381434342E-01  0.51100000000E-03 0.  1.
</event>
<event>
 8    1  0.5716970E+005  0.1043930E+01  0.7957747E-01            NaN
         13   -1    0    0    0    0  0.00000000000E+00  0.00000000000E+00  0.74505805969E-08  0.10566000000E+00  0.10566000000E+00 0. -1.
     999900   -1    0    0    0    0 -0.00000000000E+00 -0.00000000000E+00 -0.74505805969E-08  0.93827000000E+00  0.93827000000E+00 0. -1.
     999902    2    1    2    0    0 -0.13568925605E-01  0.20247061828E-01  0.50272714759E-02  0.10190436039E+01  0.10187396791E+01 0.  0.
     999903    2    3    3    0    0 -0.16416049542E+00 -0.29445930982E-01 -0.16824643092E-01  0.16883791074E+00  0.20185152472E-01 0.  0.
         14    1    1    2    0    0  0.13568925605E-01 -0.20247061828E-01 -0.50272714759E-02  0.24886396148E-01  0.00000000000E+00 0.  1.
     999901    1    3    3    0    0  0.15059156981E+00  0.49692992810E-01  0.21851914568E-01  0.85020569311E+00  0.83500000000E+00 0.  1.
        -11    1    4    4    0    0 -0.58832401868E-01 -0.14896739125E-01 -0.14889015875E-01  0.62490865419E-01  0.51100000000E-03 0. -1.
         11    1    4    4    0    0 -0.10532809355E+00 -0.14549191857E-01 -0.19356272171E-02  0.10634704532E+00  0.51100000000E-03 0.  1.
</event>
<event>
 8    1  0.5716970E+005  0.1043930E+01  0.7957747E-01            NaN
         13   -1    0    0    0    0  0.00000000000E+00  0.00000000000E+00  0.74505805969E-08  0.10566000000E+00  0.10566000000E+00 0.  1.
     999900   -1    0    0    0    0 -0.00000000000E+00 -0.00000000000E+00 -0.74505805969E-08  0.93827000000E+00  0.93827000000E+00 0. -1.
     999902    2    1    2    0    0 -0.18003595424E-01 -0.60990399053E-02 -0.14482729185E-01  0.10200327788E+01  0.10197528096E+01 0.  0.
     999903    2    3    3    0    0  0.11126804608E-01 -0.16384143279E-01  0.16328522033E+00  0.16576068666E+00  0.20549845054E-01 0.  0.
         14    1    1    2    0    0  0.18003595424E-01  0.60990399053E-02  0.14482729185E-01  0.23897221190E-01  0.00000000000E+00 0. -1.
     999901    1    3    3    0    0 -0.29130400033E-01  0.10285103374E-01 -0.17776794951E+00  0.85427209215E+00  0.83500000000E+00 0. -1.
        -11    1    4    4    0    0 -0.50724311872E-02 -0.52433290788E-02  0.72596519264E-01  0.72963948551E-01  0.51100000000E-03 0.  1.
         11    1    4    4    0    0  0.16199235795E-01 -0.11140814201E-01  0.90688701064E-01  0.92796738105E-01  0.51100000000E-03 0. -1.
</event>
<event>
 8    1  0.5716970E+005  0.1043930E+01  0.7957747E-01            NaN
         13   -1    0    0    0    0  0.00000000000E+00  0.00000000000E+00  0.74505805969E-08  0.10566000000E+00  0.10566000000E+00 0.  1.
     999900   -1    0    0    0    0 -0.00000000000E+00 -0.00000000000E+00 -0.74505805969E-08  0.93827000000E+00  0.93827000000E+00 0.  1.
     999902    2    1    2    0    0 -0.16911414805E-01  0.15816719701E-01  0.53150170802E-02  0.10201726016E+01  0.10198959374E+01 0.  0.
     999903    2    3    3    0    0  0.79514735171E-01  0.68799562796E-01  0.13045062912E+00  0.16870968081E+00  0.19738713473E-01 0.  0.
         14    1    1    2    0    0  0.16911414805E-01 -0.15816719701E-01 -0.53150170802E-02  0.23757398414E-01  0.00000000000E+00 0.  1.
     999901    1    3    3    0    0 -0.96426149976E-01 -0.52982843095E-01 -0.12513561204E+00  0.85146292078E+00  0.83500000000E+00 0.  1.
        -11    1    4    4    0    0  0.40419058235E-01  0.38390708053E-01  0.53983189547E-01  0.77601498749E-01  0.51100000000E-03 0. -1.
         11    1    4    4    0    0  0.39095676936E-01  0.30408854743E-01  0.76467439574E-01  0.91108182058E-01  0.51100000000E-03 0.  1.
</event>
<event>
 8    1  0.5716970E+005  0.1043930E+01  0.7957747E-01            NaN
         13   -1    0    0    0    0  0.00000000000E+00  0.00000000000E+00  0.74505805969E-08  0.10566000000E+00  0.10566000000E+00 0. -1.
     999900   -1    0    0    0    0 -0.00000000000E+00 -0.00000000000E+00 -0.74505805969E-08  0.93827000000E+00  0.93827000000E+00 0. -1.
     999902    2    1    2    0    0 -0.15965187806E-01  0.11579914308E-01  0.11583105913E-01  0.10210575279E+01  0.10208013153E+01 0.  0.
     999903    2    3    3    0    0 -0.16010777377E+00 -0.45502199994E-01 -0.31750693202E-01  0.17068215726E+00  0.20477862714E-01 0.  0.
         14    1    1    2    0    0  0.15965187806E-01 -0.11579914308E-01 -0.11583105913E-01  0.22872472093E-01  0.00000000000E+00 0.  1.
     999901    1    3    3    0    0  0.14414258596E+00  0.57082114303E-01  0.43333799115E-01  0.85037537065E+00  0.83500000000E+00 0.  1.
        -11    1    4    4    0    0 -0.13712955697E+00 -0.45885443656E-01 -0.25231906289E-01  0.14678862200E+00  0.51100000000E-03 0. -1.
         11    1    4    4    0    0 -0.22978216803E-01  0.38324366177E-03 -0.65187869131E-02  0.23893535254E-01  0.51100000000E-03 0.  1.
</event>
<event>
 8    1  0.5716970E+005  0.1043930E+01  0.7957747E-01            NaN
         13   -1    0    0    0    0  0.00000000000E+00  0.00000000000E+00  0.74505805969E-08  0.10566000000E+00  0.10566000000E+00 0. -1.
     999900   -1    0    0    0    0 -0.00000000000E+00 -0.00000000000E+00 -0.74505805969E-08  0.93827000000E+00  0.93827000000E+00 0. -1.
     999902    2    1    2    0    0 -0.14603503125E-01 -0.17262196567E-01 -0.73317056799E-02  0.10201602789E+01  0.10198833242E+01 0.  0.
     999903    2    3    3    0    0  0.12080486966E+00 -0.29852653577E-01  0.10829769996E+00  0.16629313086E+00  0.20976560652E-01 0.  0.
         14    1    1    2    0    0  0.14603503125E-01  0.17262196567E-01  0.73317056799E-02  0.23769721118E-01  0.00000000000E+00 0. -1.
     999901    1    3    3    0    0 -0.13540837278E+00  0.12590457010E-01 -0.11562940564E+00  0.85386714802E+00  0.83500000000E+00 0. -1.
        -11    1    4    4    0    0  0.82546660842E-01 -0.16115632366E-01  0.84320473894E-01  0.11909604637E+00  0.51100000000E-03 0. -1.
         11    1    4    4    0    0  0.38258208814E-01 -0.13737021211E-01  0.23977226062E-01  0.47197084486E-01  0.51100000000E-03 0.  1.
</event>
