<event>
 8    1  0.1106168E+005  0.1043930E+01  0.7957747E-01            NaN
         13   -1    0    0    0    0  0.00000000000E+00  0.00000000000E+00  0.74505805969E-08  0.10566000000E+00  0.10566000000E+00 0. -1.
     999900   -1    0    0    0    0 -0.00000000000E+00 -0.00000000000E+00 -0.74505805969E-08  0.93827000000E+00  0.93827000000E+00 0.  1.
     999902    2    1    2    0    0  0.17300178471E-01  0.12806911134E-01 -0.61698884368E-02  0.10215384688E+01  0.10212930346E+01 0.  0.
     999903    2    3    3    0    0 -0.69702183386E-01  0.10556623415E+00 -0.33121489866E-01  0.13198796890E+00  0.17921123968E-01 0.  0.
         14    1    1    2    0    0 -0.17300178471E-01 -0.12806911134E-01  0.61698884368E-02  0.22391531239E-01  0.00000000000E+00 0.  1.
     999901    1    3    3    0    0  0.87002361857E-01 -0.92759323011E-01  0.26951601429E-01  0.88955049986E+00  0.88000000000E+00 0. -1.
        -11    1    4    4    0    0 -0.55430585351E-01  0.71423001571E-01 -0.27864513050E-01  0.94607014297E-01  0.51100000000E-03 0. -1.
         11    1    4    4    0    0 -0.14271598035E-01  0.34143232575E-01 -0.52569768153E-02  0.37380954607E-01  0.51100000000E-03 0.  1.
</event>
<event>
 8    1  0.1106168E+005  0.1043930E+01  0.7957747E-01            NaN
         13   -1    0    0    0    0  0.00000000000E+00  0.00000000000E+00  0.74505805969E-08  0.10566000000E+00  0.10566000000E+00 0. -1.
     999900   -1    0    0    0    0 -0.00000000000E+00 -0.00000000000E+00 -0.74505805969E-08  0.93827000000E+00  0.93827000000E+00 0. -1.
     999902    2    1    2    0    0 -0.15181674865E-01  0.52876301906E-02  0.18004983223E-01  0.10197924420E+01  0.10195067450E+01 0.  0.
     999903    2    3    3    0    0 -0.12459304730E+00  0.74840423225E-02  0.40093954465E-01  0.13273912045E+00  0.20801696781E-01 0.  0.
         14    1    1    2    0    0  0.15181674865E-01 -0.52876301906E-02 -0.18004983223E-01  0.24137557988E-01  0.00000000000E+00 0.  1.
     999901    1    3    3    0    0  0.10941137243E+00 -0.21964121319E-02 -0.22088971242E-01  0.88705332156E+00  0.88000000000E+00 0.  1.
        -11    1    4    4    0    0 -0.54740908222E-01 -0.11990606788E-02  0.78582765277E-02  0.55317433151E-01  0.51100000000E-03 0.  1.
         11    1    4    4    0    0 -0.69852139075E-01  0.86831030013E-02  0.32235677937E-01  0.77421687299E-01  0.51100000000E-03 0. -1.
</event>
<event>
 8    1  0.1106168E+005  0.1043930E+01  0.7957747E-01            NaN
         13   -1    0    0    0    0  0.00000000000E+00  0.00000000000E+00  0.74505805969E-08  0.10566000000E+00  0.10566000000E+00 0. -1.
     999900   -1    0    0    0    0 -0.00000000000E+00 -0.00000000000E+00 -0.74505805969E-08  0.93827000000E+00  0.93827000000E+00 0. -1.
     999902    2    1    2    0    0 -0.16535288576E-01  0.16288948090E-01 -0.23568828401E-02  0.10205997515E+01  0.10203330595E+01 0.  0.
     999903    2    3    3    0    0 -0.62955274955E-01 -0.99943263610E-01  0.51138399272E-01  0.13013555381E+00  0.19186033954E-01 0.  0.
         14    1    1    2    0    0  0.16535288576E-01 -0.16288948090E-01  0.23568828401E-02  0.23330248496E-01  0.00000000000E+00 0.  1.
     999901    1    3    3    0    0  0.46419986379E-01  0.11623221170E+00 -0.53495282112E-01  0.89046419770E+00  0.88000000000E+00 0. -1.
        -11    1    4    4    0    0 -0.56207692854E-01 -0.90714137884E-01  0.39445307132E-01  0.11377413117E+00  0.51100000000E-03 0.  1.
         11    1    4    4    0    0 -0.67475821009E-02 -0.92291257256E-02  0.11693092140E-01  0.16361422635E-01  0.51100000000E-03 0. -1.
</event>
<event>
 8    1  0.1106168E+005  0.1043930E+01  0.7957747E-01            NaN
         13   -1    0    0    0    0  0.00000000000E+00  0.00000000000E+00  0.74505805969E-08  0.10566000000E+00  0.10566000000E+00 0. -1.
     999900   -1    0    0    0    0 -0.00000000000E+00 -0.00000000000E+00 -0.74505805969E-08  0.93827000000E+00  0.93827000000E+00 0. -1.
     999902    2    1    2    0    0  0.76995261986E-02 -0.10134104460E-01 -0.19210924009E-01  0.10208856432E+01  0.10206255210E+01 0.  0.
     999903    2    3    3    0    0 -0.13347102724E-01  0.65702295584E-01  0.10740063918E+00  0.12834734822E+00  0.21052498695E-01 0.  0.
         14    1    1    2    0    0 -0.76995261986E-02  0.10134104460E-01  0.19210924009E-01  0.23044356753E-01  0.00000000000E+00 0.  1.
     999901    1    3    3    0    0  0.21046628922E-01 -0.75836400044E-01 -0.12661156319E+00  0.89253829503E+00  0.88000000000E+00 0. -1.
        -11    1    4    4    0    0  0.45958858990E-02  0.28814251185E-01  0.41933191514E-01  0.51088520336E-01  0.51100000000E-03 0. -1.
         11    1    4    4    0    0 -0.17942988623E-01  0.36888044400E-01  0.65467447668E-01  0.77258827881E-01  0.51100000000E-03 0.  1.
</event>
<event>
 8    1  0.1106168E+005  0.1043930E+01  0.7957747E-01            NaN
         13   -1    0    0    0    0  0.00000000000E+00  0.00000000000E+00  0.74505805969E-08  0.10566000000E+00  0.10566000000E+00 0.  1.
     999900   -1    0    0    0    0 -0.00000000000E+00 -0.00000000000E+00 -0.74505805969E-08  0.93827000000E+00  0.93827000000E+00 0. -1.
     999902    2    1    2    0    0  0.11089926682E-01  0.19269864059E-01  0.86023075255E-02  0.10200906663E+01  0.10198120678E+01 0.  0.
     999903    2    3    3    0    0 -0.87862733429E-01 -0.85810853569E-01 -0.28236583792E-01  0.12757137239E+00  0.19844089117E-01 0.  0.
         14    1    1    2    0    0 -0.11089926682E-01 -0.19269864059E-01 -0.86023075255E-02  0.23839333662E-01  0.00000000000E+00 0.  1.
     999901    1    3    3    0    0  0.98952660110E-01  0.10508071763E+00  0.36838891317E-01  0.89251929395E+00  0.88000000000E+00 0.  1.
        -11    1    4    4    0    0 -0.49096903510E-01 -0.36701313977E-01 -0.19902225251E-01  0.64450384583E-01  0.51100000000E-03 0.  1.
         11    1    4    4    0    0 -0.38765829918E-01 -0.49109539592E-01 -0.83343585409E-02  0.63120987805E-01  0.51100000000E-03 0. -1.
</event>
<event>
 8    1  0.1106168E+005  0.1043930E+01  0.7957747E-01            NaN
         13   -1    0    0    0    0  0.00000000000E+00  0.00000000000E+00  0.74505805969E-08  0.10566000000E+00  0.10566000000E+00 0. -1.
     999900   -1    0    0    0    0 -0.00000000000E+00 -0.00000000000E+00 -0.74505805969E-08  0.93827000000E+00  0.93827000000E+00 0.  1.
     999902    2    1    2    0    0 -0.20573745873E-03  0.23896478982E-01  0.37210139003E-02  0.10197446743E+01  0.10194578318E+01 0.  0.
     999903    2    3    3    0    0  0.60665256077E-01 -0.10184975739E+00 -0.42470993263E-01  0.12752771897E+00  0.20146648926E-01 0.  0.
         14    1    1    2    0    0  0.20573745873E-03 -0.23896478982E-01 -0.37210139003E-02  0.24185325718E-01  0.00000000000E+00 0. -1.
     999901    1    3    3    0    0 -0.60870993536E-01  0.12574623637E+00  0.46192007163E-01  0.89221695531E+00  0.88000000000E+00 0. -1.
        -11    1    4    4    0    0  0.34060430039E-01 -0.72556781373E-01 -0.22806362488E-01  0.83336610854E-01  0.51100000000E-03 0. -1.
         11    1    4    4    0    0  0.26604826038E-01 -0.29292976015E-01 -0.19664630775E-01  0.44191108120E-01  0.51100000000E-03 0.  1.
</event>
<event>
 8    1  0.1352415E+005  0.1043930E+01  0.7957747E-01            NaN
         13   -1    0    0    0    0  0.00000000000E+00  0.00000000000E+00  0.74505805969E-08  0.10566000000E+00  0.10566000000E+00 0.  1.
     999900   -1    0    0    0    0 -0.00000000000E+00 -0.00000000000E+00 -0.74505805969E-08  0.93827000000E+00  0.93827000000E+00 0. -1.
     999902    2    1    2    0    0  0.11356382304E-03 -0.64445047676E-02  0.26060485458E-01  0.10170842659E+01  0.10167299103E+01 0.  0.
     999903    2    3    3    0    0  0.84119063137E-01 -0.91415945267E-01  0.28104474177E-01  0.12900699024E+00  0.20495126955E-01 0.  0.
         14    1    1    2    0    0 -0.11356382304E-03  0.64445047676E-02 -0.26060485458E-01  0.26845734126E-01  0.00000000000E+00 0. -1.
     999901    1    3    3    0    0 -0.84005499314E-01  0.84971440499E-01 -0.20439887192E-02  0.88807727564E+00  0.88000000000E+00 0. -1.
        -11    1    4    4    0    0  0.66772617744E-01 -0.59195040418E-01  0.17883604347E-01  0.91009448497E-01  0.51100000000E-03 0. -1.
         11    1    4    4    0    0  0.17346445394E-01 -0.32220904849E-01  0.10220869830E-01  0.37997541739E-01  0.51100000000E-03 0.  1.
</event>
<event>
 8    1  0.1106168E+005  0.1043930E+01  0.7957747E-01            NaN
         13   -1    0    0    0    0  0.00000000000E+00  0.00000000000E+00  0.74505805969E-08  0.10566000000E+00  0.10566000000E+00 0. -1.
     999900   -1    0    0    0    0 -0.00000000000E+00 -0.00000000000E+00 -0.74505805969E-08  0.93827000000E+00  0.93827000000E+00 0. -1.
     999902    2    1    2    0    0  0.14189773371E-01 -0.14949418092E-01  0.11858666263E-01  0.10201505396E+01  0.10198733553E+01 0.  0.
     999903    2    3    3    0    0  0.85239939014E-01 -0.74954968535E-01  0.66958829164E-01  0.13353629428E+00  0.21549073650E-01 0.  0.
         14    1    1    2    0    0 -0.14189773371E-01  0.14949418092E-01 -0.11858666263E-01  0.23779460363E-01  0.00000000000E+00 0.  1.
     999901    1    3    3    0    0 -0.71050165643E-01  0.60005550443E-01 -0.55100162901E-01  0.88661424536E+00  0.88000000000E+00 0.  1.
        -11    1    4    4    0    0  0.34523131814E-01 -0.44657604382E-01  0.33489916613E-01  0.65635233642E-01  0.51100000000E-03 0.  1.
         11    1    4    4    0    0  0.50716807200E-01 -0.30297364153E-01  0.33468912551E-01  0.67901060636E-01  0.51100000000E-03 0. -1.
</event>
<event>
 8    1  0.1106168E+005  0.1043930E+01  0.7957747E-01            NaN
         13   -1    0    0    0    0  0.00000000000E+00  0.00000000000E+00  0.74505805969E-08  0.10566000000E+00  0.10566000000E+00 0. -1.
     999900   -1    0    0    0    0 -0.00000000000E+00 -0.00000000000E+00 -0.74505805969E-08  0.93827000000E+00  0.93827000000E+00 0.  1.
     999902    2    1    2    0    0  0.15262953747E-01 -0.67825944194E-02  0.17303989139E-01  0.10198802727E+01  0.10195966758E+01 0.  0.
     999903    2    3    3    0    0  0.20215812189E-01 -0.66815868755E-01 -0.10725731450E+00  0.12906938186E+00  0.16784946806E-01 0.  0.
         14    1    1    2    0    0 -0.15262953747E-01  0.67825944194E-02 -0.17303989139E-01  0.24049727322E-01  0.00000000000E+00 0.  1.
     999901    1    3    3    0    0 -0.49528584419E-02  0.60033274335E-01  0.12456130364E+00  0.89081089082E+00  0.88000000000E+00 0. -1.
        -11    1    4    4    0    0  0.18267156238E-01 -0.40051741917E-01 -0.76366837544E-01  0.88147524214E-01  0.51100000000E-03 0. -1.
         11    1    4    4    0    0  0.19486559508E-02 -0.26764126837E-01 -0.30890476960E-01  0.40921857646E-01  0.51100000000E-03 0.  1.
</event>
<event>
 8    1  0.1106168E+005  0.1043930E+01  0.7957747E-01            NaN
         13   -1    0    0    0    0  0.00000000000E+00  0.00000000000E+00  0.74505805969E-08  0.10566000000E+00  0.10566000000E+00 0. -1.
     999900   -1    0    0    0    0 -0.00000000000E+00 -0.00000000000E+00 -0.74505805969E-08  0.93827000000E+00  0.93827000000E+00 0.  1.
     999902    2    1    2    0    0  0.49793181044E-02 -0.20796870737E-01 -0.79238562606E-02  0.10211244976E+01  0.10208698001E+01 0.  0.
     999903    2    3    3    0    0 -0.58010583508E-01  0.26942785458E-01 -0.11286701276E+00  0.13137179681E+00  0.20698911578E-01 0.  0.
         14    1    1    2    0    0 -0.49793181044E-02  0.20796870737E-01  0.79238562606E-02  0.22805502390E-01  0.00000000000E+00 0. -1.
     999901    1    3    3    0    0  0.62989901612E-01 -0.47739656195E-01  0.10494315650E+00  0.88975270080E+00  0.88000000000E+00 0. -1.
        -11    1    4    4    0    0 -0.16222612948E-02 -0.24969741412E-02 -0.97934464903E-02  0.10248869534E-01  0.51100000000E-03 0.  1.
         11    1    4    4    0    0 -0.56388322213E-01  0.29439759600E-01 -0.10307356627E+00  0.12112292728E+00  0.51100000000E-03 0. -1.
</event>
<event>
 8    1  0.1106168E+005  0.1043930E+01  0.7957747E-01            NaN
         13   -1    0    0    0    0  0.00000000000E+00  0.00000000000E+00  0.74505805969E-08  0.10566000000E+00  0.10566000000E+00 0. -1.
     999900   -1    0    0    0    0 -0.00000000000E+00 -0.00000000000E+00 -0.74505805969E-08  0.93827000000E+00  0.93827000000E+00 0. -1.
     999902    2    1    2    0    0 -0.94941041670E-02 -0.21325973984E-01 -0.42761371078E-02  0.10201977323E+01  0.10199216600E+01 0.  0.
     999903    2    3    3    0    0 -0.10571097979E+00 -0.48981428080E-01 -0.60631883778E-01  0.13273027857E+00  0.19160114129E-01 0.  0.
         14    1    1    2    0    0  0.94941041670E-02  0.21325973984E-01  0.42761371078E-02  0.23732267672E-01  0.00000000000E+00 0. -1.
     999901    1    3    3    0    0  0.96216875626E-01  0.27655454096E-01  0.56355746670E-01  0.88746745376E+00  0.88000000000E+00 0. -1.
        -11    1    4    4    0    0 -0.69545133940E-01 -0.41922369383E-01 -0.42697621725E-01  0.91746164669E-01  0.51100000000E-03 0.  1.
         11    1    4    4    0    0 -0.36165845853E-01 -0.70590586968E-02 -0.17934262053E-01  0.40984113902E-01  0.51100000000E-03 0. -1.
</event>
<event>
 8    1  0.1106168E+005  0.1043930E+01  0.7957747E-01            NaN
         13   -1    0    0    0    0  0.00000000000E+00  0.00000000000E+00  0.74505805969E-08  0.10566000000E+00  0.10566000000E+00 0. -1.
     999900   -1    0    0    0    0 -0.00000000000E+00 -0.00000000000E+00 -0.74505805969E-08  0.93827000000E+00  0.93827000000E+00 0. -1.
     999902    2    1    2    0    0 -0.34845954666E-02 -0.16141223009E-01 -0.32253694932E-01  0.10076949021E+01  0.10070432132E+01 0.  0.
     999903    2    3    3    0    0  0.36290702860E-01  0.10113611819E+00 -0.46506391433E-01  0.11890967015E+00  0.20763807319E-01 0.  0.
         14    1    1    2    0    0  0.34845954666E-02  0.16141223009E-01  0.32253694932E-01  0.36235097937E-01  0.00000000000E+00 0. -1.
     999901    1    3    3    0    0 -0.39775298327E-01 -0.11727734119E+00  0.14252696502E-01  0.88878523192E+00  0.88000000000E+00 0.  1.
        -11    1    4    4    0    0  0.95903687920E-02  0.10823468341E-01 -0.15541503660E-02  0.14553320750E-01  0.51100000000E-03 0. -1.
         11    1    4    4    0    0  0.26700334068E-01  0.90312649844E-01 -0.44952241067E-01  0.10435634940E+00  0.51100000000E-03 0.  1.
</event>
<event>
 8    1  0.1106168E+005  0.1043930E+01  0.7957747E-01            NaN
         13   -1    0    0    0    0  0.00000000000E+00  0.00000000000E+00  0.74505805969E-08  0.10566000000E+00  0.10566000000E+00 0. -1.
     999900   -1    0    0    0    0 -0.00000000000E+00 -0.00000000000E+00 -0.74505805969E-08  0.93827000000E+00  0.93827000000E+00 0.  1.
     999902    2    1    2    0    0  0.69778399640E-02 -0.14967262423E-01 -0.13678584083E-01  0.10224867526E+01  0.10222618776E+01 0.  0.
     999903    2    3    3    0    0  0.81015290469E-01 -0.75014828568E-01 -0.76160435527E-01  0.13513606884E+00  0.16451242095E-01 0.  0.
         14    1    1    2    0    0 -0.69778399640E-02  0.14967262423E-01  0.13678584083E-01  0.21443247364E-01  0.00000000000E+00 0. -1.
     999901    1    3    3    0    0 -0.74037450505E-01  0.60047566145E-01  0.62481851444E-01  0.88735068380E+00  0.88000000000E+00 0.  1.
        -11    1    4    4    0    0  0.35091101484E-01 -0.23435010912E-01 -0.23634327880E-01  0.48367630861E-01  0.51100000000E-03 0.  1.
         11    1    4    4    0    0  0.45924188985E-01 -0.51579817657E-01 -0.52526107646E-01  0.86768437977E-01  0.51100000000E-03 0. -1.
</event>
<event>
 8    1  0.1106168E+005  0.1043930E+01  0.7957747E-01            NaN
         13   -1    0    0    0    0  0.00000000000E+00  0.00000000000E+00  0.74505805969E-08  0.10566000000E+00  0.10566000000E+00 0.  1.
     999900   -1    0    0    0    0 -0.00000000000E+00 -0.00000000000E+00 -0.74505805969E-08  0.93827000000E+00  0.93827000000E+00 0. -1.
     999902    2    1    2    0    0  0.17741620196E-01  0.29833652934E-01  0.43123778493E-02  0.10089527426E+01  0.10083462839E+01 0.  0.
     999903    2    3    3    0    0  0.24614230388E-01  0.10979380371E+00 -0.46550290472E-01  0.12383813445E+00  0.22548044913E-01 0.  0.
         14    1    1    2    0    0 -0.17741620196E-01 -0.29833652934E-01 -0.43123778493E-02  0.34977257429E-01  0.00000000000E+00 0. -1.
     999901    1    3    3    0    0 -0.68726101922E-02 -0.79960150779E-01  0.50862668321E-01  0.88511460812E+00  0.88000000000E+00 0.  1.
        -11    1    4    4    0    0  0.74363947893E-02  0.75218257467E-01 -0.36513705028E-01  0.83944017058E-01  0.51100000000E-03 0.  1.
         11    1    4    4    0    0  0.17177835599E-01  0.34575546245E-01 -0.10036585444E-01  0.39894117391E-01  0.51100000000E-03 0. -1.
</event>
<event>
 7    1  0.1106168E+005  0.1043930E+01  0.7957747E-01            NaN
         13   -1    0    0    0    0  0.00000000000E+00  0.00000000000E+00  0.74505805969E-08  0.10566000000E+00  0.10566000000E+00 0.  1.
     999900   -1    0    0    0    0 -0.00000000000E+00 -0.00000000000E+00 -0.74505805969E-08  0.93827000000E+00  0.93827000000E+00 0. -1.
     999902    2    1    2    0    0 -0.17319959649E-01 -0.14670050223E-01 -0.55740673041E-02  0.10205577600E+01  0.10202900960E+01 0.  0.
         14    1    1    2    0    0  0.17319959649E-01  0.14670050223E-01  0.55740673041E-02  0.23372239989E-01  0.00000000000E+00 0. -1.
     999901    1    3    3    0    0  0.87329595697E-01  0.56519122199E-01 -0.10913166359E-01  0.88619409085E+00  0.88000000000E+00 0. -1.
        -11    1    3    3    0    0 -0.70778204367E-01 -0.70217051913E-01 -0.18606664705E-02  0.99718161804E-01  0.51100000000E-03 0. -1.
         11    1    3    3    0    0 -0.33871350978E-01 -0.97212050902E-03  0.71997655254E-02  0.34645507357E-01  0.51100000000E-03 0.  1.
</event>
<event>
 8    1  0.1106168E+005  0.1043930E+01  0.7957747E-01            NaN
         13   -1    0    0    0    0  0.00000000000E+00  0.00000000000E+00  0.74505805969E-08  0.10566000000E+00  0.10566000000E+00 0. -1.
     999900   -1    0    0    0    0 -0.00000000000E+00 -0.00000000000E+00 -0.74505805969E-08  0.93827000000E+00  0.93827000000E+00 0. -1.
     999902    2    1    2    0    0 -0.21445467252E-01 -0.79814992021E-02 -0.54307820750E-02  0.10204117988E+01  0.10201407419E+01 0.  0.
     999903    2    3    3    0    0 -0.56101921281E-01 -0.68100354313E-01  0.95889998693E-01  0.13188422623E+00  0.20334046580E-01 0.  0.
         14    1    1    2    0    0  0.21445467252E-01  0.79814992021E-02  0.54307820750E-02  0.23518201230E-01  0.00000000000E+00 0.  1.
     999901    1    3    3    0    0  0.34656454029E-01  0.60118855111E-01 -0.10132078077E+00  0.88852757254E+00  0.88000000000E+00 0. -1.
        -11    1    4    4    0    0 -0.28485240374E-01 -0.20336060890E-01  0.43087587432E-01  0.55513652406E-01  0.51100000000E-03 0. -1.
         11    1    4    4    0    0 -0.27616680907E-01 -0.47764293423E-01  0.52802411261E-01  0.76370573826E-01  0.51100000000E-03 0.  1.
</event>
<event>
 8    1  0.1106168E+005  0.1043930E+01  0.7957747E-01            NaN
         13   -1    0    0    0    0  0.00000000000E+00  0.00000000000E+00  0.74505805969E-08  0.10566000000E+00  0.10566000000E+00 0.  1.
     999900   -1    0    0    0    0 -0.00000000000E+00 -0.00000000000E+00 -0.74505805969E-08  0.93827000000E+00  0.93827000000E+00 0. -1.
     999902    2    1    2    0    0 -0.22240249658E-01 -0.76283299054E-02 -0.24083602057E-02  0.10202948499E+01  0.10200210588E+01 0.  0.
     999903    2    3    3    0    0  0.39859593715E-01 -0.10858840026E+00  0.57118880869E-01  0.13035506609E+00  0.18698898953E-01 0.  0.
         14    1    1    2    0    0  0.22240249658E-01  0.76283299054E-02  0.24083602057E-02  0.23635150113E-01  0.00000000000E+00 0.  1.
     999901    1    3    3    0    0 -0.62099843373E-01  0.10096007035E+00 -0.59527241075E-01  0.88993978380E+00  0.88000000000E+00 0. -1.
        -11    1    4    4    0    0  0.50337238702E-02 -0.38901123982E-01  0.17542100130E-01  0.42972342513E-01  0.51100000000E-03 0.  1.
         11    1    4    4    0    0  0.34825869845E-01 -0.69687276276E-01  0.39576780739E-01  0.87382723578E-01  0.51100000000E-03 0. -1.
</event>
<event>
 8    1  0.1106168E+005  0.1043930E+01  0.7957747E-01            NaN
         13   -1    0    0    0    0  0.00000000000E+00  0.00000000000E+00  0.74505805969E-08  0.10566000000E+00  0.10566000000E+00 0.  1.
     999900   -1    0    0    0    0 -0.00000000000E+00 -0.00000000000E+00 -0.74505805969E-08  0.93827000000E+00  0.93827000000E+00 0. -1.
     999902    2    1    2    0    0  0.18233303384E-01  0.15423024968E-01 -0.22595417803E-02  0.10199419075E+01  0.10196597796E+01 0.  0.
     999903    2    3    3    0    0 -0.54767508257E-01  0.82843789521E-01  0.82109603421E-01  0.13033928239E+00  0.19590000931E-01 0.  0.
         14    1    1    2    0    0 -0.18233303384E-01 -0.15423024968E-01  0.22595417803E-02  0.23988092473E-01  0.00000000000E+00 0. -1.
     999901    1    3    3    0    0  0.73000811640E-01 -0.67420764553E-01 -0.84369145201E-01  0.88960262514E+00  0.88000000000E+00 0. -1.
        -11    1    4    4    0    0 -0.42011685391E-01  0.64878943930E-01  0.52543779137E-01  0.93463195547E-01  0.51100000000E-03 0.  1.
         11    1    4    4    0    0 -0.12755822866E-01  0.17964845591E-01  0.29565824283E-01  0.36876086841E-01  0.51100000000E-03 0. -1.
</event>
<event>
 8    1  0.1106168E+005  0.1043930E+01  0.7957747E-01            NaN
         13   -1    0    0    0    0  0.00000000000E+00  0.00000000000E+00  0.74505805969E-08  0.10566000000E+00  0.10566000000E+00 0.  1.
     999900   -1    0    0    0    0 -0.00000000000E+00 -0.00000000000E+00 -0.74505805969E-08  0.93827000000E+00  0.93827000000E+00 0.  1.
     999902    2    1    2    0    0  0.63004938508E-02 -0.20934463712E-01  0.78921423002E-02  0.10206870677E+01  0.10204223911E+01 0.  0.
     999903    2    3    3    0    0 -0.87460707693E-01  0.55985520431E-01 -0.73318826155E-01  0.12866516867E+00  0.19882692796E-01 0.  0.
         14    1    1    2    0    0 -0.63004938508E-02  0.20934463712E-01 -0.78921423002E-02  0.23242932340E-01  0.00000000000E+00 0. -1.
     999901    1    3    3    0    0  0.93761201543E-01 -0.76919984143E-01  0.81210968455E-01  0.89202189899E+00  0.88000000000E+00 0. -1.
        -11    1    4    4    0    0 -0.63244548496E-01  0.31636943873E-01 -0.42407702807E-01  0.82458738230E-01  0.51100000000E-03 0.  1.
         11    1    4    4    0    0 -0.24216159196E-01  0.24348576558E-01 -0.30911123348E-01  0.46206430443E-01  0.51100000000E-03 0. -1.
</event>
<event>
 8    1  0.1106168E+005  0.1043930E+01  0.7957747E-01            NaN
         13   -1    0    0    0    0  0.00000000000E+00  0.00000000000E+00  0.74505805969E-08  0.10566000000E+00  0.10566000000E+00 0. -1.
     999900   -1    0    0    0    0 -0.00000000000E+00 -0.00000000000E+00 -0.74505805969E-08  0.93827000000E+00  0.93827000000E+00 0.  1.
     999902    2    1    2    0    0 -0.23918401372E-02  0.22126927014E-01  0.69548032594E-02  0.10206128156E+01  0.10203464257E+01 0.  0.
     999903    2    3    3    0    0  0.11158557331E+00  0.55888643712E-01 -0.35751572609E-01  0.13159395260E+00  0.21538633919E-01 0.  0.
         14    1    1    2    0    0  0.23918401372E-02 -0.22126927014E-01 -0.69548032594E-02  0.23317184365E-01  0.00000000000E+00 0.  1.
     999901    1    3    3    0    0 -0.11397741344E+00 -0.33761716698E-01  0.42706375869E-01  0.88901886303E+00  0.88000000000E+00 0.  1.
        -11    1    4    4    0    0  0.34655687576E-01  0.28275015610E-01 -0.93310307540E-02  0.45692695751E-01  0.51100000000E-03 0.  1.
         11    1    4    4    0    0  0.76929885731E-01  0.27613628103E-01 -0.26420541855E-01  0.85901256850E-01  0.51100000000E-03 0. -1.
</event>
<event>
 8    1  0.1106168E+005  0.1043930E+01  0.7957747E-01            NaN
         13   -1    0    0    0    0  0.00000000000E+00  0.00000000000E+00  0.74505805969E-08  0.10566000000E+00  0.10566000000E+00 0.  1.
     999900   -1    0    0    0    0 -0.00000000000E+00 -0.00000000000E+00 -0.74505805969E-08  0.93827000000E+00  0.93827000000E+00 0.  1.
     999902    2    1    2    0    0  0.21839261640E-01 -0.79714594206E-03 -0.96635857003E-02  0.10200349445E+01  0.10197550266E+01 0.  0.
     999903    2    3    3    0    0  0.14333070239E-01 -0.10065218473E+00  0.78527112028E-01  0.12997597403E+00  0.19772387495E-01 0.  0.
         14    1    1    2    0    0 -0.21839261640E-01  0.79714594206E-03  0.96635857003E-02  0.23895055539E-01  0.00000000000E+00 0. -1.
     999901    1    3    3    0    0  0.75061914012E-02  0.99855038790E-01 -0.88190697728E-01  0.89005897043E+00  0.88000000000E+00 0.  1.
        -11    1    4    4    0    0  0.86063275876E-02 -0.13346770742E-01  0.15001103712E-01  0.21851759594E-01  0.51100000000E-03 0.  1.
         11    1    4    4    0    0  0.57267426515E-02 -0.87305413990E-01  0.63526008316E-01  0.10812421443E+00  0.51100000000E-03 0. -1.
</event>
<event>
 8    1  0.1106168E+005  0.1043930E+01  0.7957747E-01            NaN
         13   -1    0    0    0    0  0.00000000000E+00  0.00000000000E+00  0.74505805969E-08  0.10566000000E+00  0.10566000000E+00 0. -1.
     999900   -1    0    0    0    0 -0.00000000000E+00 -0.00000000000E+00 -0.74505805969E-08  0.93827000000E+00  0.93827000000E+00 0. -1.
     999902    2    1    2    0    0  0.22455054980E-01  0.54069129403E-02  0.59446997110E-02  0.10200803950E+01  0.10198015536E+01 0.  0.
     999903    2    3    3    0    0  0.69059092703E-01  0.10746513518E+00  0.29758468111E-01  0.13263748836E+00  0.19728743804E-01 0.  0.
         14    1    1    2    0    0 -0.22455054980E-01 -0.54069129403E-02 -0.59446997110E-02  0.23849604952E-01  0.00000000000E+00 0. -1.
     999901    1    3    3    0    0 -0.46604037723E-01 -0.10205822223E+00 -0.23813768400E-01  0.88744290668E+00  0.88000000000E+00 0.  1.
        -11    1    4    4    0    0  0.55226030753E-01  0.83956570061E-01  0.14958722337E-01  0.10160041646E+00  0.51100000000E-03 0. -1.
         11    1    4    4    0    0  0.13833061950E-01  0.23508565114E-01  0.14799745774E-01  0.31037071908E-01  0.51100000000E-03 0.  1.
</event>
<event>
 8    1  0.1106168E+005  0.1043930E+01  0.7957747E-01            NaN
         13   -1    0    0    0    0  0.00000000000E+00  0.00000000000E+00  0.74505805969E-08  0.10566000000E+00  0.10566000000E+00 0. -1.
     999900   -1    0    0    0    0 -0.00000000000E+00 -0.00000000000E+00 -0.74505805969E-08  0.93827000000E+00  0.93827000000E+00 0.  1.
     999902    2    1    2    0    0  0.17315646693E-01 -0.34176442999E-02  0.13533003066E-01  0.10216891798E+01  0.10214470745E+01 0.  0.
     999903    2    3    3    0    0 -0.11095357351E+00  0.63029067985E-01  0.11961671307E-01  0.12990970730E+00  0.21215361952E-01 0.  0.
         14    1    1    2    0    0 -0.17315646693E-01  0.34176442999E-02 -0.13533003066E-01  0.22240820240E-01  0.00000000000E+00 0.  1.
     999901    1    3    3    0    0  0.12826922021E+00 -0.66446712285E-01  0.15713317598E-02  0.89177947246E+00  0.88000000000E+00 0. -1.
        -11    1    4    4    0    0 -0.87475543096E-01  0.51825272015E-01  0.10150075240E-02  0.10168146744E+00  0.51100000000E-03 0.  1.
         11    1    4    4    0    0 -0.23478030416E-01  0.11203795971E-01  0.10946663783E-01  0.28228239856E-01  0.51100000000E-03 0. -1.
</event>
<event>
 8    1  0.1106168E+005  0.1043930E+01  0.7957747E-01            NaN
         13   -1    0    0    0    0  0.00000000000E+00  0.00000000000E+00  0.74505805969E-08  0.10566000000E+00  0.10566000000E+00 0. -1.
     999900   -1    0    0    0    0 -0.00000000000E+00 -0.00000000000E+00 -0.74505805969E-08  0.93827000000E+00  0.93827000000E+00 0. -1.
     999902    2    1    2    0    0  0.14726452293E-01  0.31589247641E-02 -0.17972921265E-01  0.10204806268E+01  0.10202111726E+01 0.  0.
     999903    2    3    3    0    0  0.90225239936E-01 -0.93202941130E-01  0.97926873029E-02  0.13157309219E+00  0.19702784261E-01 0.  0.
         14    1    1    2    0    0 -0.14726452293E-01 -0.31589247641E-02  0.17972921265E-01  0.23449373160E-01  0.00000000000E+00 0. -1.
     999901    1    3    3    0    0 -0.75498787643E-01  0.96361865894E-01 -0.27765608568E-01  0.88890753465E+00  0.88000000000E+00 0.  1.
        -11    1    4    4    0    0  0.51122564067E-01 -0.52562477289E-01 -0.42604962326E-02  0.73448917791E-01  0.51100000000E-03 0. -1.
         11    1    4    4    0    0  0.39102675869E-01 -0.40640463841E-01  0.14053183536E-01  0.58124174401E-01  0.51100000000E-03 0.  1.
</event>
<event>
 8    1  0.1106168E+005  0.1043930E+01  0.7957747E-01            NaN
         13   -1    0    0    0    0  0.00000000000E+00  0.00000000000E+00  0.74505805969E-08  0.10566000000E+00  0.10566000000E+00 0. -1.
     999900   -1    0    0    0    0 -0.00000000000E+00 -0.00000000000E+00 -0.74505805969E-08  0.93827000000E+00  0.93827000000E+00 0. -1.
     999902    2    1    2    0    0 -0.12385975998E-01  0.35569020770E-02  0.20152965554E-01  0.10200091728E+01  0.10197286436E+01 0.  0.
     999903    2    3    3    0    0  0.75719760158E-01 -0.25242437133E-01  0.10240200756E+00  0.13132648049E+00  0.19743622136E-01 0.  0.
         14    1    1    2    0    0  0.12385975998E-01 -0.35569020770E-02 -0.20152965554E-01  0.23920827210E-01  0.00000000000E+00 0. -1.
     999901    1    3    3    0    0 -0.88105736156E-01  0.28799339210E-01 -0.82249042005E-01  0.88868269230E+00  0.88000000000E+00 0.  1.
        -11    1    4    4    0    0  0.24556137568E-01  0.64955061995E-03  0.25663035584E-01  0.35528556467E-01  0.51100000000E-03 0.  1.
         11    1    4    4    0    0  0.51163622590E-01 -0.25891987753E-01  0.76738971974E-01  0.95797924023E-01  0.51100000000E-03 0. -1.
</event>
<event>
 7    1  0.1106168E+005  0.1043930E+01  0.7957747E-01            NaN
         13   -1    0    0    0    0  0.00000000000E+00  0.00000000000E+00  0.74505805969E-08  0.10566000000E+00  0.10566000000E+00 0. -1.
     999900   -1    0    0    0    0 -0.00000000000E+00 -0.00000000000E+00 -0.74505805969E-08  0.93827000000E+00  0.93827000000E+00 0. -1.
     999903    2    1    2    0    0 -0.19627109445E-01 -0.23376984105E-01  0.10906262334E+00  0.11483808987E+00  0.19011161599E-01 0.  0.
         14    1    1    2    0    0  0.37546981200E-01  0.15087962524E-01 -0.17614993816E-01  0.44132872301E-01  0.00000000000E+00 0. -1.
     999901    1    1    2    0    0 -0.17919871756E-01  0.82890215817E-02 -0.91447629524E-01  0.88495903782E+00  0.88000000000E+00 0. -1.
        -11    1    3    3    0    0  0.16695061152E-02 -0.23360855281E-02  0.32472788049E-01  0.32603491085E-01  0.51100000000E-03 0. -1.
         11    1    3    3    0    0 -0.21296615560E-01 -0.21040898577E-01  0.76589835290E-01  0.82234598789E-01  0.51100000000E-03 0.  1.
</event>
<event>
 8    1  0.1106168E+005  0.1043930E+01  0.7957747E-01            NaN
         13   -1    0    0    0    0  0.00000000000E+00  0.00000000000E+00  0.74505805969E-08  0.10566000000E+00  0.10566000000E+00 0.  1.
     999900   -1    0    0    0    0 -0.00000000000E+00 -0.00000000000E+00 -0.74505805969E-08  0.93827000000E+00  0.93827000000E+00 0. -1.
     999902    2    1    2    0    0 -0.78568083550E-03 -0.12879549742E-01 -0.19363903316E-01  0.10206606887E+01  0.10203954041E+01 0.  0.
     999903    2    3    3    0    0  0.11788740770E+00 -0.21502565011E-01 -0.51839405221E-01  0.13205936272E+00  0.19812878458E-01 0.  0.
         14    1    1    2    0    0  0.78568083550E-03  0.12879549742E-01  0.19363903316E-01  0.23269311283E-01  0.00000000000E+00 0.  1.
     999901    1    3    3    0    0 -0.11867308854E+00  0.86230152686E-02  0.32475501905E-01  0.88860132599E+00  0.88000000000E+00 0.  1.
        -11    1    4    4    0    0  0.45251107150E-01  0.38333345351E-03 -0.24184253786E-01  0.51312268465E-01  0.51100000000E-03 0. -1.
         11    1    4    4    0    0  0.72636300551E-01 -0.21885898464E-01 -0.27655151435E-01  0.80747094258E-01  0.51100000000E-03 0.  1.
</event>
<event>
 8    1  0.1106168E+005  0.1043930E+01  0.7957747E-01            NaN
         13   -1    0    0    0    0  0.00000000000E+00  0.00000000000E+00  0.74505805969E-08  0.10566000000E+00  0.10566000000E+00 0. -1.
     999900   -1    0    0    0    0 -0.00000000000E+00 -0.00000000000E+00 -0.74505805969E-08  0.93827000000E+00  0.93827000000E+00 0.  1.
     999902    2    1    2    0    0 -0.48114641788E-02  0.38552294854E-02 -0.23547844183E-01  0.10195883906E+01  0.10192977839E+01 0.  0.
     999903    2    3    3    0    0  0.10303307851E+00  0.60453011981E-01  0.43413910408E-01  0.12868007269E+00  0.20085108008E-01 0.  0.
         14    1    1    2    0    0  0.48114641788E-02 -0.38552294854E-02  0.23547844183E-01  0.24341609388E-01  0.00000000000E+00 0. -1.
     999901    1    3    3    0    0 -0.10784454269E+00 -0.56597782496E-01 -0.66961754591E-01  0.89090831793E+00  0.88000000000E+00 0. -1.
        -11    1    4    4    0    0  0.87538057143E-01  0.49978169958E-01  0.43939878927E-01  0.10996227990E+00  0.51100000000E-03 0.  1.
         11    1    4    4    0    0  0.15495021372E-01  0.10474842023E-01 -0.52596851835E-03  0.18717792781E-01  0.51100000000E-03 0. -1.
</event>
<event>
 8    1  0.1106168E+005  0.1043930E+01  0.7957747E-01            NaN
         13   -1    0    0    0    0  0.00000000000E+00  0.00000000000E+00  0.74505805969E-08  0.10566000000E+00  0.10566000000E+00 0. -1.
     999900   -1    0    0    0    0 -0.00000000000E+00 -0.00000000000E+00 -0.74505805969E-08  0.93827000000E+00  0.93827000000E+00 0.  1.
     999902    2    1    2    0    0 -0.14761546347E-01  0.15775360727E-01  0.68856780310E-02  0.10212545106E+01  0.10210027413E+01 0.  0.
     999903    2    3    3    0    0  0.86524239790E-01 -0.78252565018E-01  0.51831607641E-01  0.12933512083E+00  0.20764150042E-01 0.  0.
         14    1    1    2    0    0  0.14761546347E-01 -0.15775360727E-01 -0.68856780310E-02  0.22675489379E-01  0.00000000000E+00 0.  1.
     999901    1    3    3    0    0 -0.10128578614E+00  0.94027925745E-01 -0.44945929610E-01  0.89191938979E+00  0.88000000000E+00 0.  1.
        -11    1    4    4    0    0  0.30022749521E-01 -0.14649072966E-01  0.15298457642E-01  0.36745948822E-01  0.51100000000E-03 0. -1.
         11    1    4    4    0    0  0.56501490268E-01 -0.63603492052E-01  0.36533149999E-01  0.92589172011E-01  0.51100000000E-03 0.  1.
</event>
<event>
 8    1  0.1106168E+005  0.1043930E+01  0.7957747E-01            NaN
         13   -1    0    0    0    0  0.00000000000E+00  0.00000000000E+00  0.74505805969E-08  0.10566000000E+00  0.10566000000E+00 0. -1.
     999900   -1    0    0    0    0 -0.00000000000E+00 -0.00000000000E+00 -0.74505805969E-08  0.93827000000E+00  0.93827000000E+00 0.  1.
     999902    2    1    2    0    0 -0.16621757149E-01  0.40156294328E-02 -0.16186262115E-01  0.10203842324E+01  0.10201125323E+01 0.  0.
     999903    2    3    3    0    0  0.95162012437E-01  0.82619889548E-01 -0.24368461990E-01  0.12979948672E+00  0.19293264433E-01 0.  0.
         14    1    1    2    0    0  0.16621757149E-01 -0.40156294328E-02  0.16186262115E-01  0.23545767597E-01  0.00000000000E+00 0. -1.
     999901    1    3    3    0    0 -0.11178376959E+00 -0.78604260116E-01  0.81821998744E-02  0.89058474568E+00  0.88000000000E+00 0. -1.
        -11    1    4    4    0    0  0.48178133411E-01  0.33566673405E-01 -0.38713755158E-02  0.58848133121E-01  0.51100000000E-03 0.  1.
         11    1    4    4    0    0  0.46983879026E-01  0.49053216143E-01 -0.20497086474E-01  0.70951353597E-01  0.51100000000E-03 0. -1.
</event>
<event>
 8    1  0.1106168E+005  0.1043930E+01  0.7957747E-01            NaN
         13   -1    0    0    0    0  0.00000000000E+00  0.00000000000E+00  0.74505805969E-08  0.10566000000E+00  0.10566000000E+00 0.  1.
     999900   -1    0    0    0    0 -0.00000000000E+00 -0.00000000000E+00 -0.74505805969E-08  0.93827000000E+00  0.93827000000E+00 0.  1.
     999902    2    1    2    0    0 -0.13345685733E-02 -0.21297008831E-01  0.10486927075E-01  0.10201535558E+01  0.10198764426E+01 0.  0.
     999903    2    3    3    0    0 -0.28399811445E-01  0.11785118048E+00  0.37714958034E-01  0.12839343581E+00  0.19157407677E-01 0.  0.
         14    1    1    2    0    0  0.13345685733E-02  0.21297008831E-01 -0.10486927075E-01  0.23776444182E-01  0.00000000000E+00 0.  1.
     999901    1    3    3    0    0  0.27065242872E-01 -0.13914818932E+00 -0.27228030959E-01  0.89176012000E+00  0.88000000000E+00 0. -1.
        -11    1    4    4    0    0 -0.27890747673E-01  0.96566218831E-01  0.24954326068E-01  0.10356595935E+00  0.51100000000E-03 0. -1.
         11    1    4    4    0    0 -0.50906377241E-03  0.21284961653E-01  0.12760631966E-01  0.24827476466E-01  0.51100000000E-03 0.  1.
</event>
<event>
 8    1  0.1106168E+005  0.1043930E+01  0.7957747E-01            NaN
         13   -1    0    0    0    0  0.00000000000E+00  0.00000000000E+00  0.74505805969E-08  0.10566000000E+00  0.10566000000E+00 0.  1.
     999900   -1    0    0    0    0 -0.00000000000E+00 -0.00000000000E+00 -0.74505805969E-08  0.93827000000E+00  0.93827000000E+00 0. -1.
     999902    2    1    2    0    0  0.21268364995E-01  0.22147363496E-02 -0.13390406790E-01  0.10187000297E+01  0.10183875486E+01 0.  0.
     999903    2    3    3    0    0 -0.10549207633E+00  0.41434512135E-01 -0.55578080771E-01  0.12775322988E+00  0.19661325427E-01 0.  0.
         14    1    1    2    0    0 -0.21268364995E-01 -0.22147363496E-02  0.13390406790E-01  0.25229970287E-01  0.00000000000E+00 0. -1.
     999901    1    3    3    0    0  0.12676044133E+00 -0.39219775785E-01  0.42187673981E-01  0.89094679983E+00  0.88000000000E+00 0.  1.
        -11    1    4    4    0    0 -0.33768700944E-01  0.96802469798E-02 -0.80682210047E-02  0.36047047815E-01  0.51100000000E-03 0. -1.
         11    1    4    4    0    0 -0.71723375389E-01  0.31754265155E-01 -0.47509859766E-01  0.91706182064E-01  0.51100000000E-03 0.  1.
</event>
<event>
 8    1  0.1106168E+005  0.1043930E+01  0.7957747E-01            NaN
         13   -1    0    0    0    0  0.00000000000E+00  0.00000000000E+00  0.74505805969E-08  0.10566000000E+00  0.10566000000E+00 0.  1.
     999900   -1    0    0    0    0 -0.00000000000E+00 -0.00000000000E+00 -0.74505805969E-08  0.93827000000E+00  0.93827000000E+00 0.  1.
     999902    2    1    2    0    0 -0.10437005575E-01  0.20788564021E-01  0.38389892365E-02  0.10203538825E+01  0.10200814733E+01 0.  0.
     999903    2    3    3    0    0  0.10040012453E+00 -0.44193918687E-01  0.65038498657E-01  0.12892078211E+00  0.18901700920E-01 0.  0.
         14    1    1    2    0    0  0.10437005575E-01 -0.20788564021E-01 -0.38389892365E-02  0.23576117530E-01  0.00000000000E+00 0. -1.
     999901    1    3    3    0    0 -0.11083713010E+00  0.64982482708E-01 -0.61199509421E-01  0.89143310036E+00  0.88000000000E+00 0.  1.
        -11    1    4    4    0    0  0.34238321731E-01 -0.14987187874E-01  0.32833203116E-01  0.49750968063E-01  0.51100000000E-03 0. -1.
         11    1    4    4    0    0  0.66161802796E-01 -0.29206730812E-01  0.32205295541E-01  0.79169814045E-01  0.51100000000E-03 0.  1.
</event>
<event>
 8    1  0.1106168E+005  0.1043930E+01  0.7957747E-01            NaN
         13   -1    0    0    0    0  0.00000000000E+00  0.00000000000E+00  0.74505805969E-08  0.10566000000E+00  0.10566000000E+00 0. -1.
     999900   -1    0    0    0    0 -0.00000000000E+00 -0.00000000000E+00 -0.74505805969E-08  0.93827000000E+00  0.93827000000E+00 0. -1.
     999902    2    1    2    0    0 -0.23547958950E-02 -0.23068112750E-01 -0.24440737976E-02  0.10206135597E+01  0.10203471870E+01 0.  0.
     999903    2    3    3    0    0 -0.50471898097E-01  0.74496329755E-01  0.90265911777E-01  0.12908161001E+00  0.20420861139E-01 0.  0.
         14    1    1    2    0    0  0.23547958950E-02  0.23068112750E-01  0.24440737976E-02  0.23316440258E-01  0.00000000000E+00 0.  1.
     999901    1    3    3    0    0  0.48117102202E-01 -0.97564442506E-01 -0.92709985575E-01  0.89153194973E+00  0.88000000000E+00 0. -1.
        -11    1    4    4    0    0 -0.39260908284E-01  0.45020201602E-01  0.67775759836E-01  0.90344076806E-01  0.51100000000E-03 0.  1.
         11    1    4    4    0    0 -0.11210989813E-01  0.29476128154E-01  0.22490151941E-01  0.38737533206E-01  0.51100000000E-03 0. -1.
</event>
<event>
 8    1  0.1106168E+005  0.1043930E+01  0.7957747E-01            NaN
         13   -1    0    0    0    0  0.00000000000E+00  0.00000000000E+00  0.74505805969E-08  0.10566000000E+00  0.10566000000E+00 0.  1.
     999900   -1    0    0    0    0 -0.00000000000E+00 -0.00000000000E+00 -0.74505805969E-08  0.93827000000E+00  0.93827000000E+00 0. -1.
     999902    2    1    2    0    0 -0.12884795109E-01 -0.17403313404E-01  0.46704195329E-02  0.10217781134E+01  0.10215379616E+01 0.  0.
     999903    2    3    3    0    0 -0.11307886153E+00 -0.26617507004E-01 -0.64633145092E-01  0.13333749275E+00  0.10301598157E-01 0.  0.
         14    1    1    2    0    0  0.12884795109E-01  0.17403313404E-01 -0.46704195329E-02  0.22151886625E-01  0.00000000000E+00 0. -1.
     999901    1    3    3    0    0  0.10019406642E+00  0.92141935993E-02  0.69303564625E-01  0.88844062063E+00  0.88000000000E+00 0.  1.
        -11    1    4    4    0    0 -0.55221695939E-01 -0.18252347814E-01 -0.32623808744E-01  0.66687014636E-01  0.51100000000E-03 0.  1.
         11    1    4    4    0    0 -0.57857165588E-01 -0.83651591890E-02 -0.32009336348E-01  0.66650478112E-01  0.51100000000E-03 0. -1.
</event>
<event>
 8    1  0.1106168E+005  0.1043930E+01  0.7957747E-01            NaN
         13   -1    0    0    0    0  0.00000000000E+00  0.00000000000E+00  0.74505805969E-08  0.10566000000E+00  0.10566000000E+00 0. -1.
     999900   -1    0    0    0    0 -0.00000000000E+00 -0.00000000000E+00 -0.74505805969E-08  0.93827000000E+00  0.93827000000E+00 0. -1.
     999902    2    1    2    0    0  0.14117848995E-01  0.15995790501E-01 -0.13654292420E-01  0.10185998070E+01  0.10182848070E+01 0.  0.
     999903    2    3    3    0    0 -0.51625073816E-01  0.11781794088E+00  0.29159217035E-02  0.13013795968E+00  0.19523588574E-01 0.  0.
         14    1    1    2    0    0 -0.14117848995E-01 -0.15995790501E-01  0.13654292420E-01  0.25330192962E-01  0.00000000000E+00 0. -1.
     999901    1    3    3    0    0  0.65742922811E-01 -0.10182215038E+00 -0.16570214123E-01  0.88846184735E+00  0.88000000000E+00 0. -1.
        -11    1    4    4    0    0 -0.27880862679E-01  0.40234801008E-01  0.20527082700E-02  0.48996494243E-01  0.51100000000E-03 0.  1.
         11    1    4    4    0    0 -0.23744211137E-01  0.77583139876E-01  0.86321343351E-03  0.81141465441E-01  0.51100000000E-03 0. -1.
</event>
<event>
 8    1  0.1106168E+005  0.1043930E+01  0.7957747E-01            NaN
         13   -1    0    0    0    0  0.00000000000E+00  0.00000000000E+00  0.74505805969E-08  0.10566000000E+00  0.10566000000E+00 0.  1.
     999900   -1    0    0    0    0 -0.00000000000E+00 -0.00000000000E+00 -0.74505805969E-08  0.93827000000E+00  0.93827000000E+00 0. -1.
     999902    2    1    2    0    0 -0.45177531010E-02  0.17109636941E-01 -0.15442485229E-01  0.10204434055E+01  0.10201730852E+01 0.  0.
     999903    2    3    3    0    0 -0.11607077887E-01 -0.10421946300E+00  0.69661107113E-01  0.12802330802E+00  0.23256758785E-01 0.  0.
         14    1    1    2    0    0  0.45177531010E-02 -0.17109636941E-01  0.15442485229E-01  0.23486594461E-01  0.00000000000E+00 0.  1.
     999901    1    3    3    0    0  0.70893247865E-02  0.12132909994E+00 -0.85103592342E-01  0.89242009751E+00  0.88000000000E+00 0. -1.
        -11    1    4    4    0    0 -0.78597464755E-02 -0.37357445927E-01  0.13096067665E-01  0.40362389550E-01  0.51100000000E-03 0.  1.
         11    1    4    4    0    0 -0.37473314120E-02 -0.66862017069E-01  0.56565039448E-01  0.87660918475E-01  0.51100000000E-03 0. -1.
</event>
<event>
 8    1  0.1106168E+005  0.1043930E+01  0.7957747E-01            NaN
         13   -1    0    0    0    0  0.00000000000E+00  0.00000000000E+00  0.74505805969E-08  0.10566000000E+00  0.10566000000E+00 0.  1.
     999900   -1    0    0    0    0 -0.00000000000E+00 -0.00000000000E+00 -0.74505805969E-08  0.93827000000E+00  0.93827000000E+00 0. -1.
     999902    2    1    2    0    0 -0.15285694897E-01  0.16060140917E-01 -0.10196739565E-01  0.10195260230E+01  0.10192339072E+01 0.  0.
     999903    2    3    3    0    0 -0.85403153776E-01 -0.63528506340E-01 -0.70525774500E-01  0.13110585031E+00  0.29753811946E-01 0.  0.
         14    1    1    2    0    0  0.15285694897E-01 -0.16060140917E-01  0.10196739565E-01  0.24403976981E-01  0.00000000000E+00 0.  1.
     999901    1    3    3    0    0  0.70117458878E-01  0.79588647256E-01  0.60329034935E-01  0.88842017270E+00  0.88000000000E+00 0.  1.
        -11    1    4    4    0    0 -0.60538329282E-01 -0.34218515873E-01 -0.31551114270E-01  0.76364455563E-01  0.51100000000E-03 0. -1.
         11    1    4    4    0    0 -0.24864824494E-01 -0.29309990467E-01 -0.38974660230E-01  0.54741394751E-01  0.51100000000E-03 0.  1.
</event>
<event>
 8    1  0.1106168E+005  0.1043930E+01  0.7957747E-01            NaN
         13   -1    0    0    0    0  0.00000000000E+00  0.00000000000E+00  0.74505805969E-08  0.10566000000E+00  0.10566000000E+00 0.  1.
     999900   -1    0    0    0    0 -0.00000000000E+00 -0.00000000000E+00 -0.74505805969E-08  0.93827000000E+00  0.93827000000E+00 0. -1.
     999902    2    1    2    0    0 -0.29681076060E-02 -0.11876519441E-01  0.19676045443E-01  0.10207565639E+01  0.10204934858E+01 0.  0.
     999903    2    3    3    0    0  0.11956359840E+00  0.34642556595E-01  0.34725132823E-01  0.13092258025E+00  0.20960113995E-01 0.  0.
         14    1    1    2    0    0  0.29681076060E-02  0.11876519441E-01 -0.19676045443E-01  0.23173436109E-01  0.00000000000E+00 0. -1.
     999901    1    3    3    0    0 -0.12253170601E+00 -0.46519076036E-01 -0.15049087380E-01  0.88983398364E+00  0.88000000000E+00 0.  1.
        -11    1    4    4    0    0  0.81710943754E-01  0.13924402711E-01  0.26212474467E-01  0.86936311508E-01  0.51100000000E-03 0. -1.
         11    1    4    4    0    0  0.37852654651E-01  0.20718153884E-01  0.85126583566E-02  0.43986268741E-01  0.51100000000E-03 0.  1.
</event>
<event>
 8    1  0.1106168E+005  0.1043930E+01  0.7957747E-01            NaN
         13   -1    0    0    0    0  0.00000000000E+00  0.00000000000E+00  0.74505805969E-08  0.10566000000E+00  0.10566000000E+00 0.  1.
     999900   -1    0    0    0    0 -0.00000000000E+00 -0.00000000000E+00 -0.74505805969E-08  0.93827000000E+00  0.93827000000E+00 0.  1.
     999902    2    1    2    0    0  0.14923033193E-01  0.15520304156E-01 -0.91622026251E-02  0.10205307966E+01  0.10202625075E+01 0.  0.
     999903    2    3    3    0    0  0.36292676857E-01  0.87632582985E-01 -0.91832230647E-01  0.13346192899E+00  0.19552491143E-01 0.  0.
         14    1    1    2    0    0 -0.14923033193E-01 -0.15520304156E-01  0.91622026251E-02  0.23399203356E-01  0.00000000000E+00 0.  1.
     999901    1    3    3    0    0 -0.21369643665E-01 -0.72112278829E-01  0.82670028022E-01  0.88706886765E+00  0.88000000000E+00 0. -1.
        -11    1    4    4    0    0  0.31925693649E-01  0.85573149279E-01 -0.90125328336E-01  0.12831543057E+00  0.51100000000E-03 0.  1.
         11    1    4    4    0    0  0.43669832083E-02  0.20594337056E-02 -0.17069023115E-02  0.51464984241E-02  0.51100000000E-03 0. -1.
</event>
<event>
 8    1  0.1106168E+005  0.1043930E+01  0.7957747E-01            NaN
         13   -1    0    0    0    0  0.00000000000E+00  0.00000000000E+00  0.74505805969E-08  0.10566000000E+00  0.10566000000E+00 0.  1.
     999900   -1    0    0    0    0 -0.00000000000E+00 -0.00000000000E+00 -0.74505805969E-08  0.93827000000E+00  0.93827000000E+00 0. -1.
     999902    2    1    2    0    0  0.17617977933E-01  0.14529576949E-01  0.36985990477E-02  0.10207960123E+01  0.10205338394E+01 0.  0.
     999903    2    3    3    0    0  0.47464438624E-01 -0.11691149962E+00 -0.22853435423E-01  0.13013750401E+00  0.22188257315E-01 0.  0.
         14    1    1    2    0    0 -0.17617977933E-01 -0.14529576949E-01 -0.36985990477E-02  0.23133987717E-01  0.00000000000E+00 0. -1.
     999901    1    3    3    0    0 -0.29846460692E-01  0.13144107657E+00  0.26552034471E-01  0.89065850827E+00  0.88000000000E+00 0. -1.
        -11    1    4    4    0    0 -0.21932893362E-04 -0.13708318713E-01  0.19514605133E-02  0.13855966301E-01  0.51100000000E-03 0. -1.
         11    1    4    4    0    0  0.47486371518E-01 -0.10320318090E+00 -0.24804895937E-01  0.11628153771E+00  0.51100000000E-03 0.  1.
</event>
<event>
 8    1  0.1106168E+005  0.1043930E+01  0.7957747E-01            NaN
         13   -1    0    0    0    0  0.00000000000E+00  0.00000000000E+00  0.74505805969E-08  0.10566000000E+00  0.10566000000E+00 0.  1.
     999900   -1    0    0    0    0 -0.00000000000E+00 -0.00000000000E+00 -0.74505805969E-08  0.93827000000E+00  0.93827000000E+00 0. -1.
     999902    2    1    2    0    0 -0.18343232164E-01  0.16611161243E-01  0.10971138331E-01  0.10168602619E+01  0.10164998876E+01 0.  0.
     999903    2    3    3    0    0 -0.11856415068E+00  0.50178500324E-01  0.87956356292E-02  0.13053316000E+00  0.19652046544E-01 0.  0.
         14    1    1    2    0    0  0.18343232164E-01 -0.16611161243E-01 -0.10971138331E-01  0.27069738091E-01  0.00000000000E+00 0. -1.
     999901    1    3    3    0    0  0.10022091851E+00 -0.33567339081E-01  0.21755027017E-02  0.88632710191E+00  0.88000000000E+00 0. -1.
        -11    1    4    4    0    0 -0.65247411403E-01  0.33937489254E-01 -0.28046364890E-02  0.73600984902E-01  0.51100000000E-03 0.  1.
         11    1    4    4    0    0 -0.53316739275E-01  0.16241011070E-01  0.11600272118E-01  0.56932175101E-01  0.51100000000E-03 0. -1.
</event>
<event>
 8    1  0.1106168E+005  0.1043930E+01  0.7957747E-01            NaN
         13   -1    0    0    0    0  0.00000000000E+00  0.00000000000E+00  0.74505805969E-08  0.10566000000E+00  0.10566000000E+00 0.  1.
     999900   -1    0    0    0    0 -0.00000000000E+00 -0.00000000000E+00 -0.74505805969E-08  0.93827000000E+00  0.93827000000E+00 0.  1.
     999902    2    1    2    0    0 -0.46785422530E-02 -0.16844508004E-01  0.15758023493E-01  0.10203940379E+01  0.10201225667E+01 0.  0.
     999903    2    3    3    0    0 -0.60298313557E-01 -0.11466602402E+00 -0.19553255524E-01  0.13252608917E+00  0.19916094706E-01 0.  0.
         14    1    1    2    0    0  0.46785422530E-02  0.16844508004E-01 -0.15758023493E-01  0.23535962099E-01  0.00000000000E+00 0. -1.
     999901    1    3    3    0    0  0.55619771304E-01  0.97821516011E-01  0.35311279017E-01  0.88786794873E+00  0.88000000000E+00 0.  1.
        -11    1    4    4    0    0 -0.16518711930E-01 -0.47903917180E-01 -0.16286508172E-02  0.50700756893E-01  0.51100000000E-03 0. -1.
         11    1    4    4    0    0 -0.43779601627E-01 -0.66762106835E-01 -0.17924604707E-01  0.81825332279E-01  0.51100000000E-03 0.  1.
</event>
<event>
 8    1  0.1106168E+005  0.1043930E+01  0.7957747E-01            NaN
         13   -1    0    0    0    0  0.00000000000E+00  0.00000000000E+00  0.74505805969E-08  0.10566000000E+00  0.10566000000E+00 0. -1.
     999900   -1    0    0    0    0 -0.00000000000E+00 -0.00000000000E+00 -0.74505805969E-08  0.93827000000E+00  0.93827000000E+00 0.  1.
     999902    2    1    2    0    0  0.34181430890E-02 -0.12404536268E-01 -0.19839073527E-01  0.10202837517E+01  0.10200097004E+01 0.  0.
     999903    2    3    3    0    0  0.77849886350E-01  0.74981077558E-01  0.66916747678E-01  0.12859832371E+00  0.19414194391E-01 0.  0.
         14    1    1    2    0    0 -0.34181430890E-02  0.12404536268E-01  0.19839073527E-01  0.23646248342E-01  0.00000000000E+00 0. -1.
     999901    1    3    3    0    0 -0.74431743261E-01 -0.87385613826E-01 -0.86755821206E-01  0.89168542795E+00  0.88000000000E+00 0.  1.
        -11    1    4    4    0    0  0.15076527132E-01  0.13566293612E-01  0.22109000521E-01  0.30006916165E-01  0.51100000000E-03 0.  1.
         11    1    4    4    0    0  0.62773359218E-01  0.61414783946E-01  0.44807747158E-01  0.98591407541E-01  0.51100000000E-03 0. -1.
</event>
<event>
 8    1  0.1106168E+005  0.1043930E+01  0.7957747E-01            NaN
         13   -1    0    0    0    0  0.00000000000E+00  0.00000000000E+00  0.74505805969E-08  0.10566000000E+00  0.10566000000E+00 0. -1.
     999900   -1    0    0    0    0 -0.00000000000E+00 -0.00000000000E+00 -0.74505805969E-08  0.93827000000E+00  0.93827000000E+00 0.  1.
     999902    2    1    2    0    0 -0.39564162630E-02 -0.13105468089E-01  0.20446381467E-01  0.10193238821E+01  0.10190268473E+01 0.  0.
     999903    2    3    3    0    0 -0.11288528254E+00  0.22804268914E-01  0.59286049292E-01  0.13103140384E+00  0.19780582807E-01 0.  0.
         14    1    1    2    0    0  0.39564162630E-02  0.13105468089E-01 -0.20446381467E-01  0.24606117910E-01  0.00000000000E+00 0.  1.
     999901    1    3    3    0    0  0.10892886628E+00 -0.35909737003E-01 -0.38839667825E-01  0.88829247825E+00  0.88000000000E+00 0. -1.
        -11    1    4    4    0    0 -0.67144778368E-01  0.19338287626E-01  0.26890974716E-01  0.74871732133E-01  0.51100000000E-03 0.  1.
         11    1    4    4    0    0 -0.45740504173E-01  0.34659812876E-02  0.32395074577E-01  0.56159671706E-01  0.51100000000E-03 0. -1.
</event>
<event>
 8    1  0.1106168E+005  0.1043930E+01  0.7957747E-01            NaN
         13   -1    0    0    0    0  0.00000000000E+00  0.00000000000E+00  0.74505805969E-08  0.10566000000E+00  0.10566000000E+00 0. -1.
     999900   -1    0    0    0    0 -0.00000000000E+00 -0.00000000000E+00 -0.74505805969E-08  0.93827000000E+00  0.93827000000E+00 0.  1.
     999902    2    1    2    0    0  0.22642610355E-01 -0.71994921167E-02  0.24627408828E-02  0.10200430667E+01  0.10197633413E+01 0.  0.
     999903    2    3    3    0    0 -0.17501078777E-01 -0.99876576508E-01  0.80314836396E-01  0.13085157633E+00  0.19749526301E-01 0.  0.
         14    1    1    2    0    0 -0.22642610355E-01  0.71994921167E-02 -0.24627408828E-02  0.23886933313E-01  0.00000000000E+00 0. -1.
     999901    1    3    3    0    0  0.40143689132E-01  0.92677084392E-01 -0.77852095514E-01  0.88919149036E+00  0.88000000000E+00 0. -1.
        -11    1    4    4    0    0  0.30594487677E-02 -0.36057274548E-01  0.30327710242E-01  0.47217776357E-01  0.51100000000E-03 0.  1.
         11    1    4    4    0    0 -0.20560527545E-01 -0.63819301960E-01  0.49987126154E-01  0.83633799972E-01  0.51100000000E-03 0. -1.
</event>
<event>
 8    1  0.1106168E+005  0.1043930E+01  0.7957747E-01            NaN
         13   -1    0    0    0    0  0.00000000000E+00  0.00000000000E+00  0.74505805969E-08  0.10566000000E+00  0.10566000000E+00 0.  1.
     999900   -1    0    0    0    0 -0.00000000000E+00 -0.00000000000E+00 -0.74505805969E-08  0.93827000000E+00  0.93827000000E+00 0.  1.
     999902    2    1    2    0    0 -0.58145178352E-03  0.19864864692E-01 -0.13317240608E-01  0.10200072110E+01  0.10197266353E+01 0.  0.
     999903    2    3    3    0    0  0.10858576945E+00 -0.31818898793E-01  0.58474998074E-01  0.12886029881E+00  0.19553505111E-01 0.  0.
         14    1    1    2    0    0  0.58145178352E-03 -0.19864864692E-01  0.13317240608E-01  0.23922788985E-01  0.00000000000E+00 0.  1.
     999901    1    3    3    0    0 -0.10916722123E+00  0.51683763485E-01 -0.71792238683E-01  0.89114691221E+00  0.88000000000E+00 0.  1.
        -11    1    4    4    0    0  0.41912783858E-01 -0.54265472503E-02  0.29380444758E-01  0.51474270475E-01  0.51100000000E-03 0. -1.
         11    1    4    4    0    0  0.66672985591E-01 -0.26392351543E-01  0.29094553316E-01  0.77386028334E-01  0.51100000000E-03 0.  1.
</event>
<event>
 8    1  0.1106168E+005  0.1043930E+01  0.7957747E-01            NaN
         13   -1    0    0    0    0  0.00000000000E+00  0.00000000000E+00  0.74505805969E-08  0.10566000000E+00  0.10566000000E+00 0.  1.
     999900   -1    0    0    0    0 -0.00000000000E+00 -0.00000000000E+00 -0.74505805969E-08  0.93827000000E+00  0.93827000000E+00 0. -1.
     999902    2    1    2    0    0 -0.10930326478E-01  0.20406474927E-01 -0.42667700416E-02  0.10203906376E+01  0.10201190870E+01 0.  0.
     999903    2    3    3    0    0 -0.71875745188E-01 -0.10453656937E+00 -0.17078552054E-01  0.12938600790E+00  0.18842638280E-01 0.  0.
         14    1    1    2    0    0  0.10930326478E-01 -0.20406474927E-01  0.42667700416E-02  0.23539362405E-01  0.00000000000E+00 0.  1.
     999901    1    3    3    0    0  0.60945418710E-01  0.12494304430E+00  0.12811782012E-01  0.89100462970E+00  0.88000000000E+00 0.  1.
        -11    1    4    4    0    0 -0.36578321461E-01 -0.46386803579E-01  0.68054964918E-03  0.59079890115E-01  0.51100000000E-03 0.  1.
         11    1    4    4    0    0 -0.35297423727E-01 -0.58149765793E-01 -0.17759101703E-01  0.70306117784E-01  0.51100000000E-03 0. -1.
</event>
<event>
 8    1  0.1106168E+005  0.1043930E+01  0.7957747E-01            NaN
         13   -1    0    0    0    0  0.00000000000E+00  0.00000000000E+00  0.74505805969E-08  0.10566000000E+00  0.10566000000E+00 0.  1.
     999900   -1    0    0    0    0 -0.00000000000E+00 -0.00000000000E+00 -0.74505805969E-08  0.93827000000E+00  0.93827000000E+00 0.  1.
     999902    2    1    2    0    0  0.79445433841E-02 -0.18360981482E-01  0.11720450977E-01  0.10207435733E+01  0.10204801968E+01 0.  0.
     999903    2    3    3    0    0  0.22789740122E-01 -0.12642871602E+00 -0.28121640177E-01  0.13311391669E+00  0.20612997898E-01 0.  0.
         14    1    1    2    0    0 -0.79445433841E-02  0.18360981482E-01 -0.11720450977E-01  0.23186426669E-01  0.00000000000E+00 0. -1.
     999901    1    3    3    0    0 -0.14845196738E-01  0.10806773454E+00  0.39842091153E-01  0.88762965664E+00  0.88000000000E+00 0.  1.
        -11    1    4    4    0    0  0.49869390447E-04 -0.34469265939E-01 -0.64590797061E-03  0.34479140062E-01  0.51100000000E-03 0.  1.
         11    1    4    4    0    0  0.22739870731E-01 -0.91959450080E-01 -0.27475732206E-01  0.98634776632E-01  0.51100000000E-03 0. -1.
</event>
<event>
 8    1  0.1106168E+005  0.1043930E+01  0.7957747E-01            NaN
         13   -1    0    0    0    0  0.00000000000E+00  0.00000000000E+00  0.74505805969E-08  0.10566000000E+00  0.10566000000E+00 0. -1.
     999900   -1    0    0    0    0 -0.00000000000E+00 -0.00000000000E+00 -0.74505805969E-08  0.93827000000E+00  0.93827000000E+00 0.  1.
     999902    2    1    2    0    0  0.43434572730E-02 -0.18017877601E-01  0.58269144972E-02  0.10245016067E+01  0.10243173725E+01 0.  0.
     999903    2    3    3    0    0  0.12906487506E+00 -0.30051270410E-01 -0.15689027580E-01  0.13536541331E+00  0.22733866966E-01 0.  0.
         14    1    1    2    0    0 -0.43434572730E-02  0.18017877601E-01 -0.58269144972E-02  0.19428393317E-01  0.00000000000E+00 0. -1.
     999901    1    3    3    0    0 -0.12472141779E+00  0.12033392809E-01  0.21515942077E-01  0.88913619337E+00  0.88000000000E+00 0.  1.
        -11    1    4    4    0    0  0.35939977200E-01 -0.93878216843E-03  0.27758704022E-02  0.36062859712E-01  0.51100000000E-03 0.  1.
         11    1    4    4    0    0  0.93124897861E-01 -0.29112488242E-01 -0.18464897982E-01  0.99302553601E-01  0.51100000000E-03 0. -1.
</event>
<event>
 8    1  0.1106168E+005  0.1043930E+01  0.7957747E-01            NaN
         13   -1    0    0    0    0  0.00000000000E+00  0.00000000000E+00  0.74505805969E-08  0.10566000000E+00  0.10566000000E+00 0. -1.
     999900   -1    0    0    0    0 -0.00000000000E+00 -0.00000000000E+00 -0.74505805969E-08  0.93827000000E+00  0.93827000000E+00 0. -1.
     999902    2    1    2    0    0  0.10241283528E-01  0.19361136971E-01 -0.70168657403E-02  0.10209305670E+01  0.10206714695E+01 0.  0.
     999903    2    3    3    0    0  0.12393450967E+00 -0.51013611514E-02  0.40499975004E-01  0.13200851551E+00  0.20005339765E-01 0.  0.
         14    1    1    2    0    0 -0.10241283528E-01 -0.19361136971E-01  0.70168657403E-02  0.22999432991E-01  0.00000000000E+00 0. -1.
     999901    1    3    3    0    0 -0.11369322614E+00  0.24462498122E-01 -0.47516840744E-01  0.88892205150E+00  0.88000000000E+00 0. -1.
        -11    1    4    4    0    0  0.74918895932E-01  0.66716099872E-02  0.25178333244E-01  0.79319360394E-01  0.51100000000E-03 0.  1.
         11    1    4    4    0    0  0.49015613739E-01 -0.11772971139E-01  0.15321641760E-01  0.52689155116E-01  0.51100000000E-03 0. -1.
</event>
<event>
 8    1  0.1106168E+005  0.1043930E+01  0.7957747E-01            NaN
         13   -1    0    0    0    0  0.00000000000E+00  0.00000000000E+00  0.74505805969E-08  0.10566000000E+00  0.10566000000E+00 0. -1.
     999900   -1    0    0    0    0 -0.00000000000E+00 -0.00000000000E+00 -0.74505805969E-08  0.93827000000E+00  0.93827000000E+00 0.  1.
     999902    2    1    2    0    0 -0.40748486082E-02  0.18810493528E-01  0.12188804616E-01  0.10211482965E+01  0.10208941362E+01 0.  0.
     999903    2    3    3    0    0  0.82744951519E-01  0.42473695748E-01  0.92781893370E-01  0.13289558986E+00  0.20050342516E-01 0.  0.
         14    1    1    2    0    0  0.40748486082E-02 -0.18810493528E-01 -0.12188804616E-01  0.22781703534E-01  0.00000000000E+00 0.  1.
     999901    1    3    3    0    0 -0.86819800127E-01 -0.23663202220E-01 -0.80593088755E-01  0.88825270660E+00  0.88000000000E+00 0.  1.
        -11    1    4    4    0    0  0.53739154859E-01  0.28355279603E-01  0.73283347473E-01  0.95197840228E-01  0.51100000000E-03 0. -1.
         11    1    4    4    0    0  0.29005796660E-01  0.14118416145E-01  0.19498545898E-01  0.37697749634E-01  0.51100000000E-03 0.  1.
</event>
<event>
 8    1  0.1106168E+005  0.1043930E+01  0.7957747E-01            NaN
         13   -1    0    0    0    0  0.00000000000E+00  0.00000000000E+00  0.74505805969E-08  0.10566000000E+00  0.10566000000E+00 0.  1.
     999900   -1    0    0    0    0 -0.00000000000E+00 -0.00000000000E+00 -0.74505805969E-08  0.93827000000E+00  0.93827000000E+00 0.  1.
     999902    2    1    2    0    0 -0.87166436600E-02 -0.16619966201E-01 -0.15078835080E-01  0.10198556481E+01  0.10195714632E+01 0.  0.
     999903    2    3    3    0    0 -0.50353177220E-03 -0.13044198749E+00  0.82840273106E-02  0.13217961986E+00  0.19684032950E-01 0.  0.
         14    1    1    2    0    0  0.87166436600E-02  0.16619966201E-01  0.15078835080E-01  0.24074351925E-01  0.00000000000E+00 0.  1.
     999901    1    3    3    0    0 -0.82131118878E-02  0.11382202129E+00 -0.23362862391E-01  0.88767602822E+00  0.88000000000E+00 0. -1.
        -11    1    4    4    0    0 -0.48914852560E-02 -0.89230523848E-01  0.13591593054E-01  0.90393614470E-01  0.51100000000E-03 0. -1.
         11    1    4    4    0    0  0.43879534838E-02 -0.41211463638E-01 -0.53075657439E-02  0.41786005385E-01  0.51100000000E-03 0.  1.
</event>
<event>
 8    1  0.1106168E+005  0.1043930E+01  0.7957747E-01            NaN
         13   -1    0    0    0    0  0.00000000000E+00  0.00000000000E+00  0.74505805969E-08  0.10566000000E+00  0.10566000000E+00 0. -1.
     999900   -1    0    0    0    0 -0.00000000000E+00 -0.00000000000E+00 -0.74505805969E-08  0.93827000000E+00  0.93827000000E+00 0.  1.
     999902    2    1    2    0    0  0.17995565031E-01  0.21070707101E-02 -0.15295358495E-01  0.10202186504E+01  0.10199430702E+01 0.  0.
     999903    2    3    3    0    0 -0.12011652412E-01 -0.29238990833E-01 -0.12675890552E+00  0.13212680213E+00  0.19760398147E-01 0.  0.
         14    1    1    2    0    0 -0.17995565031E-01 -0.21070707101E-02  0.15295358495E-01  0.23711349588E-01  0.00000000000E+00 0. -1.
     999901    1    3    3    0    0  0.30007217443E-01  0.31346061543E-01  0.11146354702E+00  0.88809184828E+00  0.88000000000E+00 0. -1.
        -11    1    4    4    0    0 -0.13035589301E-01 -0.78524806258E-02 -0.65003036789E-01  0.66762593967E-01  0.51100000000E-03 0. -1.
         11    1    4    4    0    0  0.10239368890E-02 -0.21386510207E-01 -0.61755868726E-01  0.65364208163E-01  0.51100000000E-03 0.  1.
</event>
<event>
 8    1  0.1106168E+005  0.1043930E+01  0.7957747E-01            NaN
         13   -1    0    0    0    0  0.00000000000E+00  0.00000000000E+00  0.74505805969E-08  0.10566000000E+00  0.10566000000E+00 0.  1.
     999900   -1    0    0    0    0 -0.00000000000E+00 -0.00000000000E+00 -0.74505805969E-08  0.93827000000E+00  0.93827000000E+00 0.  1.
     999902    2    1    2    0    0 -0.21949370865E-03 -0.21691687785E-01  0.10580014169E-01  0.10197946691E+01  0.10195090255E+01 0.  0.
     999903    2    3    3    0    0 -0.12563838228E+00 -0.20808030248E-01  0.21795467867E-01  0.13083096635E+00  0.20584511434E-01 0.  0.
         14    1    1    2    0    0  0.21949370865E-03  0.21691687785E-01 -0.10580014169E-01  0.24135330871E-01  0.00000000000E+00 0. -1.
     999901    1    3    3    0    0  0.12541888857E+00 -0.88365753765E-03 -0.11215453698E-01  0.88896370278E+00  0.88000000000E+00 0. -1.
        -11    1    4    4    0    0 -0.11282573300E+00 -0.12580709090E-01  0.21775608177E-01  0.11559566817E+00  0.51100000000E-03 0. -1.
         11    1    4    4    0    0 -0.12812649284E-01 -0.82273211581E-02  0.19859689814E-04  0.15235298176E-01  0.51100000000E-03 0.  1.
</event>
<event>
 8    1  0.1106168E+005  0.1043930E+01  0.7957747E-01            NaN
         13   -1    0    0    0    0  0.00000000000E+00  0.00000000000E+00  0.74505805969E-08  0.10566000000E+00  0.10566000000E+00 0.  1.
     999900   -1    0    0    0    0 -0.00000000000E+00 -0.00000000000E+00 -0.74505805969E-08  0.93827000000E+00  0.93827000000E+00 0.  1.
     999902    2    1    2    0    0  0.63582699279E-02 -0.19694365301E-01 -0.22861573378E-01  0.10130925689E+01  0.10126231313E+01 0.  0.
     999903    2    3    3    0    0  0.53871957534E-01  0.93506879318E-01  0.51938863128E-01  0.12142717334E+00  0.20029693807E-01 0.  0.
         14    1    1    2    0    0 -0.63582699279E-02  0.19694365301E-01  0.22861573378E-01  0.30837431125E-01  0.00000000000E+00 0.  1.
     999901    1    3    3    0    0 -0.47513687607E-01 -0.11320124462E+00 -0.74800436506E-01  0.89166539554E+00  0.88000000000E+00 0.  1.
        -11    1    4    4    0    0  0.47945698969E-01  0.68833887675E-01  0.44603215994E-01  0.95008431942E-01  0.51100000000E-03 0. -1.
         11    1    4    4    0    0  0.59262585658E-02  0.24672991643E-01  0.73356471339E-02  0.26418741398E-01  0.51100000000E-03 0.  1.
</event>
<event>
 8    1  0.1106168E+005  0.1043930E+01  0.7957747E-01            NaN
         13   -1    0    0    0    0  0.00000000000E+00  0.00000000000E+00  0.74505805969E-08  0.10566000000E+00  0.10566000000E+00 0. -1.
     999900   -1    0    0    0    0 -0.00000000000E+00 -0.00000000000E+00 -0.74505805969E-08  0.93827000000E+00  0.93827000000E+00 0. -1.
     999902    2    1    2    0    0  0.21937106704E-01 -0.91554729198E-02  0.43143528564E-02  0.10197706752E+01  0.10194844565E+01 0.  0.
     999903    2    3    3    0    0  0.15797787558E-01 -0.12854863428E+00  0.13190445178E-01  0.13164275465E+00  0.19532166840E-01 0.  0.
         14    1    1    2    0    0 -0.21937106704E-01  0.91554729198E-02 -0.43143528564E-02  0.24159324814E-01  0.00000000000E+00 0. -1.
     999901    1    3    3    0    0  0.61393191460E-02  0.11939316136E+00 -0.88760923215E-02  0.88812792053E+00  0.88000000000E+00 0.  1.
        -11    1    4    4    0    0  0.15446698487E-02 -0.66012924207E-01  0.13979136620E-01  0.67496441009E-01  0.51100000000E-03 0. -1.
         11    1    4    4    0    0  0.14253117709E-01 -0.62535710071E-01 -0.78869144244E-03  0.64146313641E-01  0.51100000000E-03 0.  1.
</event>
<event>
 8    1  0.1106168E+005  0.1043930E+01  0.7957747E-01            NaN
         13   -1    0    0    0    0  0.00000000000E+00  0.00000000000E+00  0.74505805969E-08  0.10566000000E+00  0.10566000000E+00 0. -1.
     999900   -1    0    0    0    0 -0.00000000000E+00 -0.00000000000E+00 -0.74505805969E-08  0.93827000000E+00  0.93827000000E+00 0. -1.
     999902    2    1    2    0    0 -0.20715385588E-01 -0.12767152182E-01 -0.54407219302E-02  0.10189955092E+01  0.10186903941E+01 0.  0.
     999903    2    3    3    0    0 -0.66657297376E-01  0.10675009779E+00  0.21686198739E-01  0.12931528458E+00  0.20331574960E-01 0.  0.
         14    1    1    2    0    0  0.20715385588E-01  0.12767152182E-01  0.54407219302E-02  0.24934490771E-01  0.00000000000E+00 0. -1.
     999901    1    3    3    0    0  0.45941911788E-01 -0.11951724997E+00 -0.27126920669E-01  0.88968022464E+00  0.88000000000E+00 0. -1.
        -11    1    4    4    0    0 -0.33380807565E-01  0.45781622856E-01  0.38649372388E-03  0.56662560862E-01  0.51100000000E-03 0. -1.
         11    1    4    4    0    0 -0.33276489811E-01  0.60968474931E-01  0.21299705015E-01  0.72652723722E-01  0.51100000000E-03 0.  1.
</event>
<event>
 8    1  0.1106168E+005  0.1043930E+01  0.7957747E-01            NaN
         13   -1    0    0    0    0  0.00000000000E+00  0.00000000000E+00  0.74505805969E-08  0.10566000000E+00  0.10566000000E+00 0. -1.
     999900   -1    0    0    0    0 -0.00000000000E+00 -0.00000000000E+00 -0.74505805969E-08  0.93827000000E+00  0.93827000000E+00 0.  1.
     999902    2    1    2    0    0 -0.13280946608E-01  0.22163309891E-02  0.19011837661E-01  0.10206330981E+01  0.10203671767E+01 0.  0.
     999903    2    3    3    0    0 -0.71841747336E-02 -0.10361300965E+00  0.79312450317E-01  0.13222261650E+00  0.20126783252E-01 0.  0.
         14    1    1    2    0    0  0.13280946608E-01 -0.22163309891E-02 -0.19011837661E-01  0.23296901878E-01  0.00000000000E+00 0.  1.
     999901    1    3    3    0    0 -0.60967718741E-02  0.10582934064E+00 -0.60300612656E-01  0.88841048162E+00  0.88000000000E+00 0.  1.
        -11    1    4    4    0    0 -0.59590068122E-02 -0.52495134385E-01  0.52504441770E-01  0.74486417708E-01  0.51100000000E-03 0.  1.
         11    1    4    4    0    0 -0.12251679214E-02 -0.51117875264E-01  0.26808008546E-01  0.57736198794E-01  0.51100000000E-03 0. -1.
</event>
<event>
 8    1  0.1106168E+005  0.1043930E+01  0.7957747E-01            NaN
         13   -1    0    0    0    0  0.00000000000E+00  0.00000000000E+00  0.74505805969E-08  0.10566000000E+00  0.10566000000E+00 0. -1.
     999900   -1    0    0    0    0 -0.00000000000E+00 -0.00000000000E+00 -0.74505805969E-08  0.93827000000E+00  0.93827000000E+00 0. -1.
     999902    2    1    2    0    0 -0.11266302169E-01 -0.72979999028E-02 -0.18780370258E-01  0.10208455318E+01  0.10205844928E+01 0.  0.
     999903    2    3    3    0    0 -0.62935150514E-01 -0.11048101014E+00  0.29045596064E-01  0.13202399368E+00  0.20489057697E-01 0.  0.
         14    1    1    2    0    0  0.11266302169E-01  0.72979999028E-02  0.18780370258E-01  0.23084468245E-01  0.00000000000E+00 0. -1.
     999901    1    3    3    0    0  0.51668848345E-01  0.10318301024E+00 -0.47825966322E-01  0.88882153807E+00  0.88000000000E+00 0. -1.
        -11    1    4    4    0    0 -0.16528029017E-01 -0.33828210709E-01  0.18011083682E-01  0.41739475791E-01  0.51100000000E-03 0. -1.
         11    1    4    4    0    0 -0.46407121497E-01 -0.76652799429E-01  0.11034512383E-01  0.90284517889E-01  0.51100000000E-03 0.  1.
</event>
<event>
 8    1  0.1106168E+005  0.1043930E+01  0.7957747E-01            NaN
         13   -1    0    0    0    0  0.00000000000E+00  0.00000000000E+00  0.74505805969E-08  0.10566000000E+00  0.10566000000E+00 0. -1.
     999900   -1    0    0    0    0 -0.00000000000E+00 -0.00000000000E+00 -0.74505805969E-08  0.93827000000E+00  0.93827000000E+00 0. -1.
     999902    2    1    2    0    0  0.22067772447E-01 -0.55604804530E-02  0.56490498878E-02  0.10204818170E+01  0.10202123904E+01 0.  0.
     999903    2    3    3    0    0 -0.87925715562E-01 -0.87514079956E-01  0.31108460314E-01  0.12949183864E+00  0.20267074855E-01 0.  0.
         14    1    1    2    0    0 -0.22067772447E-01  0.55604804530E-02 -0.56490498878E-02  0.23448183048E-01  0.00000000000E+00 0. -1.
     999901    1    3    3    0    0  0.10999348801E+00  0.81953599503E-01 -0.25459410426E-01  0.89098997831E+00  0.88000000000E+00 0. -1.
        -11    1    4    4    0    0 -0.27274561695E-01 -0.16588174413E-01  0.12755150885E-01  0.34380579417E-01  0.51100000000E-03 0.  1.
         11    1    4    4    0    0 -0.60651153867E-01 -0.70925905543E-01  0.18353309429E-01  0.95111259221E-01  0.51100000000E-03 0. -1.
</event>
<event>
 8    1  0.1106168E+005  0.1043930E+01  0.7957747E-01            NaN
         13   -1    0    0    0    0  0.00000000000E+00  0.00000000000E+00  0.74505805969E-08  0.10566000000E+00  0.10566000000E+00 0. -1.
     999900   -1    0    0    0    0 -0.00000000000E+00 -0.00000000000E+00 -0.74505805969E-08  0.93827000000E+00  0.93827000000E+00 0. -1.
     999902    2    1    2    0    0 -0.13490316615E-01 -0.91194359714E-02 -0.21966417681E-01  0.10165863305E+01  0.10162185253E+01 0.  0.
     999903    2    3    3    0    0  0.40728491796E-01 -0.61832794849E-01 -0.10435545558E+00  0.12950892073E+00  0.20009869495E-01 0.  0.
         14    1    1    2    0    0  0.13490316615E-01  0.91194359714E-02  0.21966417681E-01  0.27343669478E-01  0.00000000000E+00 0. -1.
     999901    1    3    3    0    0 -0.54218808411E-01  0.52713358878E-01  0.82389037900E-01  0.88707740979E+00  0.88000000000E+00 0. -1.
        -11    1    4    4    0    0  0.24395418602E-01 -0.48538145964E-01 -0.85138069266E-01  0.10099425737E+00  0.51100000000E-03 0.  1.
         11    1    4    4    0    0  0.16333073194E-01 -0.13294648885E-01 -0.19217386315E-01  0.28514663363E-01  0.51100000000E-03 0. -1.
</event>
<event>
 8    1  0.1106168E+005  0.1043930E+01  0.7957747E-01            NaN
         13   -1    0    0    0    0  0.00000000000E+00  0.00000000000E+00  0.74505805969E-08  0.10566000000E+00  0.10566000000E+00 0.  1.
     999900   -1    0    0    0    0 -0.00000000000E+00 -0.00000000000E+00 -0.74505805969E-08  0.93827000000E+00  0.93827000000E+00 0. -1.
     999902    2    1    2    0    0  0.90304429662E-02  0.24215554778E-02 -0.17332033513E-01  0.10242370516E+01  0.10240477165E+01 0.  0.
     999903    2    3    3    0    0 -0.15492240468E-01  0.12406074441E+00  0.43088189868E-01  0.13348003777E+00  0.18145262703E-01 0.  0.
         14    1    1    2    0    0 -0.90304429662E-02 -0.24215554778E-02  0.17332033513E-01  0.19692948403E-01  0.00000000000E+00 0.  1.
     999901    1    3    3    0    0  0.24522683434E-01 -0.12163918893E+00 -0.60420223381E-01  0.89075701383E+00  0.88000000000E+00 0. -1.
        -11    1    4    4    0    0  0.85411169408E-03  0.57184280423E-01  0.15029159377E-01  0.59134661467E-01  0.51100000000E-03 0. -1.
         11    1    4    4    0    0 -0.16346352162E-01  0.66876463988E-01  0.28059030491E-01  0.74345376303E-01  0.51100000000E-03 0.  1.
</event>
<event>
 8    1  0.1106168E+005  0.1043930E+01  0.7957747E-01            NaN
         13   -1    0    0    0    0  0.00000000000E+00  0.00000000000E+00  0.74505805969E-08  0.10566000000E+00  0.10566000000E+00 0. -1.
     999900   -1    0    0    0    0 -0.00000000000E+00 -0.00000000000E+00 -0.74505805969E-08  0.93827000000E+00  0.93827000000E+00 0.  1.
     999902    2    1    2    0    0 -0.16218247606E-01  0.44422329255E-03 -0.17683300486E-01  0.10199314999E+01  0.10196491242E+01 0.  0.
     999903    2    3    3    0    0 -0.97206447344E-01  0.84733433532E-01  0.17756044061E-01  0.13149483555E+00  0.18621667845E-01 0.  0.
         14    1    1    2    0    0  0.16218247606E-01 -0.44422329255E-03  0.17683300486E-01  0.23998500074E-01  0.00000000000E+00 0. -1.
     999901    1    3    3    0    0  0.80988199738E-01 -0.84289210239E-01 -0.35439344546E-01  0.88843666437E+00  0.88000000000E+00 0.  1.
        -11    1    4    4    0    0 -0.44966788135E-01  0.46932192617E-01  0.16220625739E-01  0.66992630635E-01  0.51100000000E-03 0. -1.
         11    1    4    4    0    0 -0.52239659209E-01  0.37801240914E-01  0.15354183213E-02  0.64502204918E-01  0.51100000000E-03 0.  1.
</event>
<event>
 8    1  0.1106168E+005  0.1043930E+01  0.7957747E-01            NaN
         13   -1    0    0    0    0  0.00000000000E+00  0.00000000000E+00  0.74505805969E-08  0.10566000000E+00  0.10566000000E+00 0.  1.
     999900   -1    0    0    0    0 -0.00000000000E+00 -0.00000000000E+00 -0.74505805969E-08  0.93827000000E+00  0.93827000000E+00 0.  1.
     999902    2    1    2    0    0  0.70994192946E-02  0.19420072434E-01  0.11892927578E-01  0.10200766419E+01  0.10197977116E+01 0.  0.
     999903    2    3    3    0    0  0.11319343052E+00 -0.42067858637E-01  0.45423433157E-01  0.13094166916E+00  0.22360120761E-01 0.  0.
         14    1    1    2    0    0 -0.70994192946E-02 -0.19420072434E-01 -0.11892927578E-01  0.23853358130E-01  0.00000000000E+00 0. -1.
     999901    1    3    3    0    0 -0.10609401123E+00  0.61487931071E-01 -0.33530505579E-01  0.88913497271E+00  0.88000000000E+00 0. -1.
        -11    1    4    4    0    0  0.40785510922E-01 -0.42348805652E-02  0.12639877562E-01  0.42911766921E-01  0.51100000000E-03 0. -1.
         11    1    4    4    0    0  0.72407919599E-01 -0.37832978072E-01  0.32783555595E-01  0.88029902243E-01  0.51100000000E-03 0.  1.
</event>
<event>
 8    1  0.1106168E+005  0.1043930E+01  0.7957747E-01            NaN
         13   -1    0    0    0    0  0.00000000000E+00  0.00000000000E+00  0.74505805969E-08  0.10566000000E+00  0.10566000000E+00 0.  1.
     999900   -1    0    0    0    0 -0.00000000000E+00 -0.00000000000E+00 -0.74505805969E-08  0.93827000000E+00  0.93827000000E+00 0.  1.
     999902    2    1    2    0    0  0.15334205314E-01  0.18779110723E-01  0.23074720781E-02  0.10195760007E+01  0.10192850946E+01 0.  0.
     999903    2    3    3    0    0 -0.73103537880E-01  0.83325574469E-01 -0.65971368490E-01  0.13016637607E+00  0.17429440250E-01 0.  0.
         14    1    1    2    0    0 -0.15334205314E-01 -0.18779110723E-01 -0.23074720781E-02  0.24353999251E-01  0.00000000000E+00 0. -1.
     999901    1    3    3    0    0  0.88437743194E-01 -0.64546463746E-01  0.68278840568E-01  0.88940962468E+00  0.88000000000E+00 0. -1.
        -11    1    4    4    0    0 -0.15776313041E-01  0.29427973089E-01 -0.22541489079E-01  0.40289918146E-01  0.51100000000E-03 0.  1.
         11    1    4    4    0    0 -0.57327224839E-01  0.53897601380E-01 -0.43429879411E-01  0.89876457923E-01  0.51100000000E-03 0. -1.
</event>
<event>
 8    1  0.1106168E+005  0.1043930E+01  0.7957747E-01            NaN
         13   -1    0    0    0    0  0.00000000000E+00  0.00000000000E+00  0.74505805969E-08  0.10566000000E+00  0.10566000000E+00 0. -1.
     999900   -1    0    0    0    0 -0.00000000000E+00 -0.00000000000E+00 -0.74505805969E-08  0.93827000000E+00  0.93827000000E+00 0. -1.
     999902    2    1    2    0    0 -0.16351631928E-02 -0.23026451609E-01  0.12217072925E-02  0.10208132571E+01  0.10205514794E+01 0.  0.
     999903    2    3    3    0    0  0.11452644950E+00 -0.49976226186E-01 -0.37291496081E-01  0.13193583169E+00  0.20061834066E-01 0.  0.
         14    1    1    2    0    0  0.16351631928E-02  0.23026451609E-01 -0.12217072925E-02  0.23116742873E-01  0.00000000000E+00 0. -1.
     999901    1    3    3    0    0 -0.11616161269E+00  0.26949774578E-01  0.38513203374E-01  0.88887742543E+00  0.88000000000E+00 0.  1.
        -11    1    4    4    0    0  0.86634385420E-01 -0.35102140373E-01 -0.36384813771E-01  0.10030848813E+00  0.51100000000E-03 0.  1.
         11    1    4    4    0    0  0.27892064077E-01 -0.14874085814E-01 -0.90668231006E-03  0.31627343567E-01  0.51100000000E-03 0. -1.
</event>
<event>
 8    1  0.1106168E+005  0.1043930E+01  0.7957747E-01            NaN
         13   -1    0    0    0    0  0.00000000000E+00  0.00000000000E+00  0.74505805969E-08  0.10566000000E+00  0.10566000000E+00 0.  1.
     999900   -1    0    0    0    0 -0.00000000000E+00 -0.00000000000E+00 -0.74505805969E-08  0.93827000000E+00  0.93827000000E+00 0. -1.
     999902    2    1    2    0    0  0.38703582360E-02  0.18711546701E-01 -0.17215700464E-01  0.10182107077E+01  0.10178858302E+01 0.  0.
     999903    2    3    3    0    0 -0.30632065869E-01  0.10550371051E+00 -0.70157737161E-01  0.13168594427E+00  0.18700894213E-01 0.  0.
         14    1    1    2    0    0 -0.38703582360E-02 -0.18711546701E-01  0.17215700464E-01  0.25719292278E-01  0.00000000000E+00 0. -1.
     999901    1    3    3    0    0  0.34502424105E-01 -0.86792163805E-01  0.52942036698E-01  0.88652476345E+00  0.88000000000E+00 0.  1.
        -11    1    4    4    0    0 -0.19798023834E-01  0.54283168695E-01 -0.26745377405E-01  0.63672603880E-01  0.51100000000E-03 0.  1.
         11    1    4    4    0    0 -0.10834042036E-01  0.51220541811E-01 -0.43412359756E-01  0.68013340389E-01  0.51100000000E-03 0. -1.
</event>
<event>
 8    1  0.1106168E+005  0.1043930E+01  0.7957747E-01            NaN
         13   -1    0    0    0    0  0.00000000000E+00  0.00000000000E+00  0.74505805969E-08  0.10566000000E+00  0.10566000000E+00 0. -1.
     999900   -1    0    0    0    0 -0.00000000000E+00 -0.00000000000E+00 -0.74505805969E-08  0.93827000000E+00  0.93827000000E+00 0.  1.
     999902    2    1    2    0    0 -0.28440451181E-02 -0.80860699677E-02  0.19936092019E-01  0.10222292884E+01  0.10219989223E+01 0.  0.
     999903    2    3    3    0    0 -0.13040925949E+00  0.27665462907E-03 -0.12344034254E-01  0.13240637024E+00  0.19298191644E-01 0.  0.
         14    1    1    2    0    0  0.28440451181E-02  0.80860699677E-02 -0.19936092019E-01  0.21700711627E-01  0.00000000000E+00 0.  1.
     999901    1    3    3    0    0  0.12756521437E+00 -0.83627245967E-02  0.32280126273E-01  0.88982291813E+00  0.88000000000E+00 0.  1.
        -11    1    4    4    0    0 -0.42274414399E-01  0.16278006255E-02  0.48908057881E-02  0.42590573487E-01  0.51100000000E-03 0.  1.
         11    1    4    4    0    0 -0.88134845089E-01 -0.13511459964E-02 -0.17234840042E-01  0.89815796754E-01  0.51100000000E-03 0. -1.
</event>
<event>
 8    1  0.1106168E+005  0.1043930E+01  0.7957747E-01            NaN
         13   -1    0    0    0    0  0.00000000000E+00  0.00000000000E+00  0.74505805969E-08  0.10566000000E+00  0.10566000000E+00 0.  1.
     999900   -1    0    0    0    0 -0.00000000000E+00 -0.00000000000E+00 -0.74505805969E-08  0.93827000000E+00  0.93827000000E+00 0. -1.
     999902    2    1    2    0    0 -0.30013289151E-02  0.68520299296E-02  0.16327234746E-01  0.10259706881E+01  0.10258134899E+01 0.  0.
     999903    2    3    3    0    0  0.77912867407E-01 -0.55826019757E-01  0.94884946271E-01  0.13656248085E+00  0.21428923412E-01 0.  0.
         14    1    1    2    0    0  0.30013289151E-02 -0.68520299296E-02 -0.16327234746E-01  0.17959311899E-01  0.00000000000E+00 0. -1.
     999901    1    3    3    0    0 -0.80914196323E-01  0.62678049686E-01 -0.78557711525E-01  0.88940820725E+00  0.88000000000E+00 0. -1.
        -11    1    4    4    0    0  0.68319499839E-02 -0.10749459026E-01  0.20990294513E-01  0.24557687079E-01  0.51100000000E-03 0. -1.
         11    1    4    4    0    0  0.71080917424E-01 -0.45076560731E-01  0.73894651758E-01  0.11200479377E+00  0.51100000000E-03 0.  1.
</event>
<event>
 8    1  0.1106168E+005  0.1043930E+01  0.7957747E-01            NaN
         13   -1    0    0    0    0  0.00000000000E+00  0.00000000000E+00  0.74505805969E-08  0.10566000000E+00  0.10566000000E+00 0. -1.
     999900   -1    0    0    0    0 -0.00000000000E+00 -0.00000000000E+00 -0.74505805969E-08  0.93827000000E+00  0.93827000000E+00 0.  1.
     999902    2    1    2    0    0  0.29416042732E-01  0.10791729284E-01  0.78055093824E-02  0.10116392743E+01  0.10111237957E+01 0.  0.
     999903    2    3    3    0    0 -0.63890735949E-01  0.93944603193E-01  0.40696838859E-01  0.12219990313E+00  0.19208566410E-01 0.  0.
         14    1    1    2    0    0 -0.29416042732E-01 -0.10791729284E-01 -0.78055093824E-02  0.32290725722E-01  0.00000000000E+00 0. -1.
     999901    1    3    3    0    0  0.93306778680E-01 -0.83152873909E-01 -0.32891329477E-01  0.88943937114E+00  0.88000000000E+00 0.  1.
        -11    1    4    4    0    0 -0.57991813470E-01  0.72020220181E-01  0.31276683571E-01  0.97613803331E-01  0.51100000000E-03 0. -1.
         11    1    4    4    0    0 -0.58989224792E-02  0.21924383012E-01  0.94201552883E-02  0.24586099803E-01  0.51100000000E-03 0.  1.
</event>
<event>
 8    1  0.1106168E+005  0.1043930E+01  0.7957747E-01            NaN
         13   -1    0    0    0    0  0.00000000000E+00  0.00000000000E+00  0.74505805969E-08  0.10566000000E+00  0.10566000000E+00 0. -1.
     999900   -1    0    0    0    0 -0.00000000000E+00 -0.00000000000E+00 -0.74505805969E-08  0.93827000000E+00  0.93827000000E+00 0.  1.
     999902    2    1    2    0    0  0.18287389473E-01  0.13190000183E-01 -0.50543027793E-02  0.10208226268E+01  0.10205610637E+01 0.  0.
     999903    2    3    3    0    0 -0.49166891073E-01 -0.41782472206E-01 -0.11134491751E+00  0.13016570777E+00  0.19551538611E-01 0.  0.
         14    1    1    2    0    0 -0.18287389473E-01 -0.13190000183E-01  0.50543027793E-02  0.23107373177E-01  0.00000000000E+00 0.  1.
     999901    1    3    3    0    0  0.67454280546E-01  0.54972472389E-01  0.10629061473E+00  0.89065691906E+00  0.88000000000E+00 0.  1.
        -11    1    4    4    0    0 -0.23918533605E-01 -0.14496292346E-01 -0.64906891703E-01  0.70678175225E-01  0.51100000000E-03 0. -1.
         11    1    4    4    0    0 -0.25248357468E-01 -0.27286179860E-01 -0.46438025804E-01  0.59487532541E-01  0.51100000000E-03 0.  1.
</event>
<event>
 8    1  0.1106168E+005  0.1043930E+01  0.7957747E-01            NaN
         13   -1    0    0    0    0  0.00000000000E+00  0.00000000000E+00  0.74505805969E-08  0.10566000000E+00  0.10566000000E+00 0. -1.
     999900   -1    0    0    0    0 -0.00000000000E+00 -0.00000000000E+00 -0.74505805969E-08  0.93827000000E+00  0.93827000000E+00 0. -1.
     999902    2    1    2    0    0  0.23727173511E-01 -0.44286652893E-02  0.39372379546E-02  0.10194740461E+01  0.10191806694E+01 0.  0.
     999903    2    3    3    0    0 -0.67246054460E-01  0.71275202084E-01 -0.79327668975E-01  0.12765553963E+00  0.20021774636E-01 0.  0.
         14    1    1    2    0    0 -0.23727173511E-01  0.44286652893E-02 -0.39372379546E-02  0.24455953913E-01  0.00000000000E+00 0.  1.
     999901    1    3    3    0    0  0.90973227970E-01 -0.75703867373E-01  0.83264906929E-01  0.89181850646E+00  0.88000000000E+00 0.  1.
        -11    1    4    4    0    0 -0.32045728666E-01  0.48266925412E-01 -0.44679952313E-01  0.73165456837E-01  0.51100000000E-03 0.  1.
         11    1    4    4    0    0 -0.35200325794E-01  0.23008276671E-01 -0.34647716661E-01  0.54490082788E-01  0.51100000000E-03 0. -1.
</event>
<event>
 8    1  0.1106168E+005  0.1043930E+01  0.7957747E-01            NaN
         13   -1    0    0    0    0  0.00000000000E+00  0.00000000000E+00  0.74505805969E-08  0.10566000000E+00  0.10566000000E+00 0.  1.
     999900   -1    0    0    0    0 -0.00000000000E+00 -0.00000000000E+00 -0.74505805969E-08  0.93827000000E+00  0.93827000000E+00 0. -1.
     999902    2    1    2    0    0 -0.24677419513E-02 -0.18710563383E-01  0.15078408084E-01  0.10197735656E+01  0.10194874162E+01 0.  0.
     999903    2    3    3    0    0  0.88390247867E-02  0.36196120773E-01  0.12411568735E+00  0.13127386655E+00  0.20972283501E-01 0.  0.
         14    1    1    2    0    0  0.24677419513E-02  0.18710563383E-01 -0.15078408084E-01  0.24156434397E-01  0.00000000000E+00 0. -1.
     999901    1    3    3    0    0 -0.11306766738E-01 -0.54906684156E-01 -0.10903727927E+00  0.88849969905E+00  0.88000000000E+00 0. -1.
        -11    1    4    4    0    0  0.13929603214E-01  0.28919689832E-01  0.78714152324E-01  0.85009183050E-01  0.51100000000E-03 0. -1.
         11    1    4    4    0    0 -0.50905784268E-02  0.72764309403E-02  0.45401535027E-01  0.46264683504E-01  0.51100000000E-03 0.  1.
</event>
<event>
 8    1  0.1106168E+005  0.1043930E+01  0.7957747E-01            NaN
         13   -1    0    0    0    0  0.00000000000E+00  0.00000000000E+00  0.74505805969E-08  0.10566000000E+00  0.10566000000E+00 0. -1.
     999900   -1    0    0    0    0 -0.00000000000E+00 -0.00000000000E+00 -0.74505805969E-08  0.93827000000E+00  0.93827000000E+00 0.  1.
     999902    2    1    2    0    0 -0.61291425168E-02  0.21220183465E-01  0.40076949258E-02  0.10214817441E+01  0.10212350510E+01 0.  0.
     999903    2    3    3    0    0 -0.62729825061E-01 -0.83240654419E-01  0.76289073772E-01  0.13056070291E+00  0.19027266385E-01 0.  0.
         14    1    1    2    0    0  0.61291425168E-02 -0.21220183465E-01 -0.40076949258E-02  0.22448255899E-01  0.00000000000E+00 0. -1.
     999901    1    3    3    0    0  0.56600682544E-01  0.10446083788E+00 -0.72281378846E-01  0.89092104119E+00  0.88000000000E+00 0.  1.
        -11    1    4    4    0    0 -0.25981565887E-02 -0.20924119328E-02  0.78829269273E-02  0.85749789095E-02  0.51100000000E-03 0. -1.
         11    1    4    4    0    0 -0.60131668473E-01 -0.81148242487E-01  0.68406146844E-01  0.12198572400E+00  0.51100000000E-03 0.  1.
</event>
<event>
 8    1  0.1106168E+005  0.1043930E+01  0.7957747E-01            NaN
         13   -1    0    0    0    0  0.00000000000E+00  0.00000000000E+00  0.74505805969E-08  0.10566000000E+00  0.10566000000E+00 0.  1.
     999900   -1    0    0    0    0 -0.00000000000E+00 -0.00000000000E+00 -0.74505805969E-08  0.93827000000E+00  0.93827000000E+00 0.  1.
     999902    2    1    2    0    0 -0.20086914694E-01  0.73157914279E-02  0.87489415931E-02  0.10208313220E+01  0.10205699579E+01 0.  0.
     999903    2    3    3    0    0 -0.62925125786E-01  0.90112460239E-01 -0.71368342754E-01  0.13228803102E+00  0.18079155370E-01 0.  0.
         14    1    1    2    0    0  0.20086914694E-01 -0.73157914279E-02 -0.87489415931E-02  0.23098677996E-01  0.00000000000E+00 0.  1.
     999901    1    3    3    0    0  0.42838211092E-01 -0.82796668812E-01  0.80117284347E-01  0.88854329098E+00  0.88000000000E+00 0. -1.
        -11    1    4    4    0    0 -0.15153795598E-01  0.13497627864E-01 -0.19562308066E-01  0.28191638775E-01  0.51100000000E-03 0. -1.
         11    1    4    4    0    0 -0.47771330189E-01  0.76614832376E-01 -0.51806034689E-01  0.10409639225E+00  0.51100000000E-03 0.  1.
</event>
<event>
 8    1  0.1106168E+005  0.1043930E+01  0.7957747E-01            NaN
         13   -1    0    0    0    0  0.00000000000E+00  0.00000000000E+00  0.74505805969E-08  0.10566000000E+00  0.10566000000E+00 0.  1.
     999900   -1    0    0    0    0 -0.00000000000E+00 -0.00000000000E+00 -0.74505805969E-08  0.93827000000E+00  0.93827000000E+00 0. -1.
     999902    2    1    2    0    0  0.22096739934E-01 -0.84561766386E-02  0.48463227780E-02  0.10197792302E+01  0.10194932166E+01 0.  0.
     999903    2    3    3    0    0  0.17143359242E-01  0.11133675376E-01  0.12767356968E+00  0.13101895267E+00  0.21155899152E-01 0.  0.
         14    1    1    2    0    0 -0.22096739934E-01  0.84561766386E-02 -0.48463227780E-02  0.24150769833E-01  0.00000000000E+00 0.  1.
     999901    1    3    3    0    0  0.49533806921E-02 -0.19589852014E-01 -0.12282724690E+00  0.88876027750E+00  0.88000000000E+00 0. -1.
        -11    1    4    4    0    0 -0.16720620525E-02 -0.14386194411E-02  0.51592872632E-01  0.51642531356E-01  0.51100000000E-03 0.  1.
         11    1    4    4    0    0  0.18815421295E-01  0.12572294817E-01  0.76080697049E-01  0.79376421310E-01  0.51100000000E-03 0. -1.
</event>
<event>
 8    1  0.1106168E+005  0.1043930E+01  0.7957747E-01            NaN
         13   -1    0    0    0    0  0.00000000000E+00  0.00000000000E+00  0.74505805969E-08  0.10566000000E+00  0.10566000000E+00 0.  1.
     999900   -1    0    0    0    0 -0.00000000000E+00 -0.00000000000E+00 -0.74505805969E-08  0.93827000000E+00  0.93827000000E+00 0.  1.
     999902    2    1    2    0    0  0.36558642449E-02  0.19323165789E-01  0.12325725670E-01  0.10207206572E+01  0.10204567538E+01 0.  0.
     999903    2    3    3    0    0  0.82729554667E-01 -0.63647375586E-01  0.76786136563E-01  0.13094995426E+00  0.18884176403E-01 0.  0.
         14    1    1    2    0    0 -0.36558642449E-02 -0.19323165789E-01 -0.12325725670E-01  0.23209342791E-01  0.00000000000E+00 0. -1.
     999901    1    3    3    0    0 -0.79073690422E-01  0.82970541374E-01 -0.64460410892E-01  0.88977070295E+00  0.88000000000E+00 0.  1.
        -11    1    4    4    0    0  0.79437750989E-01 -0.64723483446E-01  0.73128078212E-01  0.12588670516E+00  0.51100000000E-03 0.  1.
         11    1    4    4    0    0  0.32918036780E-02  0.10761078604E-02  0.36580583508E-02  0.50632491030E-02  0.51100000000E-03 0. -1.
</event>
<event>
 8    1  0.1106168E+005  0.1043930E+01  0.7957747E-01            NaN
         13   -1    0    0    0    0  0.00000000000E+00  0.00000000000E+00  0.74505805969E-08  0.10566000000E+00  0.10566000000E+00 0. -1.
     999900   -1    0    0    0    0 -0.00000000000E+00 -0.00000000000E+00 -0.74505805969E-08  0.93827000000E+00  0.93827000000E+00 0. -1.
     999902    2    1    2    0    0 -0.21155473625E-01  0.79736742428E-02 -0.96251365738E-02  0.10193581299E+01  0.10190619315E+01 0.  0.
     999903    2    3    3    0    0 -0.54701278634E-01  0.11385247186E+00 -0.33211343249E-01  0.13206339311E+00  0.19573738721E-01 0.  0.
         14    1    1    2    0    0  0.21155473625E-01 -0.79736742428E-02  0.96251365738E-02  0.24571870082E-01  0.00000000000E+00 0.  1.
     999901    1    3    3    0    0  0.33545805009E-01 -0.10587879762E+00  0.23586206676E-01  0.88729473681E+00  0.88000000000E+00 0.  1.
        -11    1    4    4    0    0 -0.46180538194E-01  0.84330781338E-01 -0.18176832089E-01  0.97851832557E-01  0.51100000000E-03 0. -1.
         11    1    4    4    0    0 -0.85207404401E-02  0.29521690520E-01 -0.15034511160E-01  0.34211560556E-01  0.51100000000E-03 0.  1.
</event>
<event>
 8    1  0.1106168E+005  0.1043930E+01  0.7957747E-01            NaN
         13   -1    0    0    0    0  0.00000000000E+00  0.00000000000E+00  0.74505805969E-08  0.10566000000E+00  0.10566000000E+00 0. -1.
     999900   -1    0    0    0    0 -0.00000000000E+00 -0.00000000000E+00 -0.74505805969E-08  0.93827000000E+00  0.93827000000E+00 0.  1.
     999902    2    1    2    0    0 -0.18042102217E-01 -0.12004102520E-01  0.14934891862E-01  0.10176114338E+01  0.10172710373E+01 0.  0.
     999903    2    3    3    0    0 -0.25455409445E-01 -0.11432782422E+00  0.54569572118E-01  0.13076533162E+00  0.20072480969E-01 0.  0.
         14    1    1    2    0    0  0.18042102217E-01  0.12004102520E-01 -0.14934891862E-01  0.26318566158E-01  0.00000000000E+00 0.  1.
     999901    1    3    3    0    0  0.74133072276E-02  0.10232372170E+00 -0.39634680256E-01  0.88684610222E+00  0.88000000000E+00 0.  1.
        -11    1    4    4    0    0 -0.23611540875E-02 -0.39178133053E-01  0.10483387018E-01  0.40628360568E-01  0.51100000000E-03 0. -1.
         11    1    4    4    0    0 -0.23094255357E-01 -0.75149691165E-01  0.44086185100E-01  0.90136971052E-01  0.51100000000E-03 0.  1.
</event>
<event>
 8    1  0.1106168E+005  0.1043930E+01  0.7957747E-01            NaN
         13   -1    0    0    0    0  0.00000000000E+00  0.00000000000E+00  0.74505805969E-08  0.10566000000E+00  0.10566000000E+00 0. -1.
     999900   -1    0    0    0    0 -0.00000000000E+00 -0.00000000000E+00 -0.74505805969E-08  0.93827000000E+00  0.93827000000E+00 0. -1.
     999902    2    1    2    0    0 -0.19677995281E-01 -0.14857566088E-01 -0.38827001400E-02  0.10189691080E+01  0.10186633384E+01 0.  0.
     999903    2    3    3    0    0  0.24650334087E-01  0.12064674465E+00  0.24113040520E-01  0.12705533387E+00  0.19958536416E-01 0.  0.
         14    1    1    2    0    0  0.19677995281E-01  0.14857566088E-01  0.38827001400E-02  0.24960891985E-01  0.00000000000E+00 0.  1.
     999901    1    3    3    0    0 -0.44328329368E-01 -0.13550431074E+00 -0.27995740660E-01  0.89191377414E+00  0.88000000000E+00 0. -1.
        -11    1    4    4    0    0  0.15721718178E-01  0.34145807856E-01  0.10506071777E-01  0.39035205671E-01  0.51100000000E-03 0.  1.
         11    1    4    4    0    0  0.89286159086E-02  0.86500936797E-01  0.13606968742E-01  0.88020128199E-01  0.51100000000E-03 0. -1.
</event>
<event>
 8    1  0.1106168E+005  0.1043930E+01  0.7957747E-01            NaN
         13   -1    0    0    0    0  0.00000000000E+00  0.00000000000E+00  0.74505805969E-08  0.10566000000E+00  0.10566000000E+00 0. -1.
     999900   -1    0    0    0    0 -0.00000000000E+00 -0.00000000000E+00 -0.74505805969E-08  0.93827000000E+00  0.93827000000E+00 0. -1.
     999902    2    1    2    0    0 -0.24602475442E-01 -0.40484783315E-02  0.14236005043E-02  0.10189560413E+01  0.10186499475E+01 0.  0.
     999903    2    3    3    0    0  0.42762638734E-01  0.10100621441E+00 -0.62598823518E-01  0.12784806925E+00  0.19890135338E-01 0.  0.
         14    1    1    2    0    0  0.24602475442E-01  0.40484783315E-02 -0.14236005043E-02  0.24973958698E-01  0.00000000000E+00 0.  1.
     999901    1    3    3    0    0 -0.67365114175E-01 -0.10505469274E+00  0.64022424022E-01  0.89110797205E+00  0.88000000000E+00 0.  1.
        -11    1    4    4    0    0  0.39959093343E-01  0.73028350028E-01 -0.44360260303E-01  0.94329013902E-01  0.51100000000E-03 0.  1.
         11    1    4    4    0    0  0.28035453905E-02  0.27977864385E-01 -0.18238563215E-01  0.33519055348E-01  0.51100000000E-03 0. -1.
</event>
<event>
 8    1  0.1106168E+005  0.1043930E+01  0.7957747E-01            NaN
         13   -1    0    0    0    0  0.00000000000E+00  0.00000000000E+00  0.74505805969E-08  0.10566000000E+00  0.10566000000E+00 0.  1.
     999900   -1    0    0    0    0 -0.00000000000E+00 -0.00000000000E+00 -0.74505805969E-08  0.93827000000E+00  0.93827000000E+00 0. -1.
     999902    2    1    2    0    0  0.26536076138E-01 -0.10146871343E-01 -0.73694678629E-04  0.10155200059E+01  0.10151225318E+01 0.  0.
     999903    2    3    3    0    0  0.41289159700E-01  0.39481445451E-01  0.11161527546E+00  0.12695090370E+00  0.19874178982E-01 0.  0.
         14    1    1    2    0    0 -0.26536076138E-01  0.10146871343E-01  0.73694678629E-04  0.28409994118E-01  0.00000000000E+00 0.  1.
     999901    1    3    3    0    0 -0.14753083561E-01 -0.49628316794E-01 -0.11168897014E+00  0.88856910218E+00  0.88000000000E+00 0. -1.
        -11    1    4    4    0    0  0.11894566332E-01  0.19522728569E-01  0.28364646250E-01  0.36433939080E-01  0.51100000000E-03 0.  1.
         11    1    4    4    0    0  0.29394593367E-01  0.19958716882E-01  0.83250629212E-01  0.90516964619E-01  0.51100000000E-03 0. -1.
</event>
<event>
 8    1  0.1106168E+005  0.1043930E+01  0.7957747E-01            NaN
         13   -1    0    0    0    0  0.00000000000E+00  0.00000000000E+00  0.74505805969E-08  0.10566000000E+00  0.10566000000E+00 0.  1.
     999900   -1    0    0    0    0 -0.00000000000E+00 -0.00000000000E+00 -0.74505805969E-08  0.93827000000E+00  0.93827000000E+00 0.  1.
     999902    2    1    2    0    0 -0.13606318736E-02 -0.99502990405E-02 -0.21774556563E-01  0.10199510283E+01  0.10196691174E+01 0.  0.
     999903    2    3    3    0    0  0.12198799328E+00 -0.23267936899E-01 -0.37468057282E-01  0.13110991271E+00  0.19065321998E-01 0.  0.
         14    1    1    2    0    0  0.13606318736E-02  0.99502990405E-02  0.21774556563E-01  0.23978971696E-01  0.00000000000E+00 0.  1.
     999901    1    3    3    0    0 -0.12334862515E+00  0.13317637858E-01  0.15693500719E-01  0.88884111559E+00  0.88000000000E+00 0. -1.
        -11    1    4    4    0    0  0.67356187464E-01 -0.81445864527E-02 -0.29023142065E-01  0.73795624359E-01  0.51100000000E-03 0. -1.
         11    1    4    4    0    0  0.54631805814E-01 -0.15123350446E-01 -0.84449152167E-02  0.57314288351E-01  0.51100000000E-03 0.  1.
</event>
<event>
 8    1  0.1106168E+005  0.1043930E+01  0.7957747E-01            NaN
         13   -1    0    0    0    0  0.00000000000E+00  0.00000000000E+00  0.74505805969E-08  0.10566000000E+00  0.10566000000E+00 0. -1.
     999900   -1    0    0    0    0 -0.00000000000E+00 -0.00000000000E+00 -0.74505805969E-08  0.93827000000E+00  0.93827000000E+00 0.  1.
     999902    2    1    2    0    0 -0.36372458457E-02  0.21982639209E-01  0.64989380607E-02  0.10207200414E+01  0.10204561238E+01 0.  0.
     999903    2    3    3    0    0 -0.62443356572E-01 -0.10529526268E+00  0.35740725880E-01  0.12914115808E+00  0.20341438008E-01 0.  0.
         14    1    1    2    0    0  0.36372458457E-02 -0.21982639209E-01 -0.64989380607E-02  0.23209958635E-01  0.00000000000E+00 0.  1.
     999901    1    3    3    0    0  0.58806110726E-01  0.12727790189E+00 -0.29241787820E-01  0.89157888329E+00  0.88000000000E+00 0.  1.
        -11    1    4    4    0    0 -0.32245009008E-01 -0.37853968189E-01  0.19927918081E-01  0.53572815435E-01  0.51100000000E-03 0.  1.
         11    1    4    4    0    0 -0.30198347564E-01 -0.67441294491E-01  0.15812807800E-01  0.75568342643E-01  0.51100000000E-03 0. -1.
</event>
<event>
 8    1  0.1106168E+005  0.1043930E+01  0.7957747E-01            NaN
         13   -1    0    0    0    0  0.00000000000E+00  0.00000000000E+00  0.74505805969E-08  0.10566000000E+00  0.10566000000E+00 0. -1.
     999900   -1    0    0    0    0 -0.00000000000E+00 -0.00000000000E+00 -0.74505805969E-08  0.93827000000E+00  0.93827000000E+00 0.  1.
     999902    2    1    2    0    0  0.28369182082E-03 -0.14299990184E-01 -0.19651755723E-01  0.10196244100E+01  0.10193346731E+01 0.  0.
     999903    2    3    3    0    0 -0.63878006132E-01 -0.36770801337E-01 -0.10815673237E+00  0.13257605074E+00  0.21119634818E-01 0.  0.
         14    1    1    2    0    0 -0.28369182082E-03  0.14299990184E-01  0.19651755723E-01  0.24305589960E-01  0.00000000000E+00 0. -1.
     999901    1    3    3    0    0  0.64161697952E-01  0.22470811152E-01  0.88504976651E-01  0.88704835930E+00  0.88000000000E+00 0. -1.
        -11    1    4    4    0    0 -0.41625843062E-01 -0.12481341875E-01 -0.55999985055E-01  0.70885500300E-01  0.51100000000E-03 0.  1.
         11    1    4    4    0    0 -0.22252163069E-01 -0.24289459462E-01 -0.52156747319E-01  0.61690550444E-01  0.51100000000E-03 0. -1.
</event>
<event>
 8    1  0.1106168E+005  0.1043930E+01  0.7957747E-01            NaN
         13   -1    0    0    0    0  0.00000000000E+00  0.00000000000E+00  0.74505805969E-08  0.10566000000E+00  0.10566000000E+00 0. -1.
     999900   -1    0    0    0    0 -0.00000000000E+00 -0.00000000000E+00 -0.74505805969E-08  0.93827000000E+00  0.93827000000E+00 0. -1.
     999902    2    1    2    0    0 -0.10289274802E-01  0.11094293545E-01  0.18383611990E-01  0.10201201341E+01  0.10198422320E+01 0.  0.
     999903    2    3    3    0    0 -0.83910228223E-01 -0.82232724615E-01  0.55174006937E-01  0.13136622536E+00  0.20242695647E-01 0.  0.
         14    1    1    2    0    0  0.10289274802E-01 -0.11094293545E-01 -0.18383611990E-01  0.23809865918E-01  0.00000000000E+00 0.  1.
     999901    1    3    3    0    0  0.73620953420E-01  0.93327018159E-01 -0.36790394946E-01  0.88875390872E+00  0.88000000000E+00 0. -1.
        -11    1    4    4    0    0 -0.16923847551E-01 -0.69115808842E-02  0.10724950361E-01  0.21200760540E-01  0.51100000000E-03 0. -1.
         11    1    4    4    0    0 -0.66986380672E-01 -0.75321143731E-01  0.44449056576E-01  0.11016546482E+00  0.51100000000E-03 0.  1.
</event>
<event>
 8    1  0.1106168E+005  0.1043930E+01  0.7957747E-01            NaN
         13   -1    0    0    0    0  0.00000000000E+00  0.00000000000E+00  0.74505805969E-08  0.10566000000E+00  0.10566000000E+00 0. -1.
     999900   -1    0    0    0    0 -0.00000000000E+00 -0.00000000000E+00 -0.74505805969E-08  0.93827000000E+00  0.93827000000E+00 0.  1.
     999902    2    1    2    0    0  0.40730663781E-04 -0.22984278598E-01  0.16369557501E-02  0.10208874666E+01  0.10206273860E+01 0.  0.
     999903    2    3    3    0    0  0.11310087284E+00 -0.64776724857E-01  0.14953553676E-01  0.13257077977E+00  0.19067547297E-01 0.  0.
         14    1    1    2    0    0 -0.40730663781E-04  0.22984278598E-01 -0.16369557501E-02  0.23042533406E-01  0.00000000000E+00 0.  1.
     999901    1    3    3    0    0 -0.11306014218E+00  0.41792446260E-01 -0.13316597926E-01  0.88831668683E+00  0.88000000000E+00 0.  1.
        -11    1    4    4    0    0  0.28206837567E-01 -0.84230059289E-02  0.76092212199E-02  0.30409440688E-01  0.51100000000E-03 0.  1.
         11    1    4    4    0    0  0.84894035275E-01 -0.56353718928E-01  0.73443324564E-02  0.10216133908E+00  0.51100000000E-03 0. -1.
</event>
<event>
 7    1  0.1106168E+005  0.1043930E+01  0.7957747E-01            NaN
         13   -1    0    0    0    0  0.00000000000E+00  0.00000000000E+00  0.74505805969E-08  0.10566000000E+00  0.10566000000E+00 0.  1.
     999900   -1    0    0    0    0 -0.00000000000E+00 -0.00000000000E+00 -0.74505805969E-08  0.93827000000E+00  0.93827000000E+00 0. -1.
     999902    2    1    2    0    0  0.99081199307E-02 -0.17159075012E-01  0.90801894195E-02  0.10221342542E+01  0.10219018441E+01 0.  0.
         14    1    1    2    0    0 -0.99081199307E-02  0.17159075012E-01 -0.90801894195E-02  0.21795745817E-01  0.00000000000E+00 0. -1.
     999901    1    3    3    0    0  0.58836159435E-01 -0.11471588592E+00  0.78325393645E-01  0.89283609662E+00  0.88000000000E+00 0.  1.
        -11    1    3    3    0    0 -0.21395212767E-01  0.39114050245E-01 -0.28589624452E-01  0.52965005458E-01  0.51100000000E-03 0. -1.
         11    1    3    3    0    0 -0.27532826738E-01  0.58442760665E-01 -0.40655579774E-01  0.76333152103E-01  0.51100000000E-03 0.  1.
</event>
<event>
 8    1  0.1106168E+005  0.1043930E+01  0.7957747E-01            NaN
         13   -1    0    0    0    0  0.00000000000E+00  0.00000000000E+00  0.74505805969E-08  0.10566000000E+00  0.10566000000E+00 0. -1.
     999900   -1    0    0    0    0 -0.00000000000E+00 -0.00000000000E+00 -0.74505805969E-08  0.93827000000E+00  0.93827000000E+00 0.  1.
     999902    2    1    2    0    0 -0.10676000338E-02 -0.11454064005E-01 -0.20567290319E-01  0.10203641607E+01  0.10200919917E+01 0.  0.
     999903    2    3    3    0    0  0.27217947847E-01  0.85657031818E-02  0.12308389863E+00  0.12804329496E+00  0.20766591600E-01 0.  0.
         14    1    1    2    0    0  0.10676000338E-02  0.11454064005E-01  0.20567290319E-01  0.23565839326E-01  0.00000000000E+00 0. -1.
     999901    1    3    3    0    0 -0.28285547881E-01 -0.20019767187E-01 -0.14365118895E+00  0.89232086571E+00  0.88000000000E+00 0.  1.
        -11    1    4    4    0    0  0.21352371342E-01  0.60188751575E-02  0.11738028065E+00  0.11945937396E+00  0.51100000000E-03 0. -1.
         11    1    4    4    0    0  0.58655765050E-02  0.25468280244E-02  0.57036179793E-02  0.85839210024E-02  0.51100000000E-03 0.  1.
</event>
<event>
 8    1  0.1106168E+005  0.1043930E+01  0.7957747E-01            NaN
         13   -1    0    0    0    0  0.00000000000E+00  0.00000000000E+00  0.74505805969E-08  0.10566000000E+00  0.10566000000E+00 0. -1.
     999900   -1    0    0    0    0 -0.00000000000E+00 -0.00000000000E+00 -0.74505805969E-08  0.93827000000E+00  0.93827000000E+00 0.  1.
     999902    2    1    2    0    0 -0.13207600244E-02 -0.11272261677E-01 -0.20584858043E-01  0.10204237312E+01  0.10201529526E+01 0.  0.
     999903    2    3    3    0    0 -0.65642222047E-01 -0.89691983857E-01 -0.70862397901E-01  0.13317250734E+00  0.18970608596E-01 0.  0.
         14    1    1    2    0    0  0.13207600244E-02  0.11272261677E-01  0.20584858043E-01  0.23506268760E-01  0.00000000000E+00 0. -1.
     999901    1    3    3    0    0  0.64321462023E-01  0.78419722180E-01  0.50277539858E-01  0.88725122390E+00  0.88000000000E+00 0.  1.
        -11    1    4    4    0    0 -0.19159543656E-01 -0.15233010895E-01 -0.10480995500E-01  0.26631656383E-01  0.51100000000E-03 0.  1.
         11    1    4    4    0    0 -0.46482678391E-01 -0.74458972962E-01 -0.60381402401E-01  0.10654085095E+00  0.51100000000E-03 0. -1.
</event>
<event>
 8    1  0.1106168E+005  0.1043930E+01  0.7957747E-01            NaN
         13   -1    0    0    0    0  0.00000000000E+00  0.00000000000E+00  0.74505805969E-08  0.10566000000E+00  0.10566000000E+00 0. -1.
     999900   -1    0    0    0    0 -0.00000000000E+00 -0.00000000000E+00 -0.74505805969E-08  0.93827000000E+00  0.93827000000E+00 0.  1.
     999902    2    1    2    0    0  0.11984726401E-01  0.21654007407E-01 -0.43863529620E-02  0.10187949687E+01  0.10184848642E+01 0.  0.
     999903    2    3    3    0    0 -0.44228345816E-01 -0.57229125534E-01  0.10248099097E+00  0.12705336528E+00  0.20220898536E-01 0.  0.
         14    1    1    2    0    0 -0.11984726401E-01 -0.21654007407E-01  0.43863529620E-02  0.25135031252E-01  0.00000000000E+00 0. -1.
     999901    1    3    3    0    0  0.56213072218E-01  0.78883132941E-01 -0.10686734393E+00  0.89174160346E+00  0.88000000000E+00 0.  1.
        -11    1    4    4    0    0 -0.42395149557E-01 -0.53995488324E-01  0.85440843228E-01  0.10960501940E+00  0.51100000000E-03 0.  1.
         11    1    4    4    0    0 -0.18331962590E-02 -0.32336372102E-02  0.17040147739E-01  0.17448345884E-01  0.51100000000E-03 0. -1.
</event>
<event>
 8    1  0.1106168E+005  0.1043930E+01  0.7957747E-01            NaN
         13   -1    0    0    0    0  0.00000000000E+00  0.00000000000E+00  0.74505805969E-08  0.10566000000E+00  0.10566000000E+00 0.  1.
     999900   -1    0    0    0    0 -0.00000000000E+00 -0.00000000000E+00 -0.74505805969E-08  0.93827000000E+00  0.93827000000E+00 0. -1.
     999902    2    1    2    0    0 -0.14029631681E-01 -0.11301354339E-02  0.20508046986E-01  0.10190565651E+01  0.10187529608E+01 0.  0.
     999903    2    3    3    0    0  0.72185790657E-01 -0.36449824391E-01  0.10047526286E+00  0.13053231949E+00  0.20100495345E-01 0.  0.
         14    1    1    2    0    0  0.14029631681E-01  0.11301354339E-02 -0.20508046986E-01  0.24873434873E-01  0.00000000000E+00 0. -1.
     999901    1    3    3    0    0 -0.86215422338E-01  0.35319688957E-01 -0.79967215873E-01  0.88852424564E+00  0.88000000000E+00 0.  1.
        -11    1    4    4    0    0  0.48370472200E-01 -0.22600369320E-01  0.50644788995E-01  0.73590998414E-01  0.51100000000E-03 0. -1.
         11    1    4    4    0    0  0.23815318457E-01 -0.13849455071E-01  0.49830473864E-01  0.56941321072E-01  0.51100000000E-03 0.  1.
</event>
<event>
 8    1  0.1106168E+005  0.1043930E+01  0.7957747E-01            NaN
         13   -1    0    0    0    0  0.00000000000E+00  0.00000000000E+00  0.74505805969E-08  0.10566000000E+00  0.10566000000E+00 0. -1.
     999900   -1    0    0    0    0 -0.00000000000E+00 -0.00000000000E+00 -0.74505805969E-08  0.93827000000E+00  0.93827000000E+00 0.  1.
     999902    2    1    2    0    0  0.90674317925E-02  0.15759709974E-01 -0.15603860541E-01  0.10199702996E+01  0.10196888471E+01 0.  0.
     999903    2    3    3    0    0 -0.29487008045E-01  0.10732262453E+00 -0.69427950539E-01  0.13274583829E+00  0.20336860276E-01 0.  0.
         14    1    1    2    0    0 -0.90674317925E-02 -0.15759709974E-01  0.15603860541E-01  0.23959700365E-01  0.00000000000E+00 0. -1.
     999901    1    3    3    0    0  0.38554439838E-01 -0.91562914559E-01  0.53824089998E-01  0.88722446135E+00  0.88000000000E+00 0. -1.
        -11    1    4    4    0    0 -0.15273366176E-01  0.43626425098E-01 -0.17817765370E-01  0.49540635492E-01  0.51100000000E-03 0.  1.
         11    1    4    4    0    0 -0.14213641869E-01  0.63696199435E-01 -0.51610185169E-01  0.83205202793E-01  0.51100000000E-03 0. -1.
</event>
<event>
 8    1  0.1106168E+005  0.1043930E+01  0.7957747E-01            NaN
         13   -1    0    0    0    0  0.00000000000E+00  0.00000000000E+00  0.74505805969E-08  0.10566000000E+00  0.10566000000E+00 0. -1.
     999900   -1    0    0    0    0 -0.00000000000E+00 -0.00000000000E+00 -0.74505805969E-08  0.93827000000E+00  0.93827000000E+00 0. -1.
     999902    2    1    2    0    0 -0.58341152419E-02 -0.19630158312E-01  0.48281896501E-02  0.10228897664E+01  0.10226733509E+01 0.  0.
     999903    2    3    3    0    0 -0.48383209111E-01 -0.10746596249E+00 -0.62517916508E-01  0.13493647261E+00  0.20235951603E-01 0.  0.
         14    1    1    2    0    0  0.58341152419E-02  0.19630158312E-01 -0.48281896501E-02  0.21040233633E-01  0.00000000000E+00 0.  1.
     999901    1    3    3    0    0  0.42549093869E-01  0.87835804178E-01  0.67346106158E-01  0.88795329376E+00  0.88000000000E+00 0.  1.
        -11    1    4    4    0    0 -0.40106995282E-01 -0.75118515718E-01 -0.52639624626E-01  0.10011270487E+00  0.51100000000E-03 0.  1.
         11    1    4    4    0    0 -0.82762138286E-02 -0.32347446772E-01 -0.98782918820E-02  0.34823767739E-01  0.51100000000E-03 0. -1.
</event>
<event>
 8    1  0.1106168E+005  0.1043930E+01  0.7957747E-01            NaN
         13   -1    0    0    0    0  0.00000000000E+00  0.00000000000E+00  0.74505805969E-08  0.10566000000E+00  0.10566000000E+00 0. -1.
     999900   -1    0    0    0    0 -0.00000000000E+00 -0.00000000000E+00 -0.74505805969E-08  0.93827000000E+00  0.93827000000E+00 0. -1.
     999902    2    1    2    0    0 -0.16891345631E-01  0.10559818069E-01  0.13166630712E-01  0.10200514012E+01  0.10197718733E+01 0.  0.
     999903    2    3    3    0    0 -0.79280531207E-01  0.52000584146E-01  0.91710849637E-01  0.13338407811E+00  0.19772935323E-01 0.  0.
         14    1    1    2    0    0  0.16891345631E-01 -0.10559818069E-01 -0.13166630712E-01  0.23878598769E-01  0.00000000000E+00 0.  1.
     999901    1    3    3    0    0  0.62389185576E-01 -0.41440766077E-01 -0.78544218925E-01  0.88666732312E+00  0.88000000000E+00 0. -1.
        -11    1    4    4    0    0 -0.75686632496E-01  0.49319801682E-01  0.79401843046E-01  0.12027394970E+00  0.51100000000E-03 0. -1.
         11    1    4    4    0    0 -0.35938987105E-02  0.26807824637E-02  0.12309006590E-01  0.13110128405E-01  0.51100000000E-03 0.  1.
</event>
<event>
 8    1  0.1106168E+005  0.1043930E+01  0.7957747E-01            NaN
         13   -1    0    0    0    0  0.00000000000E+00  0.00000000000E+00  0.74505805969E-08  0.10566000000E+00  0.10566000000E+00 0. -1.
     999900   -1    0    0    0    0 -0.00000000000E+00 -0.00000000000E+00 -0.74505805969E-08  0.93827000000E+00  0.93827000000E+00 0. -1.
     999902    2    1    2    0    0 -0.26746606011E-02 -0.10591468047E-01 -0.21054501764E-01  0.10202102814E+01  0.10199345044E+01 0.  0.
     999903    2    3    3    0    0 -0.40397040366E-01  0.11719040295E-01 -0.12502362472E+00  0.13300663217E+00  0.17047014081E-01 0.  0.
         14    1    1    2    0    0  0.26746606011E-02  0.10591468047E-01  0.21054501764E-01  0.23719718574E-01  0.00000000000E+00 0. -1.
     999901    1    3    3    0    0  0.37722379765E-01 -0.22310508343E-01  0.10396912295E+00  0.88720364925E+00  0.88000000000E+00 0.  1.
        -11    1    4    4    0    0 -0.23720484250E-02  0.49619478935E-03 -0.29185360302E-01  0.29290257766E-01  0.51100000000E-03 0.  1.
         11    1    4    4    0    0 -0.38024991941E-01  0.11222845506E-01 -0.95838264415E-01  0.10371637441E+00  0.51100000000E-03 0. -1.
</event>
<event>
 8    1  0.1106168E+005  0.1043930E+01  0.7957747E-01            NaN
         13   -1    0    0    0    0  0.00000000000E+00  0.00000000000E+00  0.74505805969E-08  0.10566000000E+00  0.10566000000E+00 0. -1.
     999900   -1    0    0    0    0 -0.00000000000E+00 -0.00000000000E+00 -0.74505805969E-08  0.93827000000E+00  0.93827000000E+00 0. -1.
     999902    2    1    2    0    0 -0.18203059104E-02 -0.13173178077E-01 -0.19325408845E-01  0.10204711517E+01  0.10202014772E+01 0.  0.
     999903    2    3    3    0    0  0.11098963137E+00  0.21230857987E-01 -0.63882356200E-01  0.13148575187E+00  0.20930836256E-01 0.  0.
         14    1    1    2    0    0  0.18203059104E-02  0.13173178077E-01  0.19325408845E-01  0.23458848251E-01  0.00000000000E+00 0. -1.
     999901    1    3    3    0    0 -0.11280993729E+00 -0.34404036064E-01  0.44556947356E-01  0.88898539988E+00  0.88000000000E+00 0. -1.
        -11    1    4    4    0    0  0.47899045744E-01  0.17385072663E-03 -0.32885823989E-01  0.58104107839E-01  0.51100000000E-03 0. -1.
         11    1    4    4    0    0  0.63090585631E-01  0.21057007260E-01 -0.30996532211E-01  0.73381644027E-01  0.51100000000E-03 0.  1.
</event>
<event>
 8    1  0.1106168E+005  0.1043930E+01  0.7957747E-01            NaN
         13   -1    0    0    0    0  0.00000000000E+00  0.00000000000E+00  0.74505805969E-08  0.10566000000E+00  0.10566000000E+00 0. -1.
     999900   -1    0    0    0    0 -0.00000000000E+00 -0.00000000000E+00 -0.74505805969E-08  0.93827000000E+00  0.93827000000E+00 0.  1.
     999902    2    1    2    0    0  0.20231356347E-01 -0.41374806535E-02 -0.13480663652E-01  0.10192692048E+01  0.10189708323E+01 0.  0.
     999903    2    3    3    0    0  0.35987736093E-01  0.35620579617E-01  0.11636952678E+00  0.12871317694E+00  0.21477251099E-01 0.  0.
         14    1    1    2    0    0 -0.20231356347E-01  0.41374806535E-02  0.13480663652E-01  0.24660795168E-01  0.00000000000E+00 0. -1.
     999901    1    3    3    0    0 -0.15756379745E-01 -0.39758060270E-01 -0.12985019043E+00  0.89055602789E+00  0.88000000000E+00 0.  1.
        -11    1    4    4    0    0  0.33430161200E-01  0.37117302624E-01  0.96962369825E-01  0.10907443383E+00  0.51100000000E-03 0.  1.
         11    1    4    4    0    0  0.25575748921E-02 -0.14967230076E-02  0.19407156951E-01  0.19638743112E-01  0.51100000000E-03 0. -1.
</event>
<event>
 8    1  0.1106168E+005  0.1043930E+01  0.7957747E-01            NaN
         13   -1    0    0    0    0  0.00000000000E+00  0.00000000000E+00  0.74505805969E-08  0.10566000000E+00  0.10566000000E+00 0. -1.
     999900   -1    0    0    0    0 -0.00000000000E+00 -0.00000000000E+00 -0.74505805969E-08  0.93827000000E+00  0.93827000000E+00 0. -1.
     999902    2    1    2    0    0 -0.13918337845E-01  0.11552124704E-01 -0.14781325580E-01  0.10205706486E+01  0.10203032831E+01 0.  0.
     999903    2    3    3    0    0 -0.44848645885E-01 -0.15764214489E-01 -0.12282258525E+00  0.13300331020E+00  0.18562908722E-01 0.  0.
         14    1    1    2    0    0  0.13918337845E-01 -0.11552124704E-01  0.14781325580E-01  0.23359351434E-01  0.00000000000E+00 0. -1.
     999901    1    3    3    0    0  0.30930308040E-01  0.27316339192E-01  0.10804125967E+00  0.88756733837E+00  0.88000000000E+00 0.  1.
        -11    1    4    4    0    0 -0.15593798126E-01 -0.45951957120E-02 -0.67490523143E-01  0.69422721056E-01  0.51100000000E-03 0. -1.
         11    1    4    4    0    0 -0.29254847759E-01 -0.11169018777E-01 -0.55332062108E-01  0.63580589144E-01  0.51100000000E-03 0.  1.
</event>
<event>
 8    1  0.1106168E+005  0.1043930E+01  0.7957747E-01            NaN
         13   -1    0    0    0    0  0.00000000000E+00  0.00000000000E+00  0.74505805969E-08  0.10566000000E+00  0.10566000000E+00 0. -1.
     999900   -1    0    0    0    0 -0.00000000000E+00 -0.00000000000E+00 -0.74505805969E-08  0.93827000000E+00  0.93827000000E+00 0. -1.
     999902    2    1    2    0    0 -0.14351771794E-01  0.19159465937E-01  0.33010397833E-02  0.10197648318E+01  0.10194784730E+01 0.  0.
     999903    2    3    3    0    0 -0.93986540903E-01 -0.24464829521E-02 -0.88885387371E-01  0.13111031470E+00  0.21209605912E-01 0.  0.
         14    1    1    2    0    0  0.14351771794E-01 -0.19159465937E-01 -0.33010397833E-02  0.24165168162E-01  0.00000000000E+00 0.  1.
     999901    1    3    3    0    0  0.79634769109E-01  0.21605948889E-01  0.92186427154E-01  0.88865451714E+00  0.88000000000E+00 0. -1.
        -11    1    4    4    0    0 -0.87866512766E-02 -0.37705930745E-02 -0.27831921526E-02  0.99714538734E-02  0.51100000000E-03 0. -1.
         11    1    4    4    0    0 -0.85199889627E-01  0.13241101225E-02 -0.86102195218E-01  0.12113886083E+00  0.51100000000E-03 0.  1.
</event>
<event>
 8    1  0.1106168E+005  0.1043930E+01  0.7957747E-01            NaN
         13   -1    0    0    0    0  0.00000000000E+00  0.00000000000E+00  0.74505805969E-08  0.10566000000E+00  0.10566000000E+00 0. -1.
     999900   -1    0    0    0    0 -0.00000000000E+00 -0.00000000000E+00 -0.74505805969E-08  0.93827000000E+00  0.93827000000E+00 0.  1.
     999902    2    1    2    0    0  0.12334163031E-01  0.85355777595E-02  0.16687585334E-01  0.10214920150E+01  0.10212455501E+01 0.  0.
     999903    2    3    3    0    0  0.13133632723E+00 -0.81618336732E-02 -0.41697116050E-04  0.13316764436E+00  0.20439505521E-01 0.  0.
         14    1    1    2    0    0 -0.12334163031E-01 -0.85355777595E-02 -0.16687585334E-01  0.22437984973E-01  0.00000000000E+00 0.  1.
     999901    1    3    3    0    0 -0.11900216420E+00  0.16697411433E-01  0.16729282450E-01  0.88832437067E+00  0.88000000000E+00 0.  1.
        -11    1    4    4    0    0  0.34494907475E-01 -0.11215357500E-01 -0.21678215471E-03  0.36276590262E-01  0.51100000000E-03 0. -1.
         11    1    4    4    0    0  0.96841419756E-01  0.30535238267E-02  0.17508503866E-03  0.96891054096E-01  0.51100000000E-03 0.  1.
</event>
<event>
 8    1  0.1106168E+005  0.1043930E+01  0.7957747E-01            NaN
         13   -1    0    0    0    0  0.00000000000E+00  0.00000000000E+00  0.74505805969E-08  0.10566000000E+00  0.10566000000E+00 0.  1.
     999900   -1    0    0    0    0 -0.00000000000E+00 -0.00000000000E+00 -0.74505805969E-08  0.93827000000E+00  0.93827000000E+00 0. -1.
     999902    2    1    2    0    0  0.20567095623E-01 -0.88388821780E-02 -0.77846704945E-02  0.10202291064E+01  0.10199537721E+01 0.  0.
     999903    2    3    3    0    0  0.26975410487E-01  0.66235682790E-02  0.12548332043E+00  0.13003782853E+00  0.19804764973E-01 0.  0.
         14    1    1    2    0    0 -0.20567095623E-01  0.88388821780E-02  0.77846704945E-02  0.23700893554E-01  0.00000000000E+00 0. -1.
     999901    1    3    3    0    0 -0.64083148639E-02 -0.15462450457E-01 -0.13326799092E+00  0.89019127792E+00  0.88000000000E+00 0. -1.
        -11    1    4    4    0    0  0.10577569844E-01  0.12574162042E-01  0.53473012249E-01  0.55942995047E-01  0.51100000000E-03 0. -1.
         11    1    4    4    0    0  0.16397840643E-01 -0.59505937633E-02  0.72010308179E-01  0.74094833483E-01  0.51100000000E-03 0.  1.
</event>
<event>
 8    1  0.1106168E+005  0.1043930E+01  0.7957747E-01            NaN
         13   -1    0    0    0    0  0.00000000000E+00  0.00000000000E+00  0.74505805969E-08  0.10566000000E+00  0.10566000000E+00 0. -1.
     999900   -1    0    0    0    0 -0.00000000000E+00 -0.00000000000E+00 -0.74505805969E-08  0.93827000000E+00  0.93827000000E+00 0. -1.
     999902    2    1    2    0    0 -0.18653001044E-01 -0.13863309653E-01  0.49213725430E-02  0.10201740384E+01  0.10198974081E+01 0.  0.
     999903    2    3    3    0    0  0.10184519346E+00 -0.36643324314E-02  0.76515453408E-01  0.12902335171E+00  0.20162834986E-01 0.  0.
         14    1    1    2    0    0  0.18653001044E-01  0.13863309653E-01 -0.49213725430E-02  0.23755961572E-01  0.00000000000E+00 0. -1.
     999901    1    3    3    0    0 -0.12049819450E+00 -0.10198977222E-01 -0.71594080865E-01  0.89115068671E+00  0.88000000000E+00 0. -1.
        -11    1    4    4    0    0  0.73776535081E-01 -0.10590794527E-01  0.60296369579E-01  0.95869991983E-01  0.51100000000E-03 0.  1.
         11    1    4    4    0    0  0.28068658378E-01  0.69264620959E-02  0.16219083828E-01  0.33153359732E-01  0.51100000000E-03 0. -1.
</event>
<event>
 8    1  0.1106168E+005  0.1043930E+01  0.7957747E-01            NaN
         13   -1    0    0    0    0  0.00000000000E+00  0.00000000000E+00  0.74505805969E-08  0.10566000000E+00  0.10566000000E+00 0.  1.
     999900   -1    0    0    0    0 -0.00000000000E+00 -0.00000000000E+00 -0.74505805969E-08  0.93827000000E+00  0.93827000000E+00 0.  1.
     999902    2    1    2    0    0 -0.68828580605E-02 -0.11713042137E-01 -0.18558796577E-01  0.10209300430E+01  0.10206709336E+01 0.  0.
     999903    2    3    3    0    0 -0.10674716956E+00 -0.37169563418E-01 -0.68119264693E-01  0.13353094723E+00  0.20340722520E-01 0.  0.
         14    1    1    2    0    0  0.68828580605E-02  0.11713042137E-01  0.18558796577E-01  0.22999956991E-01  0.00000000000E+00 0.  1.
     999901    1    3    3    0    0  0.99864311499E-01  0.25456521281E-01  0.49560468117E-01  0.88739909578E+00  0.88000000000E+00 0. -1.
        -11    1    4    4    0    0 -0.68733176443E-01 -0.13577973211E-01 -0.43350701030E-01  0.82390262175E-01  0.51100000000E-03 0. -1.
         11    1    4    4    0    0 -0.38013993116E-01 -0.23591590207E-01 -0.24768563663E-01  0.51140685057E-01  0.51100000000E-03 0.  1.
</event>
<event>
 8    1  0.1106168E+005  0.1043930E+01  0.7957747E-01            NaN
         13   -1    0    0    0    0  0.00000000000E+00  0.00000000000E+00  0.74505805969E-08  0.10566000000E+00  0.10566000000E+00 0. -1.
     999900   -1    0    0    0    0 -0.00000000000E+00 -0.00000000000E+00 -0.74505805969E-08  0.93827000000E+00  0.93827000000E+00 0. -1.
     999902    2    1    2    0    0  0.12288064436E-01  0.66377519259E-02  0.19261964083E-01  0.10201375739E+01  0.10198600836E+01 0.  0.
     999903    2    3    3    0    0  0.96298663862E-01 -0.67448845599E-01  0.57018394935E-01  0.13223434000E+00  0.20298863991E-01 0.  0.
         14    1    1    2    0    0 -0.12288064436E-01 -0.66377519259E-02 -0.19261964083E-01  0.23792426075E-01  0.00000000000E+00 0.  1.
     999901    1    3    3    0    0 -0.84010599426E-01  0.74086597525E-01 -0.37756430853E-01  0.88790323393E+00  0.88000000000E+00 0. -1.
        -11    1    4    4    0    0  0.46115622252E-01 -0.21375732578E-01  0.19373844802E-01  0.54398341356E-01  0.51100000000E-03 0.  1.
         11    1    4    4    0    0  0.50183041610E-01 -0.46073113021E-01  0.37644550133E-01  0.77835998641E-01  0.51100000000E-03 0. -1.
</event>
<event>
 8    1  0.1106168E+005  0.1043930E+01  0.7957747E-01            NaN
         13   -1    0    0    0    0  0.00000000000E+00  0.00000000000E+00  0.74505805969E-08  0.10566000000E+00  0.10566000000E+00 0.  1.
     999900   -1    0    0    0    0 -0.00000000000E+00 -0.00000000000E+00 -0.74505805969E-08  0.93827000000E+00  0.93827000000E+00 0.  1.
     999902    2    1    2    0    0  0.20049083651E-01 -0.11726190503E-01  0.51574908350E-02  0.10201377952E+01  0.10198603101E+01 0.  0.
     999903    2    3    3    0    0  0.84088396289E-01 -0.99955945492E-01 -0.16605824061E-01  0.13314333910E+00  0.19731850489E-01 0.  0.
         14    1    1    2    0    0 -0.20049083651E-01  0.11726190503E-01 -0.51574908350E-02  0.23792204830E-01  0.00000000000E+00 0.  1.
     999901    1    3    3    0    0 -0.64039312639E-01  0.88229754988E-01  0.21763314896E-01  0.88699445607E+00  0.88000000000E+00 0. -1.
        -11    1    4    4    0    0  0.13981933754E-01 -0.22878410579E-01 -0.10408256634E-01  0.28766457364E-01  0.51100000000E-03 0.  1.
         11    1    4    4    0    0  0.70106462535E-01 -0.77077534913E-01 -0.61975674266E-02  0.10437688173E+00  0.51100000000E-03 0. -1.
</event>
<event>
 8    1  0.1106168E+005  0.1043930E+01  0.7957747E-01            NaN
         13   -1    0    0    0    0  0.00000000000E+00  0.00000000000E+00  0.74505805969E-08  0.10566000000E+00  0.10566000000E+00 0.  1.
     999900   -1    0    0    0    0 -0.00000000000E+00 -0.00000000000E+00 -0.74505805969E-08  0.93827000000E+00  0.93827000000E+00 0. -1.
     999902    2    1    2    0    0 -0.18337842136E-01 -0.40474150919E-02 -0.14738944660E-01  0.10200575365E+01  0.10197781540E+01 0.  0.
     999903    2    3    3    0    0  0.92957862775E-02 -0.12003734524E-01  0.12586916958E+00  0.12843117855E+00  0.20518735027E-01 0.  0.
         14    1    1    2    0    0  0.18337842136E-01  0.40474150919E-02  0.14738944660E-01  0.23872463484E-01  0.00000000000E+00 0. -1.
     999901    1    3    3    0    0 -0.27633628413E-01  0.79563194324E-02 -0.14060811424E+00  0.89162635797E+00  0.88000000000E+00 0. -1.
        -11    1    4    4    0    0 -0.57049362599E-02 -0.36700726557E-02  0.59100108519E-01  0.59490332651E-01  0.51100000000E-03 0.  1.
         11    1    4    4    0    0  0.15000722537E-01 -0.83336618685E-02  0.66769061060E-01  0.68940845894E-01  0.51100000000E-03 0. -1.
</event>
<event>
 8    1  0.1106168E+005  0.1043930E+01  0.7957747E-01            NaN
         13   -1    0    0    0    0  0.00000000000E+00  0.00000000000E+00  0.74505805969E-08  0.10566000000E+00  0.10566000000E+00 0. -1.
     999900   -1    0    0    0    0 -0.00000000000E+00 -0.00000000000E+00 -0.74505805969E-08  0.93827000000E+00  0.93827000000E+00 0.  1.
     999902    2    1    2    0    0 -0.54680586884E-02  0.20625426045E-01 -0.98692763565E-02  0.10204202046E+01  0.10201493437E+01 0.  0.
     999903    2    3    3    0    0 -0.10108281303E-01  0.82485695154E-01  0.99621697060E-01  0.13146773238E+00  0.21288843911E-01 0.  0.
         14    1    1    2    0    0  0.54680586884E-02 -0.20625426045E-01  0.98692763565E-02  0.23509795430E-01  0.00000000000E+00 0. -1.
     999901    1    3    3    0    0  0.46402226146E-02 -0.61860269109E-01 -0.10949097342E+00  0.88895247219E+00  0.88000000000E+00 0.  1.
        -11    1    4    4    0    0 -0.99635955499E-02  0.26642743202E-01  0.45744782411E-01  0.53869798964E-01  0.51100000000E-03 0. -1.
         11    1    4    4    0    0 -0.14468575307E-03  0.55842951952E-01  0.53876914649E-01  0.77597933412E-01  0.51100000000E-03 0.  1.
</event>
<event>
 8    1  0.1106168E+005  0.1043930E+01  0.7957747E-01            NaN
         13   -1    0    0    0    0  0.00000000000E+00  0.00000000000E+00  0.74505805969E-08  0.10566000000E+00  0.10566000000E+00 0. -1.
     999900   -1    0    0    0    0 -0.00000000000E+00 -0.00000000000E+00 -0.74505805969E-08  0.93827000000E+00  0.93827000000E+00 0. -1.
     999902    2    1    2    0    0  0.22406674198E-01 -0.50439955275E-02  0.69745366983E-02  0.10199269772E+01  0.10196444938E+01 0.  0.
     999903    2    3    3    0    0  0.41119436325E-01 -0.12034023430E+00 -0.27472950652E-01  0.13154078896E+00  0.19381333965E-01 0.  0.
         14    1    1    2    0    0 -0.22406674198E-01  0.50439955275E-02 -0.69745366983E-02  0.24003022761E-01  0.00000000000E+00 0.  1.
     999901    1    3    3    0    0 -0.18712762128E-01  0.11529623878E+00  0.34447487351E-01  0.88838618828E+00  0.88000000000E+00 0. -1.
        -11    1    4    4    0    0  0.15266817858E-01 -0.30060415945E-01 -0.14633079195E-01  0.36757209660E-01  0.51100000000E-03 0. -1.
         11    1    4    4    0    0  0.25852618468E-01 -0.90279818359E-01 -0.12839871458E-01  0.94783579299E-01  0.51100000000E-03 0.  1.
</event>
<event>
 8    1  0.1106168E+005  0.1043930E+01  0.7957747E-01            NaN
         13   -1    0    0    0    0  0.00000000000E+00  0.00000000000E+00  0.74505805969E-08  0.10566000000E+00  0.10566000000E+00 0. -1.
     999900   -1    0    0    0    0 -0.00000000000E+00 -0.00000000000E+00 -0.74505805969E-08  0.93827000000E+00  0.93827000000E+00 0.  1.
     999902    2    1    2    0    0  0.18952068446E-01 -0.12542623819E-01 -0.77761877341E-02  0.10199098542E+01  0.10196269628E+01 0.  0.
     999903    2    3    3    0    0  0.93562317731E-01 -0.88974609708E-01 -0.26142586936E-01  0.13326118507E+00  0.20117657017E-01 0.  0.
         14    1    1    2    0    0 -0.18952068446E-01  0.12542623819E-01  0.77761877341E-02  0.24020145843E-01  0.00000000000E+00 0. -1.
     999901    1    3    3    0    0 -0.74610249285E-01  0.76431985889E-01  0.18366399202E-01  0.88664866908E+00  0.88000000000E+00 0.  1.
        -11    1    4    4    0    0  0.27768118673E-01 -0.36707192002E-01 -0.15450814752E-01  0.48553837714E-01  0.51100000000E-03 0. -1.
         11    1    4    4    0    0  0.65794199058E-01 -0.52267417706E-01 -0.10691772185E-01  0.84707347360E-01  0.51100000000E-03 0.  1.
</event>
<event>
 8    1  0.1106168E+005  0.1043930E+01  0.7957747E-01            NaN
         13   -1    0    0    0    0  0.00000000000E+00  0.00000000000E+00  0.74505805969E-08  0.10566000000E+00  0.10566000000E+00 0. -1.
     999900   -1    0    0    0    0 -0.00000000000E+00 -0.00000000000E+00 -0.74505805969E-08  0.93827000000E+00  0.93827000000E+00 0.  1.
     999902    2    1    2    0    0 -0.74454892447E-02 -0.53537345515E-02  0.22874897714E-01  0.10192853509E+01  0.10189873737E+01 0.  0.
     999903    2    3    3    0    0  0.44682184309E-02 -0.10855183693E+00  0.71995210955E-01  0.13181445564E+00  0.19704670456E-01 0.  0.
         14    1    1    2    0    0  0.74454892447E-02  0.53537345515E-02 -0.22874897714E-01  0.24644649098E-01  0.00000000000E+00 0.  1.
     999901    1    3    3    0    0 -0.11913707676E-01  0.10319810238E+00 -0.49120313241E-01  0.88747089526E+00  0.88000000000E+00 0.  1.
        -11    1    4    4    0    0  0.95273146768E-02 -0.25857159453E-01  0.17482260241E-01  0.32638213248E-01  0.51100000000E-03 0.  1.
         11    1    4    4    0    0 -0.50590962459E-02 -0.82694677480E-01  0.54512950714E-01  0.99176242391E-01  0.51100000000E-03 0. -1.
</event>
<event>
 8    1  0.1106168E+005  0.1043930E+01  0.7957747E-01            NaN
         13   -1    0    0    0    0  0.00000000000E+00  0.00000000000E+00  0.74505805969E-08  0.10566000000E+00  0.10566000000E+00 0. -1.
     999900   -1    0    0    0    0 -0.00000000000E+00 -0.00000000000E+00 -0.74505805969E-08  0.93827000000E+00  0.93827000000E+00 0. -1.
     999902    2    1    2    0    0 -0.20090986424E-02 -0.23442596301E-01 -0.68654959572E-03  0.10203914540E+01  0.10201199225E+01 0.  0.
     999903    2    3    3    0    0 -0.43438719450E-01  0.10956630149E+00  0.46245189132E-01  0.12819732237E+00  0.20105700050E-01 0.  0.
         14    1    1    2    0    0  0.20090986424E-02  0.23442596301E-01  0.68654959572E-03  0.23538546026E-01  0.00000000000E+00 0.  1.
     999901    1    3    3    0    0  0.41429620808E-01 -0.13300889779E+00 -0.46931738727E-01  0.89219413161E+00  0.88000000000E+00 0. -1.
        -11    1    4    4    0    0 -0.37605224615E-01  0.93510147963E-01  0.31422645642E-01  0.10557435517E+00  0.51100000000E-03 0.  1.
         11    1    4    4    0    0 -0.58334948348E-02  0.16056153528E-01  0.14822543490E-01  0.22622967193E-01  0.51100000000E-03 0. -1.
</event>
<event>
 8    1  0.1106168E+005  0.1043930E+01  0.7957747E-01            NaN
         13   -1    0    0    0    0  0.00000000000E+00  0.00000000000E+00  0.74505805969E-08  0.10566000000E+00  0.10566000000E+00 0.  1.
     999900   -1    0    0    0    0 -0.00000000000E+00 -0.00000000000E+00 -0.74505805969E-08  0.93827000000E+00  0.93827000000E+00 0. -1.
     999902    2    1    2    0    0 -0.12148746260E-01 -0.17682894824E-01 -0.81274981604E-02  0.10209880508E+01  0.10207302616E+01 0.  0.
     999903    2    3    3    0    0 -0.10918699248E+00  0.53574844750E-02 -0.72842907776E-01  0.13299291315E+00  0.20749066722E-01 0.  0.
         14    1    1    2    0    0  0.12148746260E-01  0.17682894824E-01  0.81274981604E-02  0.22941949163E-01  0.00000000000E+00 0.  1.
     999901    1    3    3    0    0  0.97038246218E-01 -0.23040379299E-01  0.64715409615E-01  0.88799513768E+00  0.88000000000E+00 0. -1.
        -11    1    4    4    0    0 -0.76167129144E-01  0.12678959573E-01 -0.46681995676E-01  0.90231133314E-01  0.51100000000E-03 0.  1.
         11    1    4    4    0    0 -0.33019863333E-01 -0.73214750982E-02 -0.26160912100E-01  0.42761779840E-01  0.51100000000E-03 0. -1.
</event>
<event>
 8    1  0.1106168E+005  0.1043930E+01  0.7957747E-01            NaN
         13   -1    0    0    0    0  0.00000000000E+00  0.00000000000E+00  0.74505805969E-08  0.10566000000E+00  0.10566000000E+00 0.  1.
     999900   -1    0    0    0    0 -0.00000000000E+00 -0.00000000000E+00 -0.74505805969E-08  0.93827000000E+00  0.93827000000E+00 0.  1.
     999902    2    1    2    0    0  0.13606781752E-01  0.18824283343E-01  0.81915180380E-03  0.10206884604E+01  0.10204238159E+01 0.  0.
     999903    2    3    3    0    0 -0.40569513099E-01  0.10586442964E+00 -0.65248844665E-01  0.13227637238E+00  0.19658690301E-01 0.  0.
         14    1    1    2    0    0 -0.13606781752E-01 -0.18824283343E-01 -0.81915180380E-03  0.23241539594E-01  0.00000000000E+00 0. -1.
     999901    1    3    3    0    0  0.54176294851E-01 -0.87040146296E-01  0.66067996469E-01  0.88841208802E+00  0.88000000000E+00 0. -1.
        -11    1    4    4    0    0 -0.91656341697E-02  0.42319337762E-01 -0.16952781247E-01  0.46503689223E-01  0.51100000000E-03 0.  1.
         11    1    4    4    0    0 -0.31403878929E-01  0.63545091876E-01 -0.48296063419E-01  0.85772683158E-01  0.51100000000E-03 0. -1.
</event>
<event>
 8    1  0.1106168E+005  0.1043930E+01  0.7957747E-01            NaN
         13   -1    0    0    0    0  0.00000000000E+00  0.00000000000E+00  0.74505805969E-08  0.10566000000E+00  0.10566000000E+00 0. -1.
     999900   -1    0    0    0    0 -0.00000000000E+00 -0.00000000000E+00 -0.74505805969E-08  0.93827000000E+00  0.93827000000E+00 0. -1.
     999902    2    1    2    0    0 -0.60698208917E-02  0.12774305860E-01  0.18742806653E-01  0.10204498293E+01  0.10201796585E+01 0.  0.
     999903    2    3    3    0    0 -0.16264949561E-01  0.11042368537E-01  0.13029218474E+00  0.13334769085E+00  0.20471217927E-01 0.  0.
         14    1    1    2    0    0  0.60698208917E-02 -0.12774305860E-01 -0.18742806653E-01  0.23480170721E-01  0.00000000000E+00 0.  1.
     999901    1    3    3    0    0  0.10195128670E-01  0.17319373234E-02 -0.11154937809E+00  0.88710213843E+00  0.88000000000E+00 0. -1.
        -11    1    4    4    0    0 -0.20310990819E-01  0.11611389460E-01  0.12003563749E+00  0.12229544596E+00  0.51100000000E-03 0.  1.
         11    1    4    4    0    0  0.40460412572E-02 -0.56902092327E-03  0.10256547247E-01  0.11052244890E-01  0.51100000000E-03 0. -1.
</event>
<event>
 8    1  0.1106168E+005  0.1043930E+01  0.7957747E-01            NaN
         13   -1    0    0    0    0  0.00000000000E+00  0.00000000000E+00  0.74505805969E-08  0.10566000000E+00  0.10566000000E+00 0. -1.
     999900   -1    0    0    0    0 -0.00000000000E+00 -0.00000000000E+00 -0.74505805969E-08  0.93827000000E+00  0.93827000000E+00 0.  1.
     999902    2    1    2    0    0 -0.26127899628E-02 -0.24001628296E-01 -0.94885874186E-02  0.10179889491E+01  0.10176583721E+01 0.  0.
     999903    2    3    3    0    0  0.22467914349E-01 -0.12747500105E+00 -0.11807131257E-01  0.13156853175E+00  0.20400664952E-01 0.  0.
         14    1    1    2    0    0  0.26127899628E-02  0.24001628296E-01  0.94885874186E-02  0.25941050932E-01  0.00000000000E+00 0. -1.
     999901    1    3    3    0    0 -0.25080704312E-01  0.10347337275E+00  0.23185438388E-02  0.88642041732E+00  0.88000000000E+00 0.  1.
        -11    1    4    4    0    0  0.56949487176E-02 -0.57266586754E-01 -0.14437610861E-01  0.59334645257E-01  0.51100000000E-03 0. -1.
         11    1    4    4    0    0  0.16772965632E-01 -0.70208414293E-01  0.26304796035E-02  0.72233886491E-01  0.51100000000E-03 0.  1.
</event>
<event>
 8    1  0.1106168E+005  0.1043930E+01  0.7957747E-01            NaN
         13   -1    0    0    0    0  0.00000000000E+00  0.00000000000E+00  0.74505805969E-08  0.10566000000E+00  0.10566000000E+00 0. -1.
     999900   -1    0    0    0    0 -0.00000000000E+00 -0.00000000000E+00 -0.74505805969E-08  0.93827000000E+00  0.93827000000E+00 0. -1.
     999902    2    1    2    0    0 -0.15492087491E-01  0.12448670091E-01  0.11496586280E-01  0.10209703472E+01  0.10207121554E+01 0.  0.
     999903    2    3    3    0    0 -0.12276235017E+00 -0.37611318834E-01 -0.24561823770E-01  0.13231230232E+00  0.20446423501E-01 0.  0.
         14    1    1    2    0    0  0.15492087491E-01 -0.12448670091E-01 -0.11496586280E-01  0.22959652828E-01  0.00000000000E+00 0.  1.
     999901    1    3    3    0    0  0.10727026268E+00  0.50059988925E-01  0.36058410051E-01  0.88865804485E+00  0.88000000000E+00 0.  1.
        -11    1    4    4    0    0 -0.10799453846E+00 -0.39212948968E-01 -0.19066431352E-01  0.11646572728E+00  0.51100000000E-03 0. -1.
         11    1    4    4    0    0 -0.14767811710E-01  0.16016301338E-02 -0.54953924184E-02  0.15846575044E-01  0.51100000000E-03 0.  1.
</event>
<event>
 8    1  0.1106168E+005  0.1043930E+01  0.7957747E-01            NaN
         13   -1    0    0    0    0  0.00000000000E+00  0.00000000000E+00  0.74505805969E-08  0.10566000000E+00  0.10566000000E+00 0. -1.
     999900   -1    0    0    0    0 -0.00000000000E+00 -0.00000000000E+00 -0.74505805969E-08  0.93827000000E+00  0.93827000000E+00 0.  1.
     999902    2    1    2    0    0  0.21772017057E-01 -0.81278103146E-02  0.38377723592E-02  0.10203755838E+01  0.10201036817E+01 0.  0.
     999903    2    3    3    0    0  0.67111501530E-02  0.12681155817E+00  0.18569309248E-01  0.12984064282E+00  0.19686606111E-01 0.  0.
         14    1    1    2    0    0 -0.21772017057E-01  0.81278103146E-02 -0.38377723592E-02  0.23554416230E-01  0.00000000000E+00 0. -1.
     999901    1    3    3    0    0  0.15060866904E-01 -0.13493936848E+00 -0.14731536889E-01  0.89053494095E+00  0.88000000000E+00 0. -1.
        -11    1    4    4    0    0  0.13691762920E-01  0.81756678373E-01  0.11068521690E-01  0.83632482469E-01  0.51100000000E-03 0. -1.
         11    1    4    4    0    0 -0.69806127667E-02  0.45054879794E-01  0.75007875579E-02  0.46208160349E-01  0.51100000000E-03 0.  1.
</event>
<event>
 8    1  0.1106168E+005  0.1043930E+01  0.7957747E-01            NaN
         13   -1    0    0    0    0  0.00000000000E+00  0.00000000000E+00  0.74505805969E-08  0.10566000000E+00  0.10566000000E+00 0.  1.
     999900   -1    0    0    0    0 -0.00000000000E+00 -0.00000000000E+00 -0.74505805969E-08  0.93827000000E+00  0.93827000000E+00 0.  1.
     999902    2    1    2    0    0 -0.43525503429E-02  0.19007483237E-01  0.13566574755E-01  0.10201753991E+01  0.10198988008E+01 0.  0.
     999903    2    3    3    0    0 -0.10862724583E+00  0.51442418916E-01  0.51961839325E-01  0.13259473599E+00  0.20859776306E-01 0.  0.
         14    1    1    2    0    0  0.43525503429E-02 -0.19007483237E-01 -0.13566574755E-01  0.23754600903E-01  0.00000000000E+00 0. -1.
     999901    1    3    3    0    0  0.10427469548E+00 -0.32434935679E-01 -0.38395264571E-01  0.88758066310E+00  0.88000000000E+00 0.  1.
        -11    1    4    4    0    0 -0.10230919716E-01  0.11609731887E-01  0.33593390441E-02  0.15843101733E-01  0.51100000000E-03 0. -1.
         11    1    4    4    0    0 -0.98396326111E-01  0.39832687030E-01  0.48602500281E-01  0.11675163426E+00  0.51100000000E-03 0.  1.
</event>
<event>
 8    1  0.1106168E+005  0.1043930E+01  0.7957747E-01            NaN
         13   -1    0    0    0    0  0.00000000000E+00  0.00000000000E+00  0.74505805969E-08  0.10566000000E+00  0.10566000000E+00 0. -1.
     999900   -1    0    0    0    0 -0.00000000000E+00 -0.00000000000E+00 -0.74505805969E-08  0.93827000000E+00  0.93827000000E+00 0. -1.
     999902    2    1    2    0    0 -0.16204786802E-01 -0.15555615462E-01 -0.76935625167E-02  0.10201863021E+01  0.10199099606E+01 0.  0.
     999903    2    3    3    0    0  0.95966333344E-01 -0.17687639967E-01  0.81148154081E-01  0.12862600890E+00  0.20910225075E-01 0.  0.
         14    1    1    2    0    0  0.16204786802E-01  0.15555615462E-01  0.76935625167E-02  0.23743697941E-01  0.00000000000E+00 0. -1.
     999901    1    3    3    0    0 -0.11217112015E+00  0.21320245048E-02 -0.88841716597E-01  0.89156029316E+00  0.88000000000E+00 0. -1.
        -11    1    4    4    0    0  0.65876011225E-01 -0.79025846138E-02  0.65836519523E-01  0.93470894520E-01  0.51100000000E-03 0. -1.
         11    1    4    4    0    0  0.30090322119E-01 -0.97850553532E-02  0.15311634558E-01  0.35155114383E-01  0.51100000000E-03 0.  1.
</event>
<event>
 8    1  0.1106168E+005  0.1043930E+01  0.7957747E-01            NaN
         13   -1    0    0    0    0  0.00000000000E+00  0.00000000000E+00  0.74505805969E-08  0.10566000000E+00  0.10566000000E+00 0. -1.
     999900   -1    0    0    0    0 -0.00000000000E+00 -0.00000000000E+00 -0.74505805969E-08  0.93827000000E+00  0.93827000000E+00 0.  1.
     999902    2    1    2    0    0  0.11133236463E-01  0.17694268248E-01 -0.12034739484E-01  0.10198079968E+01  0.10195226723E+01 0.  0.
     999903    2    3    3    0    0  0.68465507975E-01 -0.10640431104E+00 -0.14062430742E-01  0.12925111583E+00  0.22331497837E-01 0.  0.
         14    1    1    2    0    0 -0.11133236463E-01 -0.17694268248E-01  0.12034739484E-01  0.24122003180E-01  0.00000000000E+00 0.  1.
     999901    1    3    3    0    0 -0.57332271512E-01  0.12409857929E+00  0.20276912576E-02  0.89055688099E+00  0.88000000000E+00 0.  1.
        -11    1    4    4    0    0  0.42549090779E-01 -0.48946654353E-01 -0.13328920751E-01  0.66212697784E-01  0.51100000000E-03 0. -1.
         11    1    4    4    0    0  0.25916417196E-01 -0.57457656688E-01 -0.73350999075E-03  0.63038418051E-01  0.51100000000E-03 0.  1.
</event>
<event>
 8    1  0.1106168E+005  0.1043930E+01  0.7957747E-01            NaN
         13   -1    0    0    0    0  0.00000000000E+00  0.00000000000E+00  0.74505805969E-08  0.10566000000E+00  0.10566000000E+00 0. -1.
     999900   -1    0    0    0    0 -0.00000000000E+00 -0.00000000000E+00 -0.74505805969E-08  0.93827000000E+00  0.93827000000E+00 0. -1.
     999902    2    1    2    0    0  0.14704603531E-01 -0.18638407372E-01 -0.19950066065E-02  0.10201057341E+01  0.10198274918E+01 0.  0.
     999903    2    3    3    0    0  0.39314118397E-01  0.17737790171E-01 -0.12187187598E+00  0.13089298128E+00  0.20493640137E-01 0.  0.
         14    1    1    2    0    0 -0.14704603531E-01  0.18638407372E-01  0.19950066065E-02  0.23824265901E-01  0.00000000000E+00 0.  1.
     999901    1    3    3    0    0 -0.24609514866E-01 -0.36376197543E-01  0.11987686938E+00  0.88921275282E+00  0.88000000000E+00 0.  1.
        -11    1    4    4    0    0  0.57283934139E-02 -0.33699514895E-02 -0.86381107151E-02  0.10910964296E-01  0.51100000000E-03 0.  1.
         11    1    4    4    0    0  0.33585724983E-01  0.21107741660E-01 -0.11323376527E+00  0.11998201698E+00  0.51100000000E-03 0. -1.
</event>
<event>
 8    1  0.1106168E+005  0.1043930E+01  0.7957747E-01            NaN
         13   -1    0    0    0    0  0.00000000000E+00  0.00000000000E+00  0.74505805969E-08  0.10566000000E+00  0.10566000000E+00 0.  1.
     999900   -1    0    0    0    0 -0.00000000000E+00 -0.00000000000E+00 -0.74505805969E-08  0.93827000000E+00  0.93827000000E+00 0.  1.
     999902    2    1    2    0    0 -0.14922583687E-01  0.12642649696E-01  0.11716641152E-01  0.10211308821E+01  0.10208763288E+01 0.  0.
     999903    2    3    3    0    0 -0.10163986136E+00 -0.45173285940E-01 -0.67855695151E-01  0.13141501437E+00  0.17152943123E-01 0.  0.
         14    1    1    2    0    0  0.14922583687E-01 -0.12642649696E-01 -0.11716641152E-01  0.22799117858E-01  0.00000000000E+00 0. -1.
     999901    1    3    3    0    0  0.86717277672E-01  0.57815935636E-01  0.79572336303E-01  0.88971586777E+00  0.88000000000E+00 0. -1.
        -11    1    4    4    0    0 -0.52803082810E-01 -0.24844401383E-01 -0.45430765606E-01  0.73956915964E-01  0.51100000000E-03 0. -1.
         11    1    4    4    0    0 -0.48836778549E-01 -0.20328884557E-01 -0.22424929544E-01  0.57458098406E-01  0.51100000000E-03 0.  1.
</event>
<event>
 8    1  0.1106168E+005  0.1043930E+01  0.7957747E-01            NaN
         13   -1    0    0    0    0  0.00000000000E+00  0.00000000000E+00  0.74505805969E-08  0.10566000000E+00  0.10566000000E+00 0.  1.
     999900   -1    0    0    0    0 -0.00000000000E+00 -0.00000000000E+00 -0.74505805969E-08  0.93827000000E+00  0.93827000000E+00 0. -1.
     999902    2    1    2    0    0  0.37546111817E-02  0.43559947291E-02 -0.22567386584E-01  0.10206414034E+01  0.10203756737E+01 0.  0.
     999903    2    3    3    0    0 -0.41128338022E-01  0.88489233026E-02 -0.12508699501E+00  0.13354223438E+00  0.20418824902E-01 0.  0.
         14    1    1    2    0    0 -0.37546111817E-02 -0.43559947291E-02  0.22567386584E-01  0.23288596618E-01  0.00000000000E+00 0.  1.
     999901    1    3    3    0    0  0.44882949204E-01 -0.44929285735E-02  0.10251960842E+00  0.88709916900E+00  0.88000000000E+00 0.  1.
        -11    1    4    4    0    0 -0.32636142144E-01 -0.20911501318E-02 -0.93251631867E-01  0.98821144751E-01  0.51100000000E-03 0.  1.
         11    1    4    4    0    0 -0.84921958775E-02  0.10940073434E-01 -0.31835363141E-01  0.34721089627E-01  0.51100000000E-03 0. -1.
</event>
<event>
 8    1  0.1106168E+005  0.1043930E+01  0.7957747E-01            NaN
         13   -1    0    0    0    0  0.00000000000E+00  0.00000000000E+00  0.74505805969E-08  0.10566000000E+00  0.10566000000E+00 0. -1.
     999900   -1    0    0    0    0 -0.00000000000E+00 -0.00000000000E+00 -0.74505805969E-08  0.93827000000E+00  0.93827000000E+00 0.  1.
     999902    2    1    2    0    0  0.18075569317E-01  0.14664333554E-01 -0.34080925081E-02  0.10204058852E+01  0.10201346904E+01 0.  0.
     999903    2    3    3    0    0  0.12427424042E-02  0.45273720431E-01 -0.12209540219E+00  0.13175130878E+00  0.19996648743E-01 0.  0.
         14    1    1    2    0    0 -0.18075569317E-01 -0.14664333554E-01  0.34080925081E-02  0.23524114845E-01  0.00000000000E+00 0. -1.
     999901    1    3    3    0    0  0.16832826913E-01 -0.30609386877E-01  0.11868730968E+00  0.88865457637E+00  0.88000000000E+00 0. -1.
        -11    1    4    4    0    0  0.14014447262E-03  0.42449146051E-01 -0.90009953669E-01  0.99518855105E-01  0.51100000000E-03 0.  1.
         11    1    4    4    0    0  0.11025979316E-02  0.28245743804E-02 -0.32085448516E-01  0.32232453678E-01  0.51100000000E-03 0. -1.
</event>
<event>
 8    1  0.1106168E+005  0.1043930E+01  0.7957747E-01            NaN
         13   -1    0    0    0    0  0.00000000000E+00  0.00000000000E+00  0.74505805969E-08  0.10566000000E+00  0.10566000000E+00 0.  1.
     999900   -1    0    0    0    0 -0.00000000000E+00 -0.00000000000E+00 -0.74505805969E-08  0.93827000000E+00  0.93827000000E+00 0.  1.
     999902    2    1    2    0    0  0.12348999211E-01  0.71777836431E-03 -0.20884542498E-01  0.10196570294E+01  0.10193680790E+01 0.  0.
     999903    2    3    3    0    0  0.18258946648E-01 -0.48195148237E-01 -0.12057401704E+00  0.13265906253E+00  0.20104025465E-01 0.  0.
         14    1    1    2    0    0 -0.12348999211E-01 -0.71777836431E-03  0.20884542498E-01  0.24272970619E-01  0.00000000000E+00 0.  1.
     999901    1    3    3    0    0 -0.59099474362E-02  0.48912926602E-01  0.99689474539E-01  0.88699796685E+00  0.88000000000E+00 0. -1.
        -11    1    4    4    0    0  0.20221381826E-01 -0.33776689174E-01 -0.99849276869E-01  0.10733083540E+00  0.51100000000E-03 0.  1.
         11    1    4    4    0    0 -0.19624351784E-02 -0.14418459064E-01 -0.20724740169E-01  0.25328227132E-01  0.51100000000E-03 0. -1.
</event>
<event>
 8    1  0.1106168E+005  0.1043930E+01  0.7957747E-01            NaN
         13   -1    0    0    0    0  0.00000000000E+00  0.00000000000E+00  0.74505805969E-08  0.10566000000E+00  0.10566000000E+00 0.  1.
     999900   -1    0    0    0    0 -0.00000000000E+00 -0.00000000000E+00 -0.74505805969E-08  0.93827000000E+00  0.93827000000E+00 0.  1.
     999902    2    1    2    0    0  0.15537542003E-01 -0.16211188604E-01 -0.90142615225E-02  0.10197334143E+01  0.10194463014E+01 0.  0.
     999903    2    3    3    0    0 -0.72853700373E-01  0.58308209457E-01 -0.86440867692E-01  0.12880073912E+00  0.20250872606E-01 0.  0.
         14    1    1    2    0    0 -0.15537542003E-01  0.16211188604E-01  0.90142615225E-02  0.24196585673E-01  0.00000000000E+00 0.  1.
     999901    1    3    3    0    0  0.88391242376E-01 -0.74519398061E-01  0.77426606169E-01  0.89093267521E+00  0.88000000000E+00 0.  1.
        -11    1    4    4    0    0 -0.36791516471E-01  0.21614491804E-01 -0.50095325290E-01  0.65807329965E-01  0.51100000000E-03 0.  1.
         11    1    4    4    0    0 -0.36062183902E-01  0.36693717653E-01 -0.36345542402E-01  0.62993409150E-01  0.51100000000E-03 0. -1.
</event>
<event>
 7    1  0.1106168E+005  0.1043930E+01  0.7957747E-01            NaN
         13   -1    0    0    0    0  0.00000000000E+00  0.00000000000E+00  0.74505805969E-08  0.10566000000E+00  0.10566000000E+00 0. -1.
     999900   -1    0    0    0    0 -0.00000000000E+00 -0.00000000000E+00 -0.74505805969E-08  0.93827000000E+00  0.93827000000E+00 0.  1.
     999903    2    1    2    0    0 -0.64700026968E-01  0.74068501396E-01 -0.43875634838E-01  0.10952529371E+00  0.19962019939E-01 0.  0.
         14    1    1    2    0    0  0.26727516615E-01  0.35702536069E-01  0.12067755470E-01  0.46202401975E-01  0.00000000000E+00 0.  1.
     999901    1    1    2    0    0  0.37972510353E-01 -0.10977103746E+00  0.31807879368E-01  0.88820230432E+00  0.88000000000E+00 0. -1.
        -11    1    3    3    0    0 -0.34976591395E-01  0.36558047591E-01 -0.33107999883E-01  0.60466962604E-01  0.51100000000E-03 0.  1.
         11    1    3    3    0    0 -0.29723435573E-01  0.37510453806E-01 -0.10767634955E-01  0.49058331102E-01  0.51100000000E-03 0. -1.
</event>
<event>
 8    1  0.1106168E+005  0.1043930E+01  0.7957747E-01            NaN
         13   -1    0    0    0    0  0.00000000000E+00  0.00000000000E+00  0.74505805969E-08  0.10566000000E+00  0.10566000000E+00 0.  1.
     999900   -1    0    0    0    0 -0.00000000000E+00 -0.00000000000E+00 -0.74505805969E-08  0.93827000000E+00  0.93827000000E+00 0. -1.
     999902    2    1    2    0    0  0.23877124014E-02  0.16231790090E-01  0.16118944277E-01  0.10209301621E+01  0.10206710554E+01 0.  0.
     999903    2    3    3    0    0  0.79877352928E-01  0.96149336072E-01 -0.38554535718E-01  0.13223412407E+00  0.19347480632E-01 0.  0.
         14    1    1    2    0    0 -0.23877124014E-02 -0.16231790090E-01 -0.16118944277E-01  0.22999837927E-01  0.00000000000E+00 0. -1.
     999901    1    3    3    0    0 -0.77489640527E-01 -0.79917545982E-01  0.54673479995E-01  0.88869603800E+00  0.88000000000E+00 0.  1.
        -11    1    4    4    0    0  0.12471255611E-01  0.74710033442E-02 -0.61271053429E-03  0.14559692396E-01  0.51100000000E-03 0. -1.
         11    1    4    4    0    0  0.67406097317E-01  0.88678332728E-01 -0.37941825183E-01  0.11767443168E+00  0.51100000000E-03 0.  1.
</event>
<event>
 8    1  0.1106168E+005  0.1043930E+01  0.7957747E-01            NaN
         13   -1    0    0    0    0  0.00000000000E+00  0.00000000000E+00  0.74505805969E-08  0.10566000000E+00  0.10566000000E+00 0.  1.
     999900   -1    0    0    0    0 -0.00000000000E+00 -0.00000000000E+00 -0.74505805969E-08  0.93827000000E+00  0.93827000000E+00 0.  1.
     999902    2    1    2    0    0 -0.15382671494E-01  0.13206360592E-01 -0.13214634482E-01  0.10197295639E+01  0.10194423586E+01 0.  0.
     999903    2    3    3    0    0 -0.12942134044E+00  0.16953029268E-01 -0.90029714194E-02  0.13235332260E+00  0.19976484793E-01 0.  0.
         14    1    1    2    0    0  0.15382671494E-01 -0.13206360592E-01  0.13214634482E-01  0.24200436088E-01  0.00000000000E+00 0. -1.
     999901    1    3    3    0    0  0.11403866895E+00 -0.37466686758E-02 -0.42116630624E-02  0.88737624131E+00  0.88000000000E+00 0. -1.
        -11    1    4    4    0    0 -0.50129714132E-01  0.12335605494E-01 -0.11473872802E-01  0.52887297907E-01  0.51100000000E-03 0.  1.
         11    1    4    4    0    0 -0.79291626313E-01  0.46174237740E-02  0.24709013824E-02  0.79466024691E-01  0.51100000000E-03 0. -1.
</event>
<event>
 8    1  0.1106168E+005  0.1043930E+01  0.7957747E-01            NaN
         13   -1    0    0    0    0  0.00000000000E+00  0.00000000000E+00  0.74505805969E-08  0.10566000000E+00  0.10566000000E+00 0.  1.
     999900   -1    0    0    0    0 -0.00000000000E+00 -0.00000000000E+00 -0.74505805969E-08  0.93827000000E+00  0.93827000000E+00 0.  1.
     999902    2    1    2    0    0  0.76654445611E-02 -0.17994119115E-01  0.13477785070E-01  0.10201771464E+01  0.10199005893E+01 0.  0.
     999903    2    3    3    0    0  0.53435656048E-01 -0.75184357606E-01  0.94635177185E-01  0.13341215053E+00  0.18301043176E-01 0.  0.
         14    1    1    2    0    0 -0.76654445611E-02  0.17994119115E-01 -0.13477785070E-01  0.23752853585E-01  0.00000000000E+00 0.  1.
     999901    1    3    3    0    0 -0.45770211487E-01  0.57190238491E-01 -0.81157392115E-01  0.88676499589E+00  0.88000000000E+00 0.  1.
        -11    1    4    4    0    0  0.35998607953E-01 -0.45114445623E-01  0.46963600035E-01  0.74411382380E-01  0.51100000000E-03 0. -1.
         11    1    4    4    0    0  0.17437048095E-01 -0.30069911983E-01  0.47671577149E-01  0.59000768146E-01  0.51100000000E-03 0.  1.
</event>
<event>
 8    1  0.1106168E+005  0.1043930E+01  0.7957747E-01            NaN
         13   -1    0    0    0    0  0.00000000000E+00  0.00000000000E+00  0.74505805969E-08  0.10566000000E+00  0.10566000000E+00 0.  1.
     999900   -1    0    0    0    0 -0.00000000000E+00 -0.00000000000E+00 -0.74505805969E-08  0.93827000000E+00  0.93827000000E+00 0.  1.
     999902    2    1    2    0    0  0.42654078317E-02 -0.52282943134E-02 -0.23106058458E-01  0.10198588824E+01  0.10195747747E+01 0.  0.
     999903    2    3    3    0    0  0.11214134993E+00  0.98622565502E-02  0.59799363852E-01  0.12927578540E+00  0.21524829952E-01 0.  0.
         14    1    1    2    0    0 -0.42654078317E-02  0.52282943134E-02  0.23106058458E-01  0.24071117607E-01  0.00000000000E+00 0.  1.
     999901    1    3    3    0    0 -0.10787594210E+00 -0.15090550864E-01 -0.82905422310E-01  0.89058309700E+00  0.88000000000E+00 0.  1.
        -11    1    4    4    0    0  0.68362348440E-01  0.26522883644E-02  0.47309081650E-01  0.83179658844E-01  0.51100000000E-03 0.  1.
         11    1    4    4    0    0  0.43779001489E-01  0.72099681858E-02  0.12490282202E-01  0.46096126552E-01  0.51100000000E-03 0. -1.
</event>
<event>
 8    1  0.1106168E+005  0.1043930E+01  0.7957747E-01            NaN
         13   -1    0    0    0    0  0.00000000000E+00  0.00000000000E+00  0.74505805969E-08  0.10566000000E+00  0.10566000000E+00 0.  1.
     999900   -1    0    0    0    0 -0.00000000000E+00 -0.00000000000E+00 -0.74505805969E-08  0.93827000000E+00  0.93827000000E+00 0.  1.
     999902    2    1    2    0    0  0.39865939446E-02  0.83771733137E-02 -0.21778267304E-01  0.10202580146E+01  0.10199833594E+01 0.  0.
     999903    2    3    3    0    0 -0.58259043669E-01 -0.10705816044E+00 -0.40828301666E-01  0.13033513063E+00  0.21557601299E-01 0.  0.
         14    1    1    2    0    0 -0.39865939446E-02 -0.83771733137E-02  0.21778267304E-01  0.23671985358E-01  0.00000000000E+00 0.  1.
     999901    1    3    3    0    0  0.62245637613E-01  0.11543533375E+00  0.19050034362E-01  0.88992288401E+00  0.88000000000E+00 0. -1.
        -11    1    4    4    0    0 -0.38032473469E-01 -0.70978152964E-01 -0.37514256656E-01  0.88836635516E-01  0.51100000000E-03 0.  1.
         11    1    4    4    0    0 -0.20226570200E-01 -0.36080007474E-01 -0.33140450101E-02  0.41498495114E-01  0.51100000000E-03 0. -1.
</event>
<event>
 8    1  0.1106168E+005  0.1043930E+01  0.7957747E-01            NaN
         13   -1    0    0    0    0  0.00000000000E+00  0.00000000000E+00  0.74505805969E-08  0.10566000000E+00  0.10566000000E+00 0. -1.
     999900   -1    0    0    0    0 -0.00000000000E+00 -0.00000000000E+00 -0.74505805969E-08  0.93827000000E+00  0.93827000000E+00 0.  1.
     999902    2    1    2    0    0  0.10308601405E-02 -0.10124150286E-01  0.21024534643E-01  0.10205720860E+01  0.10203047537E+01 0.  0.
     999903    2    3    3    0    0 -0.73559855259E-02 -0.39032303407E-01  0.12628098998E+00  0.13378860512E+00  0.19361590729E-01 0.  0.
         14    1    1    2    0    0 -0.10308601405E-02  0.10124150286E-01 -0.21024534643E-01  0.23357914047E-01  0.00000000000E+00 0.  1.
     999901    1    3    3    0    0  0.83868456664E-02  0.28908153120E-01 -0.10525645534E+00  0.88678348084E+00  0.88000000000E+00 0. -1.
        -11    1    4    4    0    0  0.43025389220E-02 -0.18525725636E-02  0.83712515199E-02  0.96063957491E-02  0.51100000000E-03 0.  1.
         11    1    4    4    0    0 -0.11658524448E-01 -0.37179730843E-01  0.11790973846E+00  0.12418220937E+00  0.51100000000E-03 0. -1.
</event>
<event>
 8    1  0.1106168E+005  0.1043930E+01  0.7957747E-01            NaN
         13   -1    0    0    0    0  0.00000000000E+00  0.00000000000E+00  0.74505805969E-08  0.10566000000E+00  0.10566000000E+00 0.  1.
     999900   -1    0    0    0    0 -0.00000000000E+00 -0.00000000000E+00 -0.74505805969E-08  0.93827000000E+00  0.93827000000E+00 0.  1.
     999902    2    1    2    0    0 -0.17935861445E-01 -0.20258104616E-03 -0.14700403662E-01  0.10207386647E+01  0.10204751754E+01 0.  0.
     999903    2    3    3    0    0 -0.10767998168E+00 -0.28026222004E-01 -0.71703351630E-01  0.13390299888E+00  0.20203833773E-01 0.  0.
         14    1    1    2    0    0  0.17935861445E-01  0.20258104616E-03  0.14700403662E-01  0.23191335293E-01  0.00000000000E+00 0.  1.
     999901    1    3    3    0    0  0.89744120232E-01  0.27823640958E-01  0.57002947969E-01  0.88683566583E+00  0.88000000000E+00 0. -1.
        -11    1    4    4    0    0 -0.60806873472E-01 -0.20089267338E-01 -0.51772998960E-01  0.82351436332E-01  0.51100000000E-03 0.  1.
         11    1    4    4    0    0 -0.46873108205E-01 -0.79369546664E-02 -0.19930352671E-01  0.51551562544E-01  0.51100000000E-03 0. -1.
</event>
<event>
 8    1  0.1106168E+005  0.1043930E+01  0.7957747E-01            NaN
         13   -1    0    0    0    0  0.00000000000E+00  0.00000000000E+00  0.74505805969E-08  0.10566000000E+00  0.10566000000E+00 0. -1.
     999900   -1    0    0    0    0 -0.00000000000E+00 -0.00000000000E+00 -0.74505805969E-08  0.93827000000E+00  0.93827000000E+00 0. -1.
     999902    2    1    2    0    0  0.42499682415E-02 -0.11990623675E-01  0.19358287438E-01  0.10207657910E+01  0.10205029248E+01 0.  0.
     999903    2    3    3    0    0 -0.12636543967E+00 -0.15778540808E-01  0.23583906461E-01  0.13110709860E+00  0.20388329209E-01 0.  0.
         14    1    1    2    0    0 -0.42499682415E-02  0.11990623675E-01 -0.19358287438E-01  0.23164209002E-01  0.00000000000E+00 0.  1.
     999901    1    3    3    0    0  0.13061540791E+00  0.37879171337E-02 -0.42256190225E-02  0.88965869240E+00  0.88000000000E+00 0.  1.
        -11    1    4    4    0    0 -0.81886568646E-01 -0.26397972059E-02  0.21374011078E-01  0.84672829907E-01  0.51100000000E-03 0. -1.
         11    1    4    4    0    0 -0.44478871020E-01 -0.13138743602E-01  0.22098953829E-02  0.46434268695E-01  0.51100000000E-03 0.  1.
</event>
<event>
 8    1  0.1106168E+005  0.1043930E+01  0.7957747E-01            NaN
         13   -1    0    0    0    0  0.00000000000E+00  0.00000000000E+00  0.74505805969E-08  0.10566000000E+00  0.10566000000E+00 0. -1.
     999900   -1    0    0    0    0 -0.00000000000E+00 -0.00000000000E+00 -0.74505805969E-08  0.93827000000E+00  0.93827000000E+00 0.  1.
     999902    2    1    2    0    0 -0.94009587641E-02  0.90520984123E-02 -0.19653709216E-01  0.10203379082E+01  0.10200651254E+01 0.  0.
     999903    2    3    3    0    0 -0.78800425760E-01  0.29201188128E-01 -0.10191457268E+00  0.13355207072E+00  0.19681437436E-01 0.  0.
         14    1    1    2    0    0  0.94009587641E-02 -0.90520984123E-02  0.19653709216E-01  0.23592091838E-01  0.00000000000E+00 0. -1.
     999901    1    3    3    0    0  0.69399466996E-01 -0.20149089716E-01  0.82260863466E-01  0.88678583745E+00  0.88000000000E+00 0. -1.
        -11    1    4    4    0    0 -0.58319270129E-01  0.16455585450E-01 -0.60552844488E-01  0.85666981138E-01  0.51100000000E-03 0. -1.
         11    1    4    4    0    0 -0.20481155632E-01  0.12745602678E-01 -0.41361728194E-01  0.47885089578E-01  0.51100000000E-03 0.  1.
</event>
<event>
 8    1  0.1106168E+005  0.1043930E+01  0.7957747E-01            NaN
         13   -1    0    0    0    0  0.00000000000E+00  0.00000000000E+00  0.74505805969E-08  0.10566000000E+00  0.10566000000E+00 0.  1.
     999900   -1    0    0    0    0 -0.00000000000E+00 -0.00000000000E+00 -0.74505805969E-08  0.93827000000E+00  0.93827000000E+00 0. -1.
     999902    2    1    2    0    0 -0.96638656150E-02 -0.17645765068E-01 -0.12311771125E-01  0.10203430750E+01  0.10200704131E+01 0.  0.
     999903    2    3    3    0    0 -0.84038487624E-01  0.72125559944E-01  0.64996174012E-01  0.12929481952E+00  0.15102447414E-01 0.  0.
         14    1    1    2    0    0  0.96638656150E-02  0.17645765068E-01  0.12311771125E-01  0.23586925016E-01  0.00000000000E+00 0. -1.
     999901    1    3    3    0    0  0.74374622009E-01 -0.89771325012E-01 -0.77307945137E-01  0.89104825547E+00  0.88000000000E+00 0. -1.
        -11    1    4    4    0    0 -0.23309209393E-01  0.24521417346E-01  0.26966215282E-01  0.43267274455E-01  0.51100000000E-03 0. -1.
         11    1    4    4    0    0 -0.60729278231E-01  0.47604142598E-01  0.38029958729E-01  0.86027545060E-01  0.51100000000E-03 0.  1.
</event>
<event>
 8    1  0.1106168E+005  0.1043930E+01  0.7957747E-01            NaN
         13   -1    0    0    0    0  0.00000000000E+00  0.00000000000E+00  0.74505805969E-08  0.10566000000E+00  0.10566000000E+00 0. -1.
     999900   -1    0    0    0    0 -0.00000000000E+00 -0.00000000000E+00 -0.74505805969E-08  0.93827000000E+00  0.93827000000E+00 0.  1.
     999902    2    1    2    0    0 -0.58266666636E-02 -0.67308168851E-02 -0.21869188976E-01  0.10203182367E+01  0.10200449935E+01 0.  0.
     999903    2    3    3    0    0 -0.93688903124E-01  0.66636276758E-01 -0.61852822513E-01  0.13200455674E+00  0.19530166384E-01 0.  0.
         14    1    1    2    0    0  0.58266666636E-02  0.67308168851E-02  0.21869188976E-01  0.23611763314E-01  0.00000000000E+00 0. -1.
     999901    1    3    3    0    0  0.87862236460E-01 -0.73367093643E-01  0.39983633537E-01  0.88831367994E+00  0.88000000000E+00 0. -1.
        -11    1    4    4    0    0 -0.48285897130E-01  0.31735894826E-01 -0.20287958029E-01  0.61241793280E-01  0.51100000000E-03 0.  1.
         11    1    4    4    0    0 -0.45403005994E-01  0.34900381932E-01 -0.41564864483E-01  0.70762763462E-01  0.51100000000E-03 0. -1.
</event>
<event>
 8    1  0.1106168E+005  0.1043930E+01  0.7957747E-01            NaN
         13   -1    0    0    0    0  0.00000000000E+00  0.00000000000E+00  0.74505805969E-08  0.10566000000E+00  0.10566000000E+00 0.  1.
     999900   -1    0    0    0    0 -0.00000000000E+00 -0.00000000000E+00 -0.74505805969E-08  0.93827000000E+00  0.93827000000E+00 0.  1.
     999902    2    1    2    0    0  0.11034903771E-02  0.10022827007E-01 -0.19522016811E-01  0.10219576562E+01  0.10217214235E+01 0.  0.
     999903    2    3    3    0    0  0.15250329960E-01 -0.54399869115E-01 -0.11942349035E+00  0.13385252657E+00  0.21508381991E-01 0.  0.
         14    1    1    2    0    0 -0.11034903771E-02 -0.10022827007E-01  0.19522016811E-01  0.21972343812E-01  0.00000000000E+00 0.  1.
     999901    1    3    3    0    0 -0.14146839583E-01  0.64422696121E-01  0.99901473544E-01  0.88810512962E+00  0.88000000000E+00 0. -1.
        -11    1    4    4    0    0  0.63382975031E-02 -0.44605936044E-01 -0.10503649114E+00  0.11429255942E+00  0.51100000000E-03 0. -1.
         11    1    4    4    0    0  0.89120324572E-02 -0.97939330705E-02 -0.14386999212E-01  0.19559967148E-01  0.51100000000E-03 0.  1.
</event>
<event>
 8    1  0.1106168E+005  0.1043930E+01  0.7957747E-01            NaN
         13   -1    0    0    0    0  0.00000000000E+00  0.00000000000E+00  0.74505805969E-08  0.10566000000E+00  0.10566000000E+00 0.  1.
     999900   -1    0    0    0    0 -0.00000000000E+00 -0.00000000000E+00 -0.74505805969E-08  0.93827000000E+00  0.93827000000E+00 0. -1.
     999902    2    1    2    0    0 -0.40519254562E-02  0.13178084361E-01 -0.19603770036E-01  0.10199636109E+01  0.10196819993E+01 0.  0.
     999903    2    3    3    0    0  0.73081185263E-01 -0.10371990216E+00 -0.10798196283E-01  0.12884510354E+00  0.19641331907E-01 0.  0.
         14    1    1    2    0    0  0.40519254562E-02 -0.13178084361E-01  0.19603770036E-01  0.23966389110E-01  0.00000000000E+00 0.  1.
     999901    1    3    3    0    0 -0.77133110719E-01  0.11689798652E+00 -0.88055737537E-02  0.89111850735E+00  0.88000000000E+00 0. -1.
        -11    1    4    4    0    0  0.43136391775E-01 -0.66772366077E-01  0.22465348784E-02  0.79527386521E-01  0.51100000000E-03 0. -1.
         11    1    4    4    0    0  0.29944793487E-01 -0.36947536080E-01 -0.13044731161E-01  0.49317717014E-01  0.51100000000E-03 0.  1.
</event>
<event>
 8    1  0.1106168E+005  0.1043930E+01  0.7957747E-01            NaN
         13   -1    0    0    0    0  0.00000000000E+00  0.00000000000E+00  0.74505805969E-08  0.10566000000E+00  0.10566000000E+00 0. -1.
     999900   -1    0    0    0    0 -0.00000000000E+00 -0.00000000000E+00 -0.74505805969E-08  0.93827000000E+00  0.93827000000E+00 0. -1.
     999902    2    1    2    0    0  0.10283139185E-01  0.54409202667E-02 -0.19625634977E-01  0.10211152654E+01  0.10208603593E+01 0.  0.
     999903    2    3    3    0    0  0.36147718214E-01  0.46771569589E-01 -0.11852359805E+00  0.13423421021E+00  0.21834437086E-01 0.  0.
         14    1    1    2    0    0 -0.10283139185E-01 -0.54409202667E-02  0.19625634977E-01  0.22814734561E-01  0.00000000000E+00 0. -1.
     999901    1    3    3    0    0 -0.25864579030E-01 -0.41330649322E-01  0.98897963071E-01  0.88688105523E+00  0.88000000000E+00 0.  1.
        -11    1    4    4    0    0 -0.13315138239E-02  0.10386612688E-01 -0.25024409338E-01  0.27131841734E-01  0.51100000000E-03 0.  1.
         11    1    4    4    0    0  0.37479232038E-01  0.36384956901E-01 -0.93499188710E-01  0.10710236848E+00  0.51100000000E-03 0. -1.
</event>
<event>
 8    1  0.1106168E+005  0.1043930E+01  0.7957747E-01            NaN
         13   -1    0    0    0    0  0.00000000000E+00  0.00000000000E+00  0.74505805969E-08  0.10566000000E+00  0.10566000000E+00 0.  1.
     999900   -1    0    0    0    0 -0.00000000000E+00 -0.00000000000E+00 -0.74505805969E-08  0.93827000000E+00  0.93827000000E+00 0.  1.
     999902    2    1    2    0    0  0.51846168423E-02  0.53406056291E-02 -0.22670952395E-01  0.10200684325E+01  0.10197893080E+01 0.  0.
     999903    2    3    3    0    0 -0.11065637538E+00 -0.39268455773E-01  0.47988432393E-01  0.12855183004E+00  0.20876741368E-01 0.  0.
         14    1    1    2    0    0 -0.51846168423E-02 -0.53406056291E-02  0.22670952395E-01  0.23861567484E-01  0.00000000000E+00 0.  1.
     999901    1    3    3    0    0  0.11584099223E+00  0.44609061402E-01 -0.70659384789E-01  0.89151660248E+00  0.88000000000E+00 0.  1.
        -11    1    4    4    0    0 -0.36694025499E-01 -0.60731353701E-02  0.75531053378E-02  0.37955829615E-01  0.51100000000E-03 0. -1.
         11    1    4    4    0    0 -0.73962349885E-01 -0.33195320403E-01  0.40435327055E-01  0.90596000421E-01  0.51100000000E-03 0.  1.
</event>
<event>
 8    1  0.1106168E+005  0.1043930E+01  0.7957747E-01            NaN
         13   -1    0    0    0    0  0.00000000000E+00  0.00000000000E+00  0.74505805969E-08  0.10566000000E+00  0.10566000000E+00 0.  1.
     999900   -1    0    0    0    0 -0.00000000000E+00 -0.00000000000E+00 -0.74505805969E-08  0.93827000000E+00  0.93827000000E+00 0. -1.
     999902    2    1    2    0    0  0.17804870095E-01  0.11122739134E-01 -0.84925496395E-02  0.10212837614E+01  0.10210326484E+01 0.  0.
     999903    2    3    3    0    0  0.12360450963E+00 -0.42854169669E-01  0.11840183957E-01  0.13307179879E+00  0.21292229021E-01 0.  0.
         14    1    1    2    0    0 -0.17804870095E-01 -0.11122739134E-01  0.84925496395E-02  0.22646238636E-01  0.00000000000E+00 0.  1.
     999901    1    3    3    0    0 -0.10579963954E+00  0.53976908803E-01 -0.20332733596E-01  0.88821196258E+00  0.88000000000E+00 0. -1.
        -11    1    4    4    0    0  0.36091747419E-01 -0.26981296756E-02  0.14442347567E-02  0.36224868123E-01  0.51100000000E-03 0. -1.
         11    1    4    4    0    0  0.87512762214E-01 -0.40156039993E-01  0.10395949200E-01  0.96846930664E-01  0.51100000000E-03 0.  1.
</event>
<event>
 8    1  0.1106168E+005  0.1043930E+01  0.7957747E-01            NaN
         13   -1    0    0    0    0  0.00000000000E+00  0.00000000000E+00  0.74505805969E-08  0.10566000000E+00  0.10566000000E+00 0.  1.
     999900   -1    0    0    0    0 -0.00000000000E+00 -0.00000000000E+00 -0.74505805969E-08  0.93827000000E+00  0.93827000000E+00 0.  1.
     999902    2    1    2    0    0 -0.40018787531E-02  0.49727917939E-02 -0.22924802486E-01  0.10201331460E+01  0.10198555512E+01 0.  0.
     999903    2    3    3    0    0 -0.91813102863E-01  0.74919733678E-01 -0.56023903966E-01  0.13238378030E+00  0.18551957305E-01 0.  0.
         14    1    1    2    0    0  0.40018787531E-02 -0.49727917939E-02  0.22924802486E-01  0.23796854011E-01  0.00000000000E+00 0.  1.
     999901    1    3    3    0    0  0.87811224110E-01 -0.69946941884E-01  0.33099101480E-01  0.88774936569E+00  0.88000000000E+00 0.  1.
        -11    1    4    4    0    0 -0.62356101789E-01  0.52210853314E-01 -0.47631337677E-01  0.94251058795E-01  0.51100000000E-03 0.  1.
         11    1    4    4    0    0 -0.29457001073E-01  0.22708880364E-01 -0.83925662897E-02  0.38132721507E-01  0.51100000000E-03 0. -1.
</event>
<event>
 7    1  0.1106168E+005  0.1043930E+01  0.7957747E-01            NaN
         13   -1    0    0    0    0  0.00000000000E+00  0.00000000000E+00  0.74505805969E-08  0.10566000000E+00  0.10566000000E+00 0.  1.
     999900   -1    0    0    0    0 -0.00000000000E+00 -0.00000000000E+00 -0.74505805969E-08  0.93827000000E+00  0.93827000000E+00 0.  1.
     999902    2    1    2    0    0  0.55211196357E-02  0.16267370992E-01  0.15966596683E-01  0.10204770187E+01  0.10202074806E+01 0.  0.
         14    1    1    2    0    0 -0.55211196357E-02 -0.16267370992E-01 -0.15966596683E-01  0.23452981274E-01  0.00000000000E+00 0. -1.
     999901    1    3    3    0    0 -0.61788045652E-01  0.78302015499E-01 -0.62197391296E-01  0.88781613170E+00  0.88000000000E+00 0.  1.
        -11    1    3    3    0    0  0.44507412848E-01 -0.26141188823E-01  0.73589954880E-01  0.89888898824E-01  0.51100000000E-03 0.  1.
         11    1    3    3    0    0  0.22801752440E-01 -0.35893455684E-01  0.45740330985E-02  0.42771988205E-01  0.51100000000E-03 0. -1.
</event>
<event>
 8    1  0.1106168E+005  0.1043930E+01  0.7957747E-01            NaN
         13   -1    0    0    0    0  0.00000000000E+00  0.00000000000E+00  0.74505805969E-08  0.10566000000E+00  0.10566000000E+00 0. -1.
     999900   -1    0    0    0    0 -0.00000000000E+00 -0.00000000000E+00 -0.74505805969E-08  0.93827000000E+00  0.93827000000E+00 0. -1.
     999902    2    1    2    0    0 -0.20286496368E-01  0.11111350575E-01 -0.42823084942E-02  0.10204067729E+01  0.10201355988E+01 0.  0.
     999903    2    3    3    0    0 -0.13373019820E-01 -0.11848023172E+00  0.46212854227E-01  0.12945697870E+00  0.20176185703E-01 0.  0.
         14    1    1    2    0    0  0.20286496368E-01 -0.11111350575E-01  0.42823084942E-02  0.23523227086E-01  0.00000000000E+00 0. -1.
     999901    1    3    3    0    0 -0.69134765480E-02  0.12959158230E+00 -0.50495162722E-01  0.89094979422E+00  0.88000000000E+00 0. -1.
        -11    1    4    4    0    0 -0.27021013110E-02 -0.48976393330E-01  0.89127595353E-02  0.49856663132E-01  0.51100000000E-03 0.  1.
         11    1    4    4    0    0 -0.10670918509E-01 -0.69503838391E-01  0.37300094692E-01  0.79600315564E-01  0.51100000000E-03 0. -1.
</event>
<event>
 8    1  0.1106168E+005  0.1043930E+01  0.7957747E-01            NaN
         13   -1    0    0    0    0  0.00000000000E+00  0.00000000000E+00  0.74505805969E-08  0.10566000000E+00  0.10566000000E+00 0. -1.
     999900   -1    0    0    0    0 -0.00000000000E+00 -0.00000000000E+00 -0.74505805969E-08  0.93827000000E+00  0.93827000000E+00 0.  1.
     999902    2    1    2    0    0 -0.97385633013E-02  0.65893147538E-02 -0.20606148050E-01  0.10202050759E+01  0.10199291764E+01 0.  0.
     999903    2    3    3    0    0  0.46613098588E-01  0.10646546856E+00 -0.59056586335E-01  0.13193192420E+00  0.20265124676E-01 0.  0.
         14    1    1    2    0    0  0.97385633013E-02 -0.65893147538E-02  0.20606148050E-01  0.23724924058E-01  0.00000000000E+00 0. -1.
     999901    1    3    3    0    0 -0.56351661889E-01 -0.99876153808E-01  0.38450438286E-01  0.88827315174E+00  0.88000000000E+00 0.  1.
        -11    1    4    4    0    0  0.81606171981E-02  0.54803864467E-02 -0.36730346962E-02  0.10506313033E-01  0.51100000000E-03 0.  1.
         11    1    4    4    0    0  0.38452481390E-01  0.10098508212E+00 -0.55383551639E-01  0.12142561117E+00  0.51100000000E-03 0. -1.
</event>
<event>
 8    1  0.1106168E+005  0.1043930E+01  0.7957747E-01            NaN
         13   -1    0    0    0    0  0.00000000000E+00  0.00000000000E+00  0.74505805969E-08  0.10566000000E+00  0.10566000000E+00 0. -1.
     999900   -1    0    0    0    0 -0.00000000000E+00 -0.00000000000E+00 -0.74505805969E-08  0.93827000000E+00  0.93827000000E+00 0.  1.
     999902    2    1    2    0    0 -0.49708455855E-02 -0.23127591607E-01  0.37617797054E-02  0.10199770088E+01  0.10196957158E+01 0.  0.
     999903    2    3    3    0    0  0.74737504137E-01  0.57499237152E-01 -0.84562862144E-01  0.12831824625E+00  0.20563021883E-01 0.  0.
         14    1    1    2    0    0  0.49708455855E-02  0.23127591607E-01 -0.37617797054E-02  0.23952991168E-01  0.00000000000E+00 0. -1.
     999901    1    3    3    0    0 -0.79708349723E-01 -0.80626828758E-01  0.88324641849E-01  0.89165876258E+00  0.88000000000E+00 0. -1.
        -11    1    4    4    0    0  0.70551656103E-01  0.49668673006E-01 -0.69359841365E-01  0.11070484168E+00  0.51100000000E-03 0.  1.
         11    1    4    4    0    0  0.41858480343E-02  0.78305641457E-02 -0.15203020779E-01  0.17613404566E-01  0.51100000000E-03 0. -1.
</event>
<event>
 8    1  0.1106168E+005  0.1043930E+01  0.7957747E-01            NaN
         13   -1    0    0    0    0  0.00000000000E+00  0.00000000000E+00  0.74505805969E-08  0.10566000000E+00  0.10566000000E+00 0. -1.
     999900   -1    0    0    0    0 -0.00000000000E+00 -0.00000000000E+00 -0.74505805969E-08  0.93827000000E+00  0.93827000000E+00 0.  1.
     999902    2    1    2    0    0  0.17099844919E-01 -0.21189624467E-02  0.16047774929E-01  0.10203837524E+01  0.10201120410E+01 0.  0.
     999903    2    3    3    0    0 -0.11091155652E+00 -0.57993103818E-01 -0.21399861080E-01  0.12858155230E+00  0.20265440486E-01 0.  0.
         14    1    1    2    0    0 -0.17099844919E-01  0.21189624467E-02 -0.16047774929E-01  0.23546247648E-01  0.00000000000E+00 0.  1.
     999901    1    3    3    0    0  0.12801140144E+00  0.55874141372E-01  0.37447636009E-01  0.89180220005E+00  0.88000000000E+00 0.  1.
        -11    1    4    4    0    0 -0.47535291891E-01 -0.32726293473E-01 -0.24324071843E-02  0.57764971958E-01  0.51100000000E-03 0. -1.
         11    1    4    4    0    0 -0.63376264629E-01 -0.25266810345E-01 -0.18967453896E-01  0.70816580344E-01  0.51100000000E-03 0.  1.
</event>
<event>
 8    1  0.1106168E+005  0.1043930E+01  0.7957747E-01            NaN
         13   -1    0    0    0    0  0.00000000000E+00  0.00000000000E+00  0.74505805969E-08  0.10566000000E+00  0.10566000000E+00 0. -1.
     999900   -1    0    0    0    0 -0.00000000000E+00 -0.00000000000E+00 -0.74505805969E-08  0.93827000000E+00  0.93827000000E+00 0.  1.
     999902    2    1    2    0    0 -0.10322347508E-01 -0.23373862225E-02 -0.21322943287E-01  0.10201249135E+01  0.10198471243E+01 0.  0.
     999903    2    3    3    0    0 -0.49651932927E-01 -0.38695143305E-01 -0.11427873245E+00  0.13360955463E+00  0.28796802586E-01 0.  0.
         14    1    1    2    0    0  0.10322347508E-01  0.23373862225E-02  0.21322943287E-01  0.23805086491E-01  0.00000000000E+00 0. -1.
     999901    1    3    3    0    0  0.39329585419E-01  0.36357757083E-01  0.92955789163E-01  0.88651535888E+00  0.88000000000E+00 0. -1.
        -11    1    4    4    0    0 -0.15345818041E-01 -0.30180217899E-01 -0.54708523204E-01  0.64339904538E-01  0.51100000000E-03 0.  1.
         11    1    4    4    0    0 -0.34306114886E-01 -0.85149254063E-02 -0.59570209246E-01  0.69269650092E-01  0.51100000000E-03 0. -1.
</event>
<event>
 8    1  0.1106168E+005  0.1043930E+01  0.7957747E-01            NaN
         13   -1    0    0    0    0  0.00000000000E+00  0.00000000000E+00  0.74505805969E-08  0.10566000000E+00  0.10566000000E+00 0.  1.
     999900   -1    0    0    0    0 -0.00000000000E+00 -0.00000000000E+00 -0.74505805969E-08  0.93827000000E+00  0.93827000000E+00 0.  1.
     999902    2    1    2    0    0 -0.29250755330E-02  0.29789291017E-02 -0.24422936303E-01  0.10191527947E+01  0.10188515638E+01 0.  0.
     999903    2    3    3    0    0 -0.95564543267E-01  0.52266542208E-01  0.61880179201E-01  0.12872617360E+00  0.29612460700E-01 0.  0.
         14    1    1    2    0    0  0.29250755330E-02 -0.29789291017E-02  0.24422936303E-01  0.24777205313E-01  0.00000000000E+00 0.  1.
     999901    1    3    3    0    0  0.92639467734E-01 -0.49287613106E-01 -0.86303115504E-01  0.89042662108E+00  0.88000000000E+00 0.  1.
        -11    1    4    4    0    0 -0.79426785324E-01  0.42843949315E-01  0.62900194186E-01  0.11000415342E+00  0.51100000000E-03 0. -1.
         11    1    4    4    0    0 -0.16137757943E-01  0.94225928928E-02 -0.10200149850E-02  0.18722020185E-01  0.51100000000E-03 0.  1.
</event>
<event>
 8    1  0.1106168E+005  0.1043930E+01  0.7957747E-01            NaN
         13   -1    0    0    0    0  0.00000000000E+00  0.00000000000E+00  0.74505805969E-08  0.10566000000E+00  0.10566000000E+00 0. -1.
     999900   -1    0    0    0    0 -0.00000000000E+00 -0.00000000000E+00 -0.74505805969E-08  0.93827000000E+00  0.93827000000E+00 0.  1.
     999902    2    1    2    0    0 -0.14992433627E-01  0.72743195860E-02  0.17282560613E-01  0.10199221743E+01  0.10196395765E+01 0.  0.
     999903    2    3    3    0    0  0.53168061740E-01 -0.91420978697E-01 -0.68537473274E-01  0.12764884556E+00  0.20302817439E-01 0.  0.
         14    1    1    2    0    0  0.14992433627E-01 -0.72743195860E-02 -0.17282560613E-01  0.24007825658E-01  0.00000000000E+00 0.  1.
     999901    1    3    3    0    0 -0.68160495367E-01  0.98695298283E-01  0.85820033886E-01  0.89227332878E+00  0.88000000000E+00 0. -1.
        -11    1    4    4    0    0  0.23877078607E-01 -0.52978753718E-01 -0.27715300610E-01  0.64383710962E-01  0.51100000000E-03 0. -1.
         11    1    4    4    0    0  0.29290983133E-01 -0.38442224979E-01 -0.40822172663E-01  0.63265134602E-01  0.51100000000E-03 0.  1.
</event>
<event>
 8    1  0.1106168E+005  0.1043930E+01  0.7957747E-01            NaN
         13   -1    0    0    0    0  0.00000000000E+00  0.00000000000E+00  0.74505805969E-08  0.10566000000E+00  0.10566000000E+00 0.  1.
     999900   -1    0    0    0    0 -0.00000000000E+00 -0.00000000000E+00 -0.74505805969E-08  0.93827000000E+00  0.93827000000E+00 0. -1.
     999902    2    1    2    0    0  0.12927716541E-01 -0.19413255137E-01  0.71127013983E-04  0.10206060769E+01  0.10203395311E+01 0.  0.
     999903    2    3    3    0    0  0.19080310703E-01 -0.61690414434E-01 -0.11366226800E+00  0.13225901760E+00  0.20089078622E-01 0.  0.
         14    1    1    2    0    0 -0.12927716541E-01  0.19413255137E-01 -0.71127013983E-04  0.23323923105E-01  0.00000000000E+00 0. -1.
     999901    1    3    3    0    0 -0.61525941614E-02  0.42277159298E-01  0.11373339502E+00  0.88834705929E+00  0.88000000000E+00 0.  1.
        -11    1    4    4    0    0  0.21420237212E-01 -0.39257666995E-01 -0.81638447820E-01  0.93086455854E-01  0.51100000000E-03 0.  1.
         11    1    4    4    0    0 -0.23399265090E-02 -0.22432747439E-01 -0.32023820183E-01  0.39172561747E-01  0.51100000000E-03 0. -1.
</event>
<event>
 8    1  0.1106168E+005  0.1043930E+01  0.7957747E-01            NaN
         13   -1    0    0    0    0  0.00000000000E+00  0.00000000000E+00  0.74505805969E-08  0.10566000000E+00  0.10566000000E+00 0.  1.
     999900   -1    0    0    0    0 -0.00000000000E+00 -0.00000000000E+00 -0.74505805969E-08  0.93827000000E+00  0.93827000000E+00 0.  1.
     999902    2    1    2    0    0  0.23091400713E-01 -0.24343296159E-02  0.37530034370E-02  0.10204092904E+01  0.10201381750E+01 0.  0.
     999903    2    3    3    0    0  0.74998494874E-01  0.10179711771E+00  0.33189927993E-01  0.13225104231E+00  0.20033458614E-01 0.  0.
         14    1    1    2    0    0 -0.23091400713E-01  0.24343296159E-02 -0.37530034370E-02  0.23520709648E-01  0.00000000000E+00 0.  1.
     999901    1    3    3    0    0 -0.51907094161E-01 -0.10423144733E+00 -0.29436924556E-01  0.88815824804E+00  0.88000000000E+00 0.  1.
        -11    1    4    4    0    0  0.41324516439E-01  0.54490123765E-01  0.28170277549E-01  0.73964281278E-01  0.51100000000E-03 0.  1.
         11    1    4    4    0    0  0.33673978436E-01  0.47306993948E-01  0.50196504435E-02  0.58286761032E-01  0.51100000000E-03 0. -1.
</event>
<event>
 8    1  0.1106168E+005  0.1043930E+01  0.7957747E-01            NaN
         13   -1    0    0    0    0  0.00000000000E+00  0.00000000000E+00  0.74505805969E-08  0.10566000000E+00  0.10566000000E+00 0. -1.
     999900   -1    0    0    0    0 -0.00000000000E+00 -0.00000000000E+00 -0.74505805969E-08  0.93827000000E+00  0.93827000000E+00 0. -1.
     999902    2    1    2    0    0 -0.23492204349E-01  0.32365722518E-02  0.36723625137E-02  0.10199332229E+01  0.10196508882E+01 0.  0.
     999903    2    3    3    0    0 -0.92965672035E-01  0.88050760830E-01 -0.28135763678E-01  0.13255970166E+00  0.19618884939E-01 0.  0.
         14    1    1    2    0    0  0.23492204349E-01 -0.32365722518E-02 -0.36723625137E-02  0.23996777108E-01  0.00000000000E+00 0.  1.
     999901    1    3    3    0    0  0.69473467685E-01 -0.84814188578E-01  0.31808126192E-01  0.88737352123E+00  0.88000000000E+00 0.  1.
        -11    1    4    4    0    0 -0.82591648843E-01  0.76993865721E-01 -0.18063773451E-01  0.11435032510E+00  0.51100000000E-03 0.  1.
         11    1    4    4    0    0 -0.10374023192E-01  0.11056895109E-01 -0.10071990227E-01  0.18209376562E-01  0.51100000000E-03 0. -1.
</event>
<event>
 8    1  0.1106168E+005  0.1043930E+01  0.7957747E-01            NaN
         13   -1    0    0    0    0  0.00000000000E+00  0.00000000000E+00  0.74505805969E-08  0.10566000000E+00  0.10566000000E+00 0. -1.
     999900   -1    0    0    0    0 -0.00000000000E+00 -0.00000000000E+00 -0.74505805969E-08  0.93827000000E+00  0.93827000000E+00 0. -1.
     999902    2    1    2    0    0 -0.14892826174E-01  0.16971326974E-01 -0.61254565213E-02  0.10205346281E+01  0.10202664278E+01 0.  0.
     999903    2    3    3    0    0  0.68905525886E-01 -0.98524724381E-01  0.38903648419E-01  0.12790417710E+00  0.19770984984E-01 0.  0.
         14    1    1    2    0    0  0.14892826174E-01 -0.16971326974E-01  0.61254565213E-02  0.23395371942E-01  0.00000000000E+00 0. -1.
     999901    1    3    3    0    0 -0.83798352060E-01  0.11549605135E+00 -0.45029104940E-01  0.89263045096E+00  0.88000000000E+00 0.  1.
        -11    1    4    4    0    0  0.44901397274E-01 -0.68545844674E-01  0.17000893980E-01  0.83689663737E-01  0.51100000000E-03 0. -1.
         11    1    4    4    0    0  0.24004128612E-01 -0.29978879707E-01  0.21902754439E-01  0.44214513363E-01  0.51100000000E-03 0.  1.
</event>
<event>
 8    1  0.1165395E+005  0.1043930E+01  0.7957747E-01            NaN
         13   -1    0    0    0    0  0.00000000000E+00  0.00000000000E+00  0.74505805969E-08  0.10566000000E+00  0.10566000000E+00 0. -1.
     999900   -1    0    0    0    0 -0.00000000000E+00 -0.00000000000E+00 -0.74505805969E-08  0.93827000000E+00  0.93827000000E+00 0.  1.
     999902    2    1    2    0    0  0.23049882140E-01  0.20618016251E-02 -0.68592551749E-02  0.10197929440E+01  0.10195072590E+01 0.  0.
     999903    2    3    3    0    0 -0.31321644622E-01 -0.53174369013E-01  0.11051490060E+00  0.12862293217E+00  0.22841989494E-01 0.  0.
         14    1    1    2    0    0 -0.23049882140E-01 -0.20618016251E-02  0.68592551749E-02  0.24137056038E-01  0.00000000000E+00 0.  1.
     999901    1    3    3    0    0  0.54371526762E-01  0.55236170638E-01 -0.11737415578E+00  0.89117001179E+00  0.88000000000E+00 0.  1.
        -11    1    4    4    0    0 -0.28124483534E-01 -0.30860685906E-01  0.57957321678E-01  0.71433050934E-01  0.51100000000E-03 0.  1.
         11    1    4    4    0    0 -0.31971610876E-02 -0.22313683106E-01  0.52557578923E-01  0.57189881238E-01  0.51100000000E-03 0. -1.
</event>
<event>
 8    1  0.1106168E+005  0.1043930E+01  0.7957747E-01            NaN
         13   -1    0    0    0    0  0.00000000000E+00  0.00000000000E+00  0.74505805969E-08  0.10566000000E+00  0.10566000000E+00 0.  1.
     999900   -1    0    0    0    0 -0.00000000000E+00 -0.00000000000E+00 -0.74505805969E-08  0.93827000000E+00  0.93827000000E+00 0.  1.
     999902    2    1    2    0    0  0.99470629888E-02 -0.19348083963E-01 -0.82494068561E-02  0.10206631754E+01  0.10203979481E+01 0.  0.
     999903    2    3    3    0    0  0.87930498515E-01  0.24393154842E-01  0.91139247829E-01  0.13056609253E+00  0.20355428067E-01 0.  0.
         14    1    1    2    0    0 -0.99470629888E-02  0.19348083963E-01  0.82494068561E-02  0.23266824636E-01  0.00000000000E+00 0. -1.
     999901    1    3    3    0    0 -0.77983435526E-01 -0.43741238805E-01 -0.99388654685E-01  0.89009708283E+00  0.88000000000E+00 0.  1.
        -11    1    4    4    0    0  0.86840795742E-01  0.23990993860E-01  0.83554695427E-01  0.12287611583E+00  0.51100000000E-03 0.  1.
         11    1    4    4    0    0  0.10897027725E-02  0.40216098144E-03  0.75845524018E-02  0.76899767050E-02  0.51100000000E-03 0. -1.
</event>
<event>
 8    1  0.1106168E+005  0.1043930E+01  0.7957747E-01            NaN
         13   -1    0    0    0    0  0.00000000000E+00  0.00000000000E+00  0.74505805969E-08  0.10566000000E+00  0.10566000000E+00 0.  1.
     999900   -1    0    0    0    0 -0.00000000000E+00 -0.00000000000E+00 -0.74505805969E-08  0.93827000000E+00  0.93827000000E+00 0.  1.
     999902    2    1    2    0    0  0.20238529842E-01  0.18414184731E-02 -0.13085850811E-01  0.10197591828E+01  0.10194726885E+01 0.  0.
     999903    2    3    3    0    0  0.10983187435E+00 -0.67166678723E-01 -0.23633678320E-01  0.13245971728E+00  0.20313113910E-01 0.  0.
         14    1    1    2    0    0 -0.20238529842E-01 -0.18414184731E-02  0.13085850811E-01  0.24170817190E-01  0.00000000000E+00 0.  1.
     999901    1    3    3    0    0 -0.89593344513E-01  0.69008097196E-01  0.10547827509E-01  0.88729946553E+00  0.88000000000E+00 0.  1.
        -11    1    4    4    0    0  0.51640019441E-01 -0.22842932010E-01 -0.34479571036E-02  0.56574205075E-01  0.51100000000E-03 0.  1.
         11    1    4    4    0    0  0.58191854914E-01 -0.44323746713E-01 -0.20185721217E-01  0.75885512208E-01  0.51100000000E-03 0. -1.
</event>
<event>
 8    1  0.1106168E+005  0.1043930E+01  0.7957747E-01            NaN
         13   -1    0    0    0    0  0.00000000000E+00  0.00000000000E+00  0.74505805969E-08  0.10566000000E+00  0.10566000000E+00 0.  1.
     999900   -1    0    0    0    0 -0.00000000000E+00 -0.00000000000E+00 -0.74505805969E-08  0.93827000000E+00  0.93827000000E+00 0. -1.
     999902    2    1    2    0    0  0.22425092759E-01 -0.53480780844E-02  0.41809826572E-02  0.10204999479E+01  0.10202309427E+01 0.  0.
     999903    2    3    3    0    0  0.10262128374E+00 -0.30676780446E-03 -0.81576046322E-01  0.13268740471E+00  0.20495708188E-01 0.  0.
         14    1    1    2    0    0 -0.22425092759E-01  0.53480780844E-02 -0.41809826572E-02  0.23430052079E-01  0.00000000000E+00 0.  1.
     999901    1    3    3    0    0 -0.80196190977E-01 -0.50413102799E-02  0.85757028980E-01  0.88781254321E+00  0.88000000000E+00 0.  1.
        -11    1    4    4    0    0  0.84844688779E-01  0.64283529842E-02 -0.61175608707E-01  0.10479819253E+00  0.51100000000E-03 0.  1.
         11    1    4    4    0    0  0.17776594957E-01 -0.67351207887E-02 -0.20400437615E-01  0.27889212183E-01  0.51100000000E-03 0. -1.
</event>
<event>
 8    1  0.1106168E+005  0.1043930E+01  0.7957747E-01            NaN
         13   -1    0    0    0    0  0.00000000000E+00  0.00000000000E+00  0.74505805969E-08  0.10566000000E+00  0.10566000000E+00 0.  1.
     999900   -1    0    0    0    0 -0.00000000000E+00 -0.00000000000E+00 -0.74505805969E-08  0.93827000000E+00  0.93827000000E+00 0.  1.
     999902    2    1    2    0    0  0.16611784517E-01 -0.36030461576E-02 -0.18169996759E-01  0.10190486393E+01  0.10187448391E+01 0.  0.
     999903    2    3    3    0    0 -0.11852933344E+00 -0.34426330834E-01  0.23544409381E-01  0.12722282208E+00  0.19923154962E-01 0.  0.
         14    1    1    2    0    0 -0.16611784517E-01  0.36030461576E-02  0.18169996759E-01  0.24881360668E-01  0.00000000000E+00 0.  1.
     999901    1    3    3    0    0  0.13514111796E+00  0.30823284676E-01 -0.41714406141E-01  0.89182581725E+00  0.88000000000E+00 0. -1.
        -11    1    4    4    0    0 -0.51772764717E-01 -0.13471526250E-01  0.20158120866E-01  0.57170902947E-01  0.51100000000E-03 0. -1.
         11    1    4    4    0    0 -0.66756568725E-01 -0.20954804584E-01  0.33862885153E-02  0.70051919131E-01  0.51100000000E-03 0.  1.
</event>
<event>
 8    1  0.1106168E+005  0.1043930E+01  0.7957747E-01            NaN
         13   -1    0    0    0    0  0.00000000000E+00  0.00000000000E+00  0.74505805969E-08  0.10566000000E+00  0.10566000000E+00 0.  1.
     999900   -1    0    0    0    0 -0.00000000000E+00 -0.00000000000E+00 -0.74505805969E-08  0.93827000000E+00  0.93827000000E+00 0.  1.
     999902    2    1    2    0    0 -0.13375573761E-01 -0.19522032360E-01  0.82674103587E-02  0.10188627745E+01  0.10185543616E+01 0.  0.
     999903    2    3    3    0    0  0.38557062425E-01  0.13717761519E-01 -0.12039600099E+00  0.12737180088E+00  0.73180981774E-02 0.  0.
         14    1    1    2    0    0  0.13375573761E-01  0.19522032360E-01 -0.82674103587E-02  0.25067225513E-01  0.00000000000E+00 0. -1.
     999901    1    3    3    0    0 -0.51932636186E-01 -0.33239793879E-01  0.12866341135E+00  0.89149097360E+00  0.88000000000E+00 0. -1.
        -11    1    4    4    0    0  0.19686793396E-01  0.38299887852E-02 -0.64658122402E-01  0.67699132652E-01  0.51100000000E-03 0. -1.
         11    1    4    4    0    0  0.18870269029E-01  0.98877727336E-02 -0.55737878591E-01  0.59672668230E-01  0.51100000000E-03 0.  1.
</event>
<event>
 8    1  0.1106168E+005  0.1043930E+01  0.7957747E-01            NaN
         13   -1    0    0    0    0  0.00000000000E+00  0.00000000000E+00  0.74505805969E-08  0.10566000000E+00  0.10566000000E+00 0.  1.
     999900   -1    0    0    0    0 -0.00000000000E+00 -0.00000000000E+00 -0.74505805969E-08  0.93827000000E+00  0.93827000000E+00 0.  1.
     999902    2    1    2    0    0 -0.14171092326E-01  0.86077633866E-02 -0.16807156280E-01  0.10203208079E+01  0.10200476249E+01 0.  0.
     999903    2    3    3    0    0 -0.38746092423E-01 -0.26594707704E-01  0.11846085996E+00  0.12895074963E+00  0.19666782478E-01 0.  0.
         14    1    1    2    0    0  0.14171092326E-01 -0.86077633866E-02  0.16807156280E-01  0.23609192075E-01  0.00000000000E+00 0.  1.
     999901    1    3    3    0    0  0.24575000097E-01  0.35202471090E-01 -0.13526801624E+00  0.89137005829E+00  0.88000000000E+00 0.  1.
        -11    1    4    4    0    0 -0.39013860037E-01 -0.21500152459E-01  0.94866970081E-01  0.10480620671E+00  0.51100000000E-03 0. -1.
         11    1    4    4    0    0  0.26776761334E-03 -0.50945552449E-02  0.23593889878E-01  0.24144542928E-01  0.51100000000E-03 0.  1.
</event>
<event>
 8    1  0.1106168E+005  0.1043930E+01  0.7957747E-01            NaN
         13   -1    0    0    0    0  0.00000000000E+00  0.00000000000E+00  0.74505805969E-08  0.10566000000E+00  0.10566000000E+00 0. -1.
     999900   -1    0    0    0    0 -0.00000000000E+00 -0.00000000000E+00 -0.74505805969E-08  0.93827000000E+00  0.93827000000E+00 0. -1.
     999902    2    1    2    0    0 -0.60676153425E-03 -0.48854228157E-02 -0.21945051661E-01  0.10214395396E+01  0.10211919077E+01 0.  0.
     999903    2    3    3    0    0  0.73367087532E-01 -0.37189455184E-01 -0.10384493998E+00  0.13395811866E+00  0.19880163116E-01 0.  0.
         14    1    1    2    0    0  0.60676153425E-03  0.48854228157E-02  0.21945051661E-01  0.22490460379E-01  0.00000000000E+00 0. -1.
     999901    1    3    3    0    0 -0.73973849066E-01  0.32304032368E-01  0.81899888315E-01  0.88748142097E+00  0.88000000000E+00 0. -1.
        -11    1    4    4    0    0  0.34908515437E-01 -0.13857968723E-01 -0.32793677837E-01  0.49863154475E-01  0.51100000000E-03 0.  1.
         11    1    4    4    0    0  0.38458572095E-01 -0.23331486461E-01 -0.71051262139E-01  0.84094964181E-01  0.51100000000E-03 0. -1.
</event>
<event>
 8    1  0.1106168E+005  0.1043930E+01  0.7957747E-01            NaN
         13   -1    0    0    0    0  0.00000000000E+00  0.00000000000E+00  0.74505805969E-08  0.10566000000E+00  0.10566000000E+00 0. -1.
     999900   -1    0    0    0    0 -0.00000000000E+00 -0.00000000000E+00 -0.74505805969E-08  0.93827000000E+00  0.93827000000E+00 0.  1.
     999902    2    1    2    0    0  0.73339984103E-02  0.70256696544E-02  0.97655789808E-03  0.10337269989E+01  0.10336766453E+01 0.  0.
     999903    2    3    3    0    0 -0.50397948266E-02 -0.11054425187E+00 -0.84738834675E-01  0.14169396936E+00  0.25516263410E-01 0.  0.
         14    1    1    2    0    0 -0.73339984103E-02 -0.70256696544E-02 -0.97655789808E-03  0.10203001132E-01  0.00000000000E+00 0.  1.
     999901    1    3    3    0    0  0.12373793237E-01  0.11756992152E+00  0.85715392573E-01  0.89203302951E+00  0.88000000000E+00 0. -1.
        -11    1    4    4    0    0 -0.90163642459E-02 -0.76291751333E-01 -0.70879300844E-01  0.10452685088E+00  0.51100000000E-03 0.  1.
         11    1    4    4    0    0  0.39765694193E-02 -0.34252500535E-01 -0.13859533831E-01  0.37167118482E-01  0.51100000000E-03 0. -1.
</event>
<event>
 8    1  0.1106168E+005  0.1043930E+01  0.7957747E-01            NaN
         13   -1    0    0    0    0  0.00000000000E+00  0.00000000000E+00  0.74505805969E-08  0.10566000000E+00  0.10566000000E+00 0.  1.
     999900   -1    0    0    0    0 -0.00000000000E+00 -0.00000000000E+00 -0.74505805969E-08  0.93827000000E+00  0.93827000000E+00 0.  1.
     999902    2    1    2    0    0  0.10766160236E-01  0.20763319521E-01  0.10277535810E-02  0.10205188505E+01  0.10202502841E+01 0.  0.
     999903    2    3    3    0    0  0.78032903190E-01 -0.96290512394E-01  0.32556108236E-01  0.12966507382E+00  0.19802384378E-01 0.  0.
         14    1    1    2    0    0 -0.10766160236E-01 -0.20763319521E-01 -0.10277535810E-02  0.23411149506E-01  0.00000000000E+00 0.  1.
     999901    1    3    3    0    0 -0.67266742954E-01  0.11705383191E+00 -0.31528354655E-01  0.89085377668E+00  0.88000000000E+00 0. -1.
        -11    1    4    4    0    0  0.47759518807E-01 -0.70683088644E-01  0.16527031267E-01  0.86893466615E-01  0.51100000000E-03 0.  1.
         11    1    4    4    0    0  0.30273384383E-01 -0.25607423751E-01  0.16029076969E-01  0.42771607202E-01  0.51100000000E-03 0. -1.
</event>
<event>
 8    1  0.1106168E+005  0.1043930E+01  0.7957747E-01            NaN
         13   -1    0    0    0    0  0.00000000000E+00  0.00000000000E+00  0.74505805969E-08  0.10566000000E+00  0.10566000000E+00 0.  1.
     999900   -1    0    0    0    0 -0.00000000000E+00 -0.00000000000E+00 -0.74505805969E-08  0.93827000000E+00  0.93827000000E+00 0. -1.
     999902    2    1    2    0    0 -0.17084292566E-01 -0.13935120023E-01 -0.86193402270E-02  0.10202582099E+01  0.10199835592E+01 0.  0.
     999903    2    3    3    0    0  0.94696170009E-01 -0.28573883614E-01 -0.80571380999E-01  0.13015357478E+00  0.25775456416E-01 0.  0.
         14    1    1    2    0    0  0.17084292566E-01  0.13935120023E-01  0.86193402270E-02  0.23671790141E-01  0.00000000000E+00 0. -1.
     999901    1    3    3    0    0 -0.11178046258E+00  0.14638763591E-01  0.71952040772E-01  0.89010463508E+00  0.88000000000E+00 0.  1.
        -11    1    4    4    0    0  0.48231502340E-01 -0.15130846833E-02 -0.34200524105E-01  0.59148154775E-01  0.51100000000E-03 0. -1.
         11    1    4    4    0    0  0.46464667669E-01 -0.27060798931E-01 -0.46370856894E-01  0.71005420008E-01  0.51100000000E-03 0.  1.
</event>
<event>
 8    1  0.1106168E+005  0.1043930E+01  0.7957747E-01            NaN
         13   -1    0    0    0    0  0.00000000000E+00  0.00000000000E+00  0.74505805969E-08  0.10566000000E+00  0.10566000000E+00 0. -1.
     999900   -1    0    0    0    0 -0.00000000000E+00 -0.00000000000E+00 -0.74505805969E-08  0.93827000000E+00  0.93827000000E+00 0. -1.
     999902    2    1    2    0    0 -0.13559547138E-01  0.15408921277E-01  0.86783646499E-02  0.10216452477E+01  0.10214021744E+01 0.  0.
     999903    2    3    3    0    0  0.18331177606E-01  0.57662421645E-01 -0.11400847277E+00  0.13155848971E+00  0.25469931482E-01 0.  0.
         14    1    1    2    0    0  0.13559547138E-01 -0.15408921277E-01 -0.86783646499E-02  0.22284752332E-01  0.00000000000E+00 0.  1.
     999901    1    3    3    0    0 -0.31890724744E-01 -0.42253500368E-01  0.12268683742E+00  0.89008675796E+00  0.88000000000E+00 0.  1.
        -11    1    4    4    0    0  0.70532240791E-02  0.98709081249E-03 -0.19684545421E-01  0.20939550320E-01  0.51100000000E-03 0. -1.
         11    1    4    4    0    0  0.11277953527E-01  0.56675330832E-01 -0.94323927346E-01  0.11061893939E+00  0.51100000000E-03 0.  1.
</event>
<event>
 8    1  0.1106168E+005  0.1043930E+01  0.7957747E-01            NaN
         13   -1    0    0    0    0  0.00000000000E+00  0.00000000000E+00  0.74505805969E-08  0.10566000000E+00  0.10566000000E+00 0. -1.
     999900   -1    0    0    0    0 -0.00000000000E+00 -0.00000000000E+00 -0.74505805969E-08  0.93827000000E+00  0.93827000000E+00 0. -1.
     999902    2    1    2    0    0  0.65495328081E-02 -0.21082920931E-01  0.95964989709E-02  0.10198576356E+01  0.10195734982E+01 0.  0.
     999903    2    3    3    0    0  0.18102424902E-01  0.99692259484E-01 -0.74836365262E-01  0.12752976869E+00  0.19927768246E-01 0.  0.
         14    1    1    2    0    0 -0.65495328081E-02  0.21082920931E-01 -0.95964989709E-02  0.24072364394E-01  0.00000000000E+00 0. -1.
     999901    1    3    3    0    0 -0.11552892094E-01 -0.12077518041E+00  0.84432864233E-01  0.89232786692E+00  0.88000000000E+00 0.  1.
        -11    1    4    4    0    0  0.14561285686E-02  0.35955174401E-01 -0.36744798102E-01  0.51432831783E-01  0.51100000000E-03 0. -1.
         11    1    4    4    0    0  0.16646296333E-01  0.63737085082E-01 -0.38091567160E-01  0.76096936904E-01  0.51100000000E-03 0.  1.
</event>
<event>
 8    1  0.1106168E+005  0.1043930E+01  0.7957747E-01            NaN
         13   -1    0    0    0    0  0.00000000000E+00  0.00000000000E+00  0.74505805969E-08  0.10566000000E+00  0.10566000000E+00 0.  1.
     999900   -1    0    0    0    0 -0.00000000000E+00 -0.00000000000E+00 -0.74505805969E-08  0.93827000000E+00  0.93827000000E+00 0.  1.
     999902    2    1    2    0    0  0.58981677439E-02 -0.90265419506E-02 -0.19488197350E-01  0.10216576701E+01  0.10214148708E+01 0.  0.
     999903    2    3    3    0    0 -0.52888698902E-01  0.11652852197E+00 -0.18461344813E-01  0.13080357197E+00  0.19815203338E-01 0.  0.
         14    1    1    2    0    0 -0.58981677439E-02  0.90265419506E-02  0.19488197350E-01  0.22272329879E-01  0.00000000000E+00 0.  1.
     999901    1    3    3    0    0  0.58786866646E-01 -0.12555506392E+00 -0.10268525364E-02  0.89085409815E+00  0.88000000000E+00 0.  1.
        -11    1    4    4    0    0 -0.12498817563E-01  0.46852314089E-01 -0.12306402206E-01  0.50030674913E-01  0.51100000000E-03 0. -1.
         11    1    4    4    0    0 -0.40389881340E-01  0.69676207882E-01 -0.61549426073E-02  0.80772897057E-01  0.51100000000E-03 0.  1.
</event>
<event>
 8    1  0.1106168E+005  0.1043930E+01  0.7957747E-01            NaN
         13   -1    0    0    0    0  0.00000000000E+00  0.00000000000E+00  0.74505805969E-08  0.10566000000E+00  0.10566000000E+00 0. -1.
     999900   -1    0    0    0    0 -0.00000000000E+00 -0.00000000000E+00 -0.74505805969E-08  0.93827000000E+00  0.93827000000E+00 0. -1.
     999902    2    1    2    0    0  0.91416818206E-02 -0.13942249838E-01 -0.21884691479E-01  0.10164182498E+01  0.10160458465E+01 0.  0.
     999903    2    3    3    0    0 -0.88556524253E-02 -0.91495787078E-01  0.84618084103E-01  0.12642875753E+00  0.19341895965E-01 0.  0.
         14    1    1    2    0    0 -0.91416818206E-02  0.13942249838E-01  0.21884691479E-01  0.27511750184E-01  0.00000000000E+00 0. -1.
     999901    1    3    3    0    0  0.17997334246E-01  0.77553537240E-01 -0.10650277558E+00  0.88998949229E+00  0.88000000000E+00 0. -1.
        -11    1    4    4    0    0 -0.87512213806E-02 -0.81117860381E-01  0.82078857048E-01  0.11573197935E+00  0.51100000000E-03 0.  1.
         11    1    4    4    0    0 -0.10443104471E-03 -0.10377926697E-01  0.25392270554E-02  0.10696778179E-01  0.51100000000E-03 0. -1.
</event>
<event>
 8    1  0.1106168E+005  0.1043930E+01  0.7957747E-01            NaN
         13   -1    0    0    0    0  0.00000000000E+00  0.00000000000E+00  0.74505805969E-08  0.10566000000E+00  0.10566000000E+00 0. -1.
     999900   -1    0    0    0    0 -0.00000000000E+00 -0.00000000000E+00 -0.74505805969E-08  0.93827000000E+00  0.93827000000E+00 0.  1.
     999902    2    1    2    0    0  0.24903748532E-01 -0.11284079047E-01 -0.25618845679E-02  0.10164692938E+01  0.10160982900E+01 0.  0.
     999903    2    3    3    0    0  0.15093020668E-01 -0.12259156895E+00  0.30282445098E-01  0.12879572901E+00  0.20367161802E-01 0.  0.
         14    1    1    2    0    0 -0.24903748532E-01  0.11284079047E-01  0.25618845679E-02  0.27460706171E-01  0.00000000000E+00 0.  1.
     999901    1    3    3    0    0  0.98107278643E-02  0.11130748990E+00 -0.32844329666E-01  0.88767356482E+00  0.88000000000E+00 0. -1.
        -11    1    4    4    0    0  0.78823454891E-03 -0.84281841908E-01  0.20089110901E-01  0.86648044911E-01  0.51100000000E-03 0.  1.
         11    1    4    4    0    0  0.14304786119E-01 -0.38309727040E-01  0.10193334197E-01  0.42147684098E-01  0.51100000000E-03 0. -1.
</event>
<event>
 8    1  0.1106168E+005  0.1043930E+01  0.7957747E-01            NaN
         13   -1    0    0    0    0  0.00000000000E+00  0.00000000000E+00  0.74505805969E-08  0.10566000000E+00  0.10566000000E+00 0.  1.
     999900   -1    0    0    0    0 -0.00000000000E+00 -0.00000000000E+00 -0.74505805969E-08  0.93827000000E+00  0.93827000000E+00 0. -1.
     999902    2    1    2    0    0  0.55909644355E-02 -0.98778633425E-02 -0.20722431741E-01  0.10203026801E+01  0.10200290725E+01 0.  0.
     999903    2    3    3    0    0 -0.56649910705E-01  0.80170627039E-01 -0.84695160447E-01  0.13121597615E+00  0.20194562902E-01 0.  0.
         14    1    1    2    0    0 -0.55909644355E-02  0.98778633425E-02  0.20722431741E-01  0.23627319882E-01  0.00000000000E+00 0.  1.
     999901    1    3    3    0    0  0.62240875140E-01 -0.90048490381E-01  0.63972728705E-01  0.88908670397E+00  0.88000000000E+00 0. -1.
        -11    1    4    4    0    0 -0.13798527164E-01  0.34947357375E-01 -0.26684181902E-01  0.46087132957E-01  0.51100000000E-03 0. -1.
         11    1    4    4    0    0 -0.42851383540E-01  0.45223269664E-01 -0.58010978544E-01  0.85128843191E-01  0.51100000000E-03 0.  1.
</event>
<event>
 8    1  0.1106168E+005  0.1043930E+01  0.7957747E-01            NaN
         13   -1    0    0    0    0  0.00000000000E+00  0.00000000000E+00  0.74505805969E-08  0.10566000000E+00  0.10566000000E+00 0. -1.
     999900   -1    0    0    0    0 -0.00000000000E+00 -0.00000000000E+00 -0.74505805969E-08  0.93827000000E+00  0.93827000000E+00 0.  1.
     999902    2    1    2    0    0  0.17834660505E-01  0.11702822858E-01 -0.90500351106E-02  0.10207581569E+01  0.10204951154E+01 0.  0.
     999903    2    3    3    0    0 -0.10938490328E+00 -0.60001128611E-01 -0.23593090612E-01  0.12860470902E+00  0.20429017524E-01 0.  0.
         14    1    1    2    0    0 -0.17834660505E-01 -0.11702822858E-01  0.90500351106E-02  0.23171843122E-01  0.00000000000E+00 0.  1.
     999901    1    3    3    0    0  0.12721956378E+00  0.71703951469E-01  0.14543055501E-01  0.89215344786E+00  0.88000000000E+00 0. -1.
        -11    1    4    4    0    0 -0.54537426647E-01 -0.20025955384E-01 -0.16295580212E-01  0.60342164775E-01  0.51100000000E-03 0. -1.
         11    1    4    4    0    0 -0.54847476632E-01 -0.39975173227E-01 -0.72975103994E-02  0.68262544242E-01  0.51100000000E-03 0.  1.
</event>
<event>
 8    1  0.1106168E+005  0.1043930E+01  0.7957747E-01            NaN
         13   -1    0    0    0    0  0.00000000000E+00  0.00000000000E+00  0.74505805969E-08  0.10566000000E+00  0.10566000000E+00 0.  1.
     999900   -1    0    0    0    0 -0.00000000000E+00 -0.00000000000E+00 -0.74505805969E-08  0.93827000000E+00  0.93827000000E+00 0.  1.
     999902    2    1    2    0    0  0.12429975353E-01  0.67041879209E-02  0.19956230801E-01  0.10194820641E+01  0.10191888821E+01 0.  0.
     999903    2    3    3    0    0 -0.10719557108E+00 -0.63836540127E-01  0.23954060923E-01  0.12858237931E+00  0.19840285274E-01 0.  0.
         14    1    1    2    0    0 -0.12429975353E-01 -0.67041879209E-02 -0.19956230801E-01  0.24447935920E-01  0.00000000000E+00 0. -1.
     999901    1    3    3    0    0  0.11962554644E+00  0.70540728048E-01 -0.39978301213E-02  0.89089968477E+00  0.88000000000E+00 0.  1.
        -11    1    4    4    0    0 -0.19813727578E-01 -0.20326494275E-01  0.15778149390E-02  0.28434148326E-01  0.51100000000E-03 0.  1.
         11    1    4    4    0    0 -0.87381843505E-01 -0.43510045853E-01  0.22376245984E-01  0.10014823099E+00  0.51100000000E-03 0. -1.
</event>
<event>
 8    1  0.1106168E+005  0.1043930E+01  0.7957747E-01            NaN
         13   -1    0    0    0    0  0.00000000000E+00  0.00000000000E+00  0.74505805969E-08  0.10566000000E+00  0.10566000000E+00 0. -1.
     999900   -1    0    0    0    0 -0.00000000000E+00 -0.00000000000E+00 -0.74505805969E-08  0.93827000000E+00  0.93827000000E+00 0.  1.
     999902    2    1    2    0    0  0.24571806378E-02 -0.18133981315E-01  0.15723268567E-01  0.10198032474E+01  0.10195178092E+01 0.  0.
     999903    2    3    3    0    0  0.19333184306E-02  0.93673892419E-01  0.87867299144E-01  0.12979985631E+00  0.18676311162E-01 0.  0.
         14    1    1    2    0    0 -0.24571806378E-02  0.18133981315E-01 -0.15723268567E-01  0.24126752567E-01  0.00000000000E+00 0.  1.
     999901    1    3    3    0    0  0.52386220719E-03 -0.11180787373E+00 -0.72144030577E-01  0.89000339112E+00  0.88000000000E+00 0.  1.
        -11    1    4    4    0    0 -0.37029995831E-02  0.76837213299E-01  0.64131645199E-01  0.10015387456E+00  0.51100000000E-03 0.  1.
         11    1    4    4    0    0  0.56363180137E-02  0.16836679120E-01  0.23735653944E-01  0.29645981747E-01  0.51100000000E-03 0. -1.
</event>
<event>
 8    1  0.1106168E+005  0.1043930E+01  0.7957747E-01            NaN
         13   -1    0    0    0    0  0.00000000000E+00  0.00000000000E+00  0.74505805969E-08  0.10566000000E+00  0.10566000000E+00 0. -1.
     999900   -1    0    0    0    0 -0.00000000000E+00 -0.00000000000E+00 -0.74505805969E-08  0.93827000000E+00  0.93827000000E+00 0. -1.
     999902    2    1    2    0    0 -0.14385525809E-01  0.72890003781E-02  0.16947887654E-01  0.10205354755E+01  0.10202672949E+01 0.  0.
     999903    2    3    3    0    0 -0.52025373024E-01  0.49782400204E-01  0.11094563593E+00  0.13371078947E+00  0.19614134677E-01 0.  0.
         14    1    1    2    0    0  0.14385525809E-01 -0.72890003781E-02 -0.16947887654E-01  0.23394524471E-01  0.00000000000E+00 0.  1.
     999901    1    3    3    0    0  0.37639847215E-01 -0.42493399826E-01 -0.93997748279E-01  0.88682468606E+00  0.88000000000E+00 0. -1.
        -11    1    4    4    0    0 -0.95078996904E-02  0.11887166337E-01  0.39539390459E-01  0.42371327556E-01  0.51100000000E-03 0.  1.
         11    1    4    4    0    0 -0.42517473334E-01  0.37895233867E-01  0.71406245474E-01  0.91339461911E-01  0.51100000000E-03 0. -1.
</event>
<event>
 8    1  0.1106168E+005  0.1043930E+01  0.7957747E-01            NaN
         13   -1    0    0    0    0  0.00000000000E+00  0.00000000000E+00  0.74505805969E-08  0.10566000000E+00  0.10566000000E+00 0. -1.
     999900   -1    0    0    0    0 -0.00000000000E+00 -0.00000000000E+00 -0.74505805969E-08  0.93827000000E+00  0.93827000000E+00 0. -1.
     999902    2    1    2    0    0 -0.19542866339E-01  0.23503119053E-02  0.12338821801E-01  0.10206986825E+01  0.10204342734E+01 0.  0.
     999903    2    3    3    0    0  0.51079756709E-01 -0.93083002100E-01 -0.69127072583E-01  0.12899707080E+00  0.24250882150E-01 0.  0.
         14    1    1    2    0    0  0.19542866339E-01 -0.23503119053E-02 -0.12338821801E-01  0.23231317532E-01  0.00000000000E+00 0. -1.
     999901    1    3    3    0    0 -0.70622623049E-01  0.95433314005E-01  0.81465894384E-01  0.89170161167E+00  0.88000000000E+00 0.  1.
        -11    1    4    4    0    0  0.16118055579E-01 -0.51367194289E-01 -0.41363086048E-01  0.67893640153E-01  0.51100000000E-03 0. -1.
         11    1    4    4    0    0  0.34961701131E-01 -0.41715807811E-01 -0.27763986534E-01  0.61103430645E-01  0.51100000000E-03 0.  1.
</event>
<event>
 8    1  0.1106168E+005  0.1043930E+01  0.7957747E-01            NaN
         13   -1    0    0    0    0  0.00000000000E+00  0.00000000000E+00  0.74505805969E-08  0.10566000000E+00  0.10566000000E+00 0. -1.
     999900   -1    0    0    0    0 -0.00000000000E+00 -0.00000000000E+00 -0.74505805969E-08  0.93827000000E+00  0.93827000000E+00 0.  1.
     999902    2    1    2    0    0 -0.20058751867E-02  0.12236114755E-01 -0.19217709685E-01  0.10210593549E+01  0.10208031837E+01 0.  0.
     999903    2    3    3    0    0  0.62920299210E-01 -0.11191249922E+00 -0.18741602827E-02  0.12980793970E+00  0.19058258023E-01 0.  0.
         14    1    1    2    0    0  0.20058751867E-02 -0.12236114755E-01  0.19217709685E-01  0.22870645052E-01  0.00000000000E+00 0. -1.
     999901    1    3    3    0    0 -0.64926174397E-01  0.12414861397E+00 -0.17343549403E-01  0.89125141525E+00  0.88000000000E+00 0.  1.
        -11    1    4    4    0    0  0.42322323734E-01 -0.91123369035E-01  0.71798804876E-04  0.10047344797E+00  0.51100000000E-03 0. -1.
         11    1    4    4    0    0  0.20597975476E-01 -0.20789130183E-01 -0.19459590875E-02  0.29334491734E-01  0.51100000000E-03 0.  1.
</event>
<event>
 8    1  0.1106168E+005  0.1043930E+01  0.7957747E-01            NaN
         13   -1    0    0    0    0  0.00000000000E+00  0.00000000000E+00  0.74505805969E-08  0.10566000000E+00  0.10566000000E+00 0. -1.
     999900   -1    0    0    0    0 -0.00000000000E+00 -0.00000000000E+00 -0.74505805969E-08  0.93827000000E+00  0.93827000000E+00 0.  1.
     999902    2    1    2    0    0  0.19910377810E-02 -0.22896026259E-01  0.82461403734E-02  0.10195129756E+01  0.10192205435E+01 0.  0.
     999903    2    3    3    0    0 -0.41010574877E-01 -0.12265222947E+00  0.19216273646E-01  0.13276567078E+00  0.23065591635E-01 0.  0.
         14    1    1    2    0    0 -0.19910377810E-02  0.22896026259E-01 -0.82461403734E-02  0.24417024408E-01  0.00000000000E+00 0. -1.
     999901    1    3    3    0    0  0.43001612658E-01  0.99756203216E-01 -0.10970133273E-01  0.88674730481E+00  0.88000000000E+00 0.  1.
        -11    1    4    4    0    0 -0.20931840246E-01 -0.67201082376E-01  0.21935914029E-01  0.73726337586E-01  0.51100000000E-03 0. -1.
         11    1    4    4    0    0 -0.20078734631E-01 -0.55451147098E-01 -0.27196403825E-02  0.59039333192E-01  0.51100000000E-03 0.  1.
</event>
<event>
 8    1  0.1106168E+005  0.1043930E+01  0.7957747E-01            NaN
         13   -1    0    0    0    0  0.00000000000E+00  0.00000000000E+00  0.74505805969E-08  0.10566000000E+00  0.10566000000E+00 0.  1.
     999900   -1    0    0    0    0 -0.00000000000E+00 -0.00000000000E+00 -0.74505805969E-08  0.93827000000E+00  0.93827000000E+00 0. -1.
     999902    2    1    2    0    0 -0.71047029355E-02 -0.20161621996E-01  0.91405805825E-02  0.10206809566E+01  0.10204161392E+01 0.  0.
     999903    2    3    3    0    0 -0.40473249430E-01  0.12637453268E-02  0.12453849344E+00  0.13226146979E+00  0.18535886080E-01 0.  0.
         14    1    1    2    0    0  0.71047029355E-02  0.20161621996E-01 -0.91405805825E-02  0.23249043393E-01  0.00000000000E+00 0.  1.
     999901    1    3    3    0    0  0.33368546495E-01 -0.21425367323E-01 -0.11539791285E+00  0.88841948681E+00  0.88000000000E+00 0. -1.
        -11    1    4    4    0    0 -0.12285420105E-01  0.22990937639E-02  0.17138774644E-01  0.21218296270E-01  0.51100000000E-03 0. -1.
         11    1    4    4    0    0 -0.28187829325E-01 -0.10353484371E-02  0.10739971879E+00  0.11104317352E+00  0.51100000000E-03 0.  1.
</event>
<event>
 8    1  0.1106168E+005  0.1043930E+01  0.7957747E-01            NaN
         13   -1    0    0    0    0  0.00000000000E+00  0.00000000000E+00  0.74505805969E-08  0.10566000000E+00  0.10566000000E+00 0.  1.
     999900   -1    0    0    0    0 -0.00000000000E+00 -0.00000000000E+00 -0.74505805969E-08  0.93827000000E+00  0.93827000000E+00 0.  1.
     999902    2    1    2    0    0 -0.38706049022E-02 -0.22614489023E-01  0.24628223716E-02  0.10208548577E+01  0.10205940321E+01 0.  0.
     999903    2    3    3    0    0  0.96902994492E-01  0.68013839010E-01 -0.47479800431E-01  0.12907961826E+00  0.19777354830E-01 0.  0.
         14    1    1    2    0    0  0.38706049022E-02  0.22614489023E-01 -0.24628223716E-02  0.23075142256E-01  0.00000000000E+00 0.  1.
     999901    1    3    3    0    0 -0.10077359939E+00 -0.90628328033E-01  0.49942622802E-01  0.89177523948E+00  0.88000000000E+00 0. -1.
        -11    1    4    4    0    0  0.77636432446E-01  0.58417835256E-01 -0.45995561950E-01  0.10749842770E+00  0.51100000000E-03 0. -1.
         11    1    4    4    0    0  0.19266562046E-01  0.95960037539E-02 -0.14842384806E-02  0.21581190560E-01  0.51100000000E-03 0.  1.
</event>
<event>
 8    1  0.1106168E+005  0.1043930E+01  0.7957747E-01            NaN
         13   -1    0    0    0    0  0.00000000000E+00  0.00000000000E+00  0.74505805969E-08  0.10566000000E+00  0.10566000000E+00 0. -1.
     999900   -1    0    0    0    0 -0.00000000000E+00 -0.00000000000E+00 -0.74505805969E-08  0.93827000000E+00  0.93827000000E+00 0. -1.
     999902    2    1    2    0    0 -0.13508029856E-01  0.17183377114E-01 -0.11372524533E-01  0.10192912169E+01  0.10189933833E+01 0.  0.
     999903    2    3    3    0    0 -0.25654857131E-01 -0.70254119345E-01 -0.10448870667E+00  0.12998615978E+00  0.19613743486E-01 0.  0.
         14    1    1    2    0    0  0.13508029856E-01 -0.17183377114E-01  0.11372524533E-01  0.24638783125E-01  0.00000000000E+00 0. -1.
     999901    1    3    3    0    0  0.12146827275E-01  0.87437496459E-01  0.93116182135E-01  0.88930505710E+00  0.88000000000E+00 0. -1.
        -11    1    4    4    0    0 -0.21064299304E-01 -0.54397279525E-01 -0.65893159638E-01  0.88005331276E-01  0.51100000000E-03 0. -1.
         11    1    4    4    0    0 -0.45905578267E-02 -0.15856839821E-01 -0.38595547031E-01  0.41980828504E-01  0.51100000000E-03 0.  1.
</event>
<event>
 8    1  0.1106168E+005  0.1043930E+01  0.7957747E-01            NaN
         13   -1    0    0    0    0  0.00000000000E+00  0.00000000000E+00  0.74505805969E-08  0.10566000000E+00  0.10566000000E+00 0. -1.
     999900   -1    0    0    0    0 -0.00000000000E+00 -0.00000000000E+00 -0.74505805969E-08  0.93827000000E+00  0.93827000000E+00 0. -1.
     999902    2    1    2    0    0 -0.56657026944E-02 -0.68689099287E-02  0.20478571772E-01  0.10215994377E+01  0.10213553530E+01 0.  0.
     999903    2    3    3    0    0 -0.87305749015E-01  0.87510653693E-01 -0.39096876812E-01  0.13080101311E+00  0.17318514144E-01 0.  0.
         14    1    1    2    0    0  0.56657026944E-02  0.68689099287E-02 -0.20478571772E-01  0.22330562296E-01  0.00000000000E+00 0.  1.
     999901    1    3    3    0    0  0.81640046321E-01 -0.94379563622E-01  0.59575448584E-01  0.89079842460E+00  0.88000000000E+00 0.  1.
        -11    1    4    4    0    0 -0.65726544885E-01  0.74751550526E-01 -0.34219010822E-01  0.10525670920E+00  0.51100000000E-03 0. -1.
         11    1    4    4    0    0 -0.21579204130E-01  0.12759103167E-01 -0.48778659904E-02  0.25544303908E-01  0.51100000000E-03 0.  1.
</event>
<event>
 8    1  0.1106168E+005  0.1043930E+01  0.7957747E-01            NaN
         13   -1    0    0    0    0  0.00000000000E+00  0.00000000000E+00  0.74505805969E-08  0.10566000000E+00  0.10566000000E+00 0. -1.
     999900   -1    0    0    0    0 -0.00000000000E+00 -0.00000000000E+00 -0.74505805969E-08  0.93827000000E+00  0.93827000000E+00 0.  1.
     999902    2    1    2    0    0  0.18465867977E-01  0.85295615526E-02  0.24903957230E-01  0.10117749260E+01  0.10112638390E+01 0.  0.
     999903    2    3    3    0    0 -0.80635384890E-01 -0.76301537977E-01  0.46642153327E-01  0.12189295461E+00  0.18931770218E-01 0.  0.
         14    1    1    2    0    0 -0.18465867977E-01 -0.85295615526E-02 -0.24903957230E-01  0.32155074034E-01  0.00000000000E+00 0.  1.
     999901    1    3    3    0    0  0.99101252867E-01  0.84831099530E-01 -0.21738196096E-01  0.88988197135E+00  0.88000000000E+00 0. -1.
        -11    1    4    4    0    0 -0.66216510970E-01 -0.60763631585E-01  0.29386074152E-01  0.94554998406E-01  0.51100000000E-03 0.  1.
         11    1    4    4    0    0 -0.14418873920E-01 -0.15537906393E-01  0.17256079175E-01  0.27337956209E-01  0.51100000000E-03 0. -1.
</event>
<event>
 8    1  0.1106168E+005  0.1043930E+01  0.7957747E-01            NaN
         13   -1    0    0    0    0  0.00000000000E+00  0.00000000000E+00  0.74505805969E-08  0.10566000000E+00  0.10566000000E+00 0.  1.
     999900   -1    0    0    0    0 -0.00000000000E+00 -0.00000000000E+00 -0.74505805969E-08  0.93827000000E+00  0.93827000000E+00 0.  1.
     999902    2    1    2    0    0  0.30632102387E-02 -0.54441285503E-02 -0.23630165926E-01  0.10194880988E+01  0.10191950633E+01 0.  0.
     999903    2    3    3    0    0  0.11338517706E+00 -0.42133066234E-01  0.40699826603E-01  0.12951317643E+00  0.22040719942E-01 0.  0.
         14    1    1    2    0    0 -0.30632102387E-02  0.54441285503E-02  0.23630165926E-01  0.24441901201E-01  0.00000000000E+00 0.  1.
     999901    1    3    3    0    0 -0.11032196682E+00  0.36688937683E-01 -0.64329992529E-01  0.88997492237E+00  0.88000000000E+00 0.  1.
        -11    1    4    4    0    0  0.64167540386E-02  0.12542967231E-02 -0.12819362312E-02  0.66822506809E-02  0.51100000000E-03 0.  1.
         11    1    4    4    0    0  0.10696842302E+00 -0.43387362957E-01  0.41981762834E-01  0.12283092575E+00  0.51100000000E-03 0. -1.
</event>
<event>
 8    1  0.1106168E+005  0.1043930E+01  0.7957747E-01            NaN
         13   -1    0    0    0    0  0.00000000000E+00  0.00000000000E+00  0.74505805969E-08  0.10566000000E+00  0.10566000000E+00 0.  1.
     999900   -1    0    0    0    0 -0.00000000000E+00 -0.00000000000E+00 -0.74505805969E-08  0.93827000000E+00  0.93827000000E+00 0.  1.
     999902    2    1    2    0    0 -0.10951594742E-01 -0.17968598393E-01  0.10189241945E-01  0.10205499100E+01  0.10202820641E+01 0.  0.
     999903    2    3    3    0    0  0.91497117827E-01  0.85713152521E-01 -0.17398765645E-01  0.12813367175E+00  0.19926206485E-01 0.  0.
         14    1    1    2    0    0  0.10951594742E-01  0.17968598393E-01 -0.10189241945E-01  0.23380089970E-01  0.00000000000E+00 0. -1.
     999901    1    3    3    0    0 -0.10244871257E+00 -0.10368175091E+00  0.27588007589E-01  0.89241623828E+00  0.88000000000E+00 0. -1.
        -11    1    4    4    0    0  0.25585167445E-01  0.13151398303E-01 -0.65257799549E-02  0.29502660821E-01  0.51100000000E-03 0. -1.
         11    1    4    4    0    0  0.65911950382E-01  0.72561754218E-01 -0.10872985690E-01  0.98631010931E-01  0.51100000000E-03 0.  1.
</event>
<event>
 8    1  0.1106168E+005  0.1043930E+01  0.7957747E-01            NaN
         13   -1    0    0    0    0  0.00000000000E+00  0.00000000000E+00  0.74505805969E-08  0.10566000000E+00  0.10566000000E+00 0. -1.
     999900   -1    0    0    0    0 -0.00000000000E+00 -0.00000000000E+00 -0.74505805969E-08  0.93827000000E+00  0.93827000000E+00 0. -1.
     999902    2    1    2    0    0  0.20883075853E-02  0.12379589102E-01 -0.20091976987E-01  0.10202381703E+01  0.10199630490E+01 0.  0.
     999903    2    3    3    0    0  0.34486517704E-01 -0.12016104473E+00 -0.28413521268E-01  0.12968445956E+00  0.19563595931E-01 0.  0.
         14    1    1    2    0    0 -0.20883075853E-02 -0.12379589102E-01  0.20091976987E-01  0.23691829692E-01  0.00000000000E+00 0. -1.
     999901    1    3    3    0    0 -0.32398210118E-01  0.13254063383E+00  0.83215442810E-02  0.89055371075E+00  0.88000000000E+00 0. -1.
        -11    1    4    4    0    0  0.10335847763E-01 -0.71085209053E-01 -0.16257496147E-01  0.73651232148E-01  0.51100000000E-03 0. -1.
         11    1    4    4    0    0  0.24150669941E-01 -0.49075835677E-01 -0.12156025121E-01  0.56033227408E-01  0.51100000000E-03 0.  1.
</event>
<event>
 8    1  0.1106168E+005  0.1043930E+01  0.7957747E-01            NaN
         13   -1    0    0    0    0  0.00000000000E+00  0.00000000000E+00  0.74505805969E-08  0.10566000000E+00  0.10566000000E+00 0. -1.
     999900   -1    0    0    0    0 -0.00000000000E+00 -0.00000000000E+00 -0.74505805969E-08  0.93827000000E+00  0.93827000000E+00 0. -1.
     999902    2    1    2    0    0  0.12893107838E-01 -0.94141722928E-02  0.23780226190E-02  0.10277895582E+01  0.10276628154E+01 0.  0.
     999903    2    3    3    0    0  0.95286742891E-01  0.64916959018E-01 -0.72541383266E-01  0.13766218218E+00  0.19870812186E-01 0.  0.
         14    1    1    2    0    0 -0.12893107838E-01  0.94141722928E-02 -0.23780226190E-02  0.16140441793E-01  0.00000000000E+00 0. -1.
     999901    1    3    3    0    0 -0.82393635053E-01 -0.74331131310E-01  0.74919405885E-01  0.89012737603E+00  0.88000000000E+00 0.  1.
        -11    1    4    4    0    0  0.46694414337E-01  0.20886100011E-01 -0.36425029722E-01  0.62798418891E-01  0.51100000000E-03 0. -1.
         11    1    4    4    0    0  0.48592328554E-01  0.44030859006E-01 -0.36116353543E-01  0.74863763287E-01  0.51100000000E-03 0.  1.
</event>
<event>
 8    1  0.1106168E+005  0.1043930E+01  0.7957747E-01            NaN
         13   -1    0    0    0    0  0.00000000000E+00  0.00000000000E+00  0.74505805969E-08  0.10566000000E+00  0.10566000000E+00 0.  1.
     999900   -1    0    0    0    0 -0.00000000000E+00 -0.00000000000E+00 -0.74505805969E-08  0.93827000000E+00  0.93827000000E+00 0.  1.
     999902    2    1    2    0    0  0.12613525054E-01 -0.19503117682E-01  0.74489942970E-02  0.10195381954E+01  0.10192463745E+01 0.  0.
     999903    2    3    3    0    0  0.62621206167E-01 -0.79123259508E-02 -0.11183348153E+00  0.13000830631E+00  0.20283287531E-01 0.  0.
         14    1    1    2    0    0 -0.12613525054E-01  0.19503117682E-01 -0.74489942970E-02  0.24391804559E-01  0.00000000000E+00 0. -1.
     999901    1    3    3    0    0 -0.50007681113E-01 -0.11590791731E-01  0.11928247583E+00  0.88952988913E+00  0.88000000000E+00 0. -1.
        -11    1    4    4    0    0  0.47950471348E-01  0.11389176704E-02 -0.71021427957E-01  0.85702095576E-01  0.51100000000E-03 0.  1.
         11    1    4    4    0    0  0.14670734818E-01 -0.90512436212E-02 -0.40812053576E-01  0.44306210731E-01  0.51100000000E-03 0. -1.
</event>
<event>
 8    1  0.1106168E+005  0.1043930E+01  0.7957747E-01            NaN
         13   -1    0    0    0    0  0.00000000000E+00  0.00000000000E+00  0.74505805969E-08  0.10566000000E+00  0.10566000000E+00 0.  1.
     999900   -1    0    0    0    0 -0.00000000000E+00 -0.00000000000E+00 -0.74505805969E-08  0.93827000000E+00  0.93827000000E+00 0. -1.
     999902    2    1    2    0    0  0.18320633167E-01 -0.67082138109E-02 -0.10381855472E-01  0.10218295779E+01  0.10215905529E+01 0.  0.
     999903    2    3    3    0    0  0.13079432004E+00 -0.10597828022E-01 -0.22571598292E-01  0.13457874015E+00  0.19557406140E-01 0.  0.
         14    1    1    2    0    0 -0.18320633167E-01  0.67082138109E-02  0.10381855472E-01  0.22100422059E-01  0.00000000000E+00 0. -1.
     999901    1    3    3    0    0 -0.11247368688E+00  0.38896142109E-02  0.12189742820E-01  0.88725083780E+00  0.88000000000E+00 0.  1.
        -11    1    4    4    0    0  0.82714918850E-01 -0.15697013879E-01 -0.11487523509E-01  0.84972809548E-01  0.51100000000E-03 0.  1.
         11    1    4    4    0    0  0.48079401195E-01  0.50991858573E-02 -0.11084074783E-01  0.49605930598E-01  0.51100000000E-03 0. -1.
</event>
<event>
 8    1  0.1106168E+005  0.1043930E+01  0.7957747E-01            NaN
         13   -1    0    0    0    0  0.00000000000E+00  0.00000000000E+00  0.74505805969E-08  0.10566000000E+00  0.10566000000E+00 0.  1.
     999900   -1    0    0    0    0 -0.00000000000E+00 -0.00000000000E+00 -0.74505805969E-08  0.93827000000E+00  0.93827000000E+00 0. -1.
     999902    2    1    2    0    0  0.15436342902E-01 -0.17107295823E-01 -0.53801904566E-02  0.10202680748E+01  0.10199936558E+01 0.  0.
     999903    2    3    3    0    0  0.81678098083E-01  0.77962116720E-01 -0.62936879764E-01  0.13080816242E+00  0.20008027677E-01 0.  0.
         14    1    1    2    0    0 -0.15436342902E-01  0.17107295823E-01  0.53801904566E-02  0.23661925152E-01  0.00000000000E+00 0.  1.
     999901    1    3    3    0    0 -0.66241755180E-01 -0.95069412543E-01  0.57556689308E-01  0.88945991243E+00  0.88000000000E+00 0.  1.
        -11    1    4    4    0    0  0.19832889515E-01  0.86847253989E-02 -0.14549050387E-01  0.26090303753E-01  0.51100000000E-03 0.  1.
         11    1    4    4    0    0  0.61845208567E-01  0.69277391321E-01 -0.48387829378E-01  0.10471785867E+00  0.51100000000E-03 0. -1.
</event>
<event>
 8    1  0.1106168E+005  0.1043930E+01  0.7957747E-01            NaN
         13   -1    0    0    0    0  0.00000000000E+00  0.00000000000E+00  0.74505805969E-08  0.10566000000E+00  0.10566000000E+00 0. -1.
     999900   -1    0    0    0    0 -0.00000000000E+00 -0.00000000000E+00 -0.74505805969E-08  0.93827000000E+00  0.93827000000E+00 0. -1.
     999902    2    1    2    0    0 -0.17563903131E-01 -0.17074652025E-02  0.13610390131E-01  0.10216443802E+01  0.10214012878E+01 0.  0.
     999903    2    3    3    0    0  0.75894853230E-01 -0.65732671078E-01  0.82833442384E-01  0.13168618056E+00  0.19976440630E-01 0.  0.
         14    1    1    2    0    0  0.17563903131E-01  0.17074652025E-02 -0.13610390131E-01  0.22285619806E-01  0.00000000000E+00 0. -1.
     999901    1    3    3    0    0 -0.93458756361E-01  0.64025205876E-01 -0.69223052253E-01  0.88995819963E+00  0.88000000000E+00 0. -1.
        -11    1    4    4    0    0  0.73942676667E-01 -0.57600747648E-01  0.73265998770E-01  0.11896862300E+00  0.51100000000E-03 0. -1.
         11    1    4    4    0    0  0.19521765631E-02 -0.81319234306E-02  0.95674436142E-02  0.12717557561E-01  0.51100000000E-03 0.  1.
</event>
<event>
 8    1  0.1106168E+005  0.1043930E+01  0.7957747E-01            NaN
         13   -1    0    0    0    0  0.00000000000E+00  0.00000000000E+00  0.74505805969E-08  0.10566000000E+00  0.10566000000E+00 0. -1.
     999900   -1    0    0    0    0 -0.00000000000E+00 -0.00000000000E+00 -0.74505805969E-08  0.93827000000E+00  0.93827000000E+00 0. -1.
     999902    2    1    2    0    0  0.12871216277E-01 -0.15415284861E-01  0.14984138806E-01  0.10188735910E+01  0.10185654475E+01 0.  0.
     999903    2    3    3    0    0 -0.49928684221E-02  0.83657829550E-01 -0.93425175089E-01  0.12652433939E+00  0.16018237667E-01 0.  0.
         14    1    1    2    0    0 -0.12871216277E-01  0.15415284861E-01 -0.14984138806E-01  0.25056408992E-01  0.00000000000E+00 0.  1.
     999901    1    3    3    0    0  0.17864084699E-01 -0.99073114412E-01  0.10840931389E+00  0.89234925162E+00  0.88000000000E+00 0.  1.
        -11    1    4    4    0    0  0.48997107977E-02  0.43508376981E-01 -0.52192383315E-01  0.68127028634E-01  0.51100000000E-03 0.  1.
         11    1    4    4    0    0 -0.98925792198E-02  0.40149452570E-01 -0.41232791774E-01  0.58397310758E-01  0.51100000000E-03 0. -1.
</event>
<event>
 8    1  0.1106168E+005  0.1043930E+01  0.7957747E-01            NaN
         13   -1    0    0    0    0  0.00000000000E+00  0.00000000000E+00  0.74505805969E-08  0.10566000000E+00  0.10566000000E+00 0.  1.
     999900   -1    0    0    0    0 -0.00000000000E+00 -0.00000000000E+00 -0.74505805969E-08  0.93827000000E+00  0.93827000000E+00 0. -1.
     999902    2    1    2    0    0  0.96765417586E-02  0.15647247278E-01 -0.14399359687E-01  0.10205673510E+01  0.10202999091E+01 0.  0.
     999903    2    3    3    0    0 -0.10021463843E+00 -0.71822197847E-01 -0.33166645578E-01  0.12923173167E+00  0.19985300398E-01 0.  0.
         14    1    1    2    0    0 -0.96765417586E-02 -0.15647247278E-01  0.14399359687E-01  0.23362648976E-01  0.00000000000E+00 0.  1.
     999901    1    3    3    0    0  0.10989118019E+00  0.87469445125E-01  0.18767285891E-01  0.89133561936E+00  0.88000000000E+00 0. -1.
        -11    1    4    4    0    0 -0.26649148201E-01 -0.93661944186E-02 -0.10166734398E-01  0.30025427675E-01  0.51100000000E-03 0.  1.
         11    1    4    4    0    0 -0.73565490228E-01 -0.62456003428E-01 -0.22999911180E-01  0.99206303993E-01  0.51100000000E-03 0. -1.
</event>
<event>
 8    1  0.1106168E+005  0.1043930E+01  0.7957747E-01            NaN
         13   -1    0    0    0    0  0.00000000000E+00  0.00000000000E+00  0.74505805969E-08  0.10566000000E+00  0.10566000000E+00 0.  1.
     999900   -1    0    0    0    0 -0.00000000000E+00 -0.00000000000E+00 -0.74505805969E-08  0.93827000000E+00  0.93827000000E+00 0. -1.
     999902    2    1    2    0    0  0.11550730127E-01 -0.41944829651E-02  0.20446239509E-01  0.10200749845E+01  0.10197960150E+01 0.  0.
     999903    2    3    3    0    0  0.99198918492E-03  0.90173580147E-01  0.94225148849E-01  0.13189699232E+00  0.19651445480E-01 0.  0.
         14    1    1    2    0    0 -0.11550730127E-01  0.41944829651E-02 -0.20446239509E-01  0.23855015487E-01  0.00000000000E+00 0. -1.
     999901    1    3    3    0    0  0.10558740942E-01 -0.94368063112E-01 -0.73778909340E-01  0.88817799219E+00  0.88000000000E+00 0.  1.
        -11    1    4    4    0    0 -0.53636336830E-02  0.70119819573E-01  0.64139057772E-01  0.95182128134E-01  0.51100000000E-03 0.  1.
         11    1    4    4    0    0  0.63556228679E-02  0.20053760574E-01  0.30086091077E-01  0.36714864190E-01  0.51100000000E-03 0. -1.
</event>
<event>
 8    1  0.1106168E+005  0.1043930E+01  0.7957747E-01            NaN
         13   -1    0    0    0    0  0.00000000000E+00  0.00000000000E+00  0.74505805969E-08  0.10566000000E+00  0.10566000000E+00 0.  1.
     999900   -1    0    0    0    0 -0.00000000000E+00 -0.00000000000E+00 -0.74505805969E-08  0.93827000000E+00  0.93827000000E+00 0.  1.
     999902    2    1    2    0    0 -0.88093303219E-02 -0.11222994430E-02 -0.23923736841E-01  0.10184112022E+01  0.10180914339E+01 0.  0.
     999903    2    3    3    0    0  0.57506746341E-01 -0.22484953814E-01 -0.11424138311E+00  0.13104912150E+00  0.17611916676E-01 0.  0.
         14    1    1    2    0    0  0.88093303219E-02  0.11222994430E-02  0.23923736841E-01  0.25518797801E-01  0.00000000000E+00 0.  1.
     999901    1    3    3    0    0 -0.66316076663E-01  0.21362654371E-01  0.90317646271E-01  0.88736208069E+00  0.88000000000E+00 0. -1.
        -11    1    4    4    0    0  0.32802174282E-01 -0.75798518857E-02 -0.46436278712E-01  0.57358747318E-01  0.51100000000E-03 0. -1.
         11    1    4    4    0    0  0.24704572059E-01 -0.14905101929E-01 -0.67805104400E-01  0.73690374187E-01  0.51100000000E-03 0.  1.
</event>
<event>
 8    1  0.1106168E+005  0.1043930E+01  0.7957747E-01            NaN
         13   -1    0    0    0    0  0.00000000000E+00  0.00000000000E+00  0.74505805969E-08  0.10566000000E+00  0.10566000000E+00 0. -1.
     999900   -1    0    0    0    0 -0.00000000000E+00 -0.00000000000E+00 -0.74505805969E-08  0.93827000000E+00  0.93827000000E+00 0. -1.
     999902    2    1    2    0    0  0.21603730854E-01  0.19838776018E-02  0.87971015721E-02  0.10205196187E+01  0.10202510702E+01 0.  0.
     999903    2    3    3    0    0  0.82993718016E-01  0.59026985615E-01 -0.81356491375E-01  0.13195317941E+00  0.20509037167E-01 0.  0.
         14    1    1    2    0    0 -0.21603730854E-01 -0.19838776018E-02 -0.87971015721E-02  0.23410381313E-01  0.00000000000E+00 0.  1.
     999901    1    3    3    0    0 -0.61389987162E-01 -0.57043108013E-01  0.90153592947E-01  0.88856643928E+00  0.88000000000E+00 0.  1.
        -11    1    4    4    0    0  0.59677386889E-01  0.30592778341E-01 -0.54472186469E-01  0.86399009325E-01  0.51100000000E-03 0.  1.
         11    1    4    4    0    0  0.23316331127E-01  0.28434207274E-01 -0.26884304906E-01  0.45554170081E-01  0.51100000000E-03 0. -1.
</event>
<event>
 8    1  0.1141869E+005  0.1043930E+01  0.7957747E-01            NaN
         13   -1    0    0    0    0  0.00000000000E+00  0.00000000000E+00  0.74505805969E-08  0.10566000000E+00  0.10566000000E+00 0.  1.
     999900   -1    0    0    0    0 -0.00000000000E+00 -0.00000000000E+00 -0.74505805969E-08  0.93827000000E+00  0.93827000000E+00 0.  1.
     999902    2    1    2    0    0  0.11741575962E-01 -0.43210769475E-02  0.19840637781E-01  0.10204739300E+01  0.10202043200E+01 0.  0.
     999903    2    3    3    0    0 -0.10627103053E+00  0.50316746104E-01  0.52100304753E-01  0.13033183286E+00  0.21133812542E-01 0.  0.
         14    1    1    2    0    0 -0.11741575962E-01  0.43210769475E-02 -0.19840637781E-01  0.23456069995E-01  0.00000000000E+00 0. -1.
     999901    1    3    3    0    0  0.11801260649E+00 -0.54637823051E-01 -0.32259666972E-01  0.89014209715E+00  0.88000000000E+00 0.  1.
        -11    1    4    4    0    0 -0.48314397216E-01  0.14219965131E-01  0.29700642303E-01  0.58471169484E-01  0.51100000000E-03 0. -1.
         11    1    4    4    0    0 -0.57956633314E-01  0.36096780973E-01  0.22399662450E-01  0.71860663374E-01  0.51100000000E-03 0.  1.
</event>
<event>
 8    1  0.1106168E+005  0.1043930E+01  0.7957747E-01            NaN
         13   -1    0    0    0    0  0.00000000000E+00  0.00000000000E+00  0.74505805969E-08  0.10566000000E+00  0.10566000000E+00 0. -1.
     999900   -1    0    0    0    0 -0.00000000000E+00 -0.00000000000E+00 -0.74505805969E-08  0.93827000000E+00  0.93827000000E+00 0. -1.
     999902    2    1    2    0    0 -0.62705917129E-02  0.22510471357E-01 -0.21694497921E-02  0.10204619759E+01  0.10201920879E+01 0.  0.
     999903    2    3    3    0    0 -0.57166359837E-01 -0.43134623627E-01  0.10679918341E+00  0.12985891018E+00  0.18129603549E-01 0.  0.
         14    1    1    2    0    0  0.62705917129E-02 -0.22510471357E-01  0.21694497921E-02  0.23468024065E-01  0.00000000000E+00 0.  1.
     999901    1    3    3    0    0  0.50895768124E-01  0.65645094984E-01 -0.10896863320E+00  0.89060306575E+00  0.88000000000E+00 0. -1.
        -11    1    4    4    0    0 -0.27015842081E-01 -0.18875219998E-01  0.33654711741E-01  0.47106585492E-01  0.51100000000E-03 0. -1.
         11    1    4    4    0    0 -0.30150517756E-01 -0.24259403629E-01  0.73144471665E-01  0.82752324689E-01  0.51100000000E-03 0.  1.
</event>
<event>
 8    1  0.1106168E+005  0.1043930E+01  0.7957747E-01            NaN
         13   -1    0    0    0    0  0.00000000000E+00  0.00000000000E+00  0.74505805969E-08  0.10566000000E+00  0.10566000000E+00 0.  1.
     999900   -1    0    0    0    0 -0.00000000000E+00 -0.00000000000E+00 -0.74505805969E-08  0.93827000000E+00  0.93827000000E+00 0. -1.
     999902    2    1    2    0    0  0.18522325452E-01 -0.62800995462E-02  0.13178599951E-01  0.10203462834E+01  0.10200736966E+01 0.  0.
     999903    2    3    3    0    0 -0.68834027004E-01 -0.87507666522E-01  0.65690687230E-01  0.13074717751E+00  0.19591913230E-01 0.  0.
         14    1    1    2    0    0 -0.18522325452E-01  0.62800995462E-02 -0.13178599951E-01  0.23583716567E-01  0.00000000000E+00 0. -1.
     999901    1    3    3    0    0  0.87356352456E-01  0.81227566976E-01 -0.52512087278E-01  0.88959910592E+00  0.88000000000E+00 0. -1.
        -11    1    4    4    0    0 -0.17995916438E-01 -0.13875551163E-01  0.20007882203E-01  0.30281353995E-01  0.51100000000E-03 0. -1.
         11    1    4    4    0    0 -0.50838110565E-01 -0.73632115359E-01  0.45682805027E-01  0.10046582351E+00  0.51100000000E-03 0.  1.
</event>
<event>
 8    1  0.1106168E+005  0.1043930E+01  0.7957747E-01            NaN
         13   -1    0    0    0    0  0.00000000000E+00  0.00000000000E+00  0.74505805969E-08  0.10566000000E+00  0.10566000000E+00 0. -1.
     999900   -1    0    0    0    0 -0.00000000000E+00 -0.00000000000E+00 -0.74505805969E-08  0.93827000000E+00  0.93827000000E+00 0. -1.
     999902    2    1    2    0    0 -0.16892234713E-01  0.25042654902E-02  0.15954117782E-01  0.10205600874E+01  0.10202924773E+01 0.  0.
     999903    2    3    3    0    0 -0.12976780820E+00 -0.18571301077E-01  0.32951794653E-02  0.13300990670E+00  0.22275542767E-01 0.  0.
         14    1    1    2    0    0  0.16892234713E-01 -0.25042654902E-02 -0.15954117782E-01  0.23369912568E-01  0.00000000000E+00 0.  1.
     999901    1    3    3    0    0  0.11287557348E+00  0.21075566568E-01  0.12658938317E-01  0.88755018073E+00  0.88000000000E+00 0.  1.
        -11    1    4    4    0    0 -0.87832491519E-01 -0.18263855068E-01 -0.64792034449E-02  0.89946407191E-01  0.51100000000E-03 0. -1.
         11    1    4    4    0    0 -0.41935316676E-01 -0.30744600960E-03  0.97743829101E-02  0.43063499510E-01  0.51100000000E-03 0.  1.
</event>
<event>
 8    1  0.1106168E+005  0.1043930E+01  0.7957747E-01            NaN
         13   -1    0    0    0    0  0.00000000000E+00  0.00000000000E+00  0.74505805969E-08  0.10566000000E+00  0.10566000000E+00 0. -1.
     999900   -1    0    0    0    0 -0.00000000000E+00 -0.00000000000E+00 -0.74505805969E-08  0.93827000000E+00  0.93827000000E+00 0. -1.
     999902    2    1    2    0    0 -0.19148879207E-01  0.70207605882E-02  0.12938986333E-01  0.10197765733E+01  0.10194904960E+01 0.  0.
     999903    2    3    3    0    0 -0.12591410721E+00  0.35770630283E-01  0.13234591276E-01  0.13285749226E+00  0.18494822469E-01 0.  0.
         14    1    1    2    0    0  0.19148879207E-01 -0.70207605882E-02 -0.12938986333E-01  0.24153426702E-01  0.00000000000E+00 0.  1.
     999901    1    3    3    0    0  0.10676522801E+00 -0.28749869695E-01 -0.29560494293E-03  0.88691908103E+00  0.88000000000E+00 0.  1.
        -11    1    4    4    0    0 -0.49489322576E-01  0.23511306907E-01  0.53021113672E-02  0.55048597688E-01  0.51100000000E-03 0.  1.
         11    1    4    4    0    0 -0.76424784638E-01  0.12259323375E-01  0.79324799084E-02  0.77808894576E-01  0.51100000000E-03 0. -1.
</event>
<event>
 8    1  0.1106168E+005  0.1043930E+01  0.7957747E-01            NaN
         13   -1    0    0    0    0  0.00000000000E+00  0.00000000000E+00  0.74505805969E-08  0.10566000000E+00  0.10566000000E+00 0.  1.
     999900   -1    0    0    0    0 -0.00000000000E+00 -0.00000000000E+00 -0.74505805969E-08  0.93827000000E+00  0.93827000000E+00 0. -1.
     999902    2    1    2    0    0  0.11805248558E-01  0.99219890419E-03 -0.20406310680E-01  0.10203341133E+01  0.10200612418E+01 0.  0.
     999903    2    3    3    0    0 -0.71661889652E-01 -0.10553308302E+00 -0.68149655483E-03  0.12977054618E+00  0.23817476295E-01 0.  0.
         14    1    1    2    0    0 -0.11805248558E-01 -0.99219890419E-03  0.20406310680E-01  0.23595886671E-01  0.00000000000E+00 0.  1.
     999901    1    3    3    0    0  0.83467138210E-01  0.10652528192E+00 -0.19724814126E-01  0.89056356715E+00  0.88000000000E+00 0. -1.
        -11    1    4    4    0    0 -0.62265493491E-01 -0.73278187765E-01 -0.11416719994E-02  0.96167816954E-01  0.51100000000E-03 0.  1.
         11    1    4    4    0    0 -0.93963961613E-02 -0.32254895254E-01  0.46017544457E-03  0.33602729221E-01  0.51100000000E-03 0. -1.
</event>
<event>
 8    1  0.1106168E+005  0.1043930E+01  0.7957747E-01            NaN
         13   -1    0    0    0    0  0.00000000000E+00  0.00000000000E+00  0.74505805969E-08  0.10566000000E+00  0.10566000000E+00 0. -1.
     999900   -1    0    0    0    0 -0.00000000000E+00 -0.00000000000E+00 -0.74505805969E-08  0.93827000000E+00  0.93827000000E+00 0.  1.
     999902    2    1    2    0    0 -0.14399194102E-01 -0.16166580939E-01  0.98856572466E-02  0.10201303918E+01  0.10198527320E+01 0.  0.
     999903    2    3    3    0    0  0.50726702779E-01  0.34067267956E-01  0.11281878755E+00  0.13032139472E+00  0.22843160370E-01 0.  0.
         14    1    1    2    0    0  0.14399194102E-01  0.16166580939E-01 -0.98856572466E-02  0.23799608174E-01  0.00000000000E+00 0.  1.
     999901    1    3    3    0    0 -0.65125896882E-01 -0.50233848895E-01 -0.10293313031E+00  0.88980899711E+00  0.88000000000E+00 0.  1.
        -11    1    4    4    0    0  0.28196236499E-01  0.31722948229E-01  0.69547763377E-01  0.81477148383E-01  0.51100000000E-03 0.  1.
         11    1    4    4    0    0  0.22530466281E-01  0.23443197274E-02  0.43271024175E-01  0.48844246335E-01  0.51100000000E-03 0. -1.
</event>
<event>
 8    1  0.1106168E+005  0.1043930E+01  0.7957747E-01            NaN
         13   -1    0    0    0    0  0.00000000000E+00  0.00000000000E+00  0.74505805969E-08  0.10566000000E+00  0.10566000000E+00 0. -1.
     999900   -1    0    0    0    0 -0.00000000000E+00 -0.00000000000E+00 -0.74505805969E-08  0.93827000000E+00  0.93827000000E+00 0. -1.
     999902    2    1    2    0    0 -0.13877615898E-01 -0.18880703090E-01  0.29518880446E-02  0.10203125739E+01  0.10200391981E+01 0.  0.
     999903    2    3    3    0    0  0.16305154095E-01  0.87542027619E-01  0.91292639196E-01  0.12899843987E+00  0.19410998654E-01 0.  0.
         14    1    1    2    0    0  0.13877615898E-01  0.18880703090E-01 -0.29518880446E-02  0.23617426092E-01  0.00000000000E+00 0. -1.
     999901    1    3    3    0    0 -0.30182769993E-01 -0.10642273071E+00 -0.88340751151E-01  0.89131413403E+00  0.88000000000E+00 0. -1.
        -11    1    4    4    0    0  0.11278143089E-01  0.31496671330E-01  0.45327090832E-01  0.56338646600E-01  0.51100000000E-03 0. -1.
         11    1    4    4    0    0  0.50270110063E-02  0.56045356288E-01  0.45965548364E-01  0.72659793273E-01  0.51100000000E-03 0.  1.
</event>
<event>
 8    1  0.1106168E+005  0.1043930E+01  0.7957747E-01            NaN
         13   -1    0    0    0    0  0.00000000000E+00  0.00000000000E+00  0.74505805969E-08  0.10566000000E+00  0.10566000000E+00 0.  1.
     999900   -1    0    0    0    0 -0.00000000000E+00 -0.00000000000E+00 -0.74505805969E-08  0.93827000000E+00  0.93827000000E+00 0.  1.
     999902    2    1    2    0    0  0.15187942595E-02  0.20295635199E-01 -0.12398884070E-01  0.10200982592E+01  0.10198198402E+01 0.  0.
     999903    2    3    3    0    0 -0.91028552607E-01 -0.43625655639E-02  0.88194559272E-01  0.12920428170E+00  0.24702970591E-01 0.  0.
         14    1    1    2    0    0 -0.15187942595E-02 -0.20295635199E-01  0.12398884070E-01  0.23831740816E-01  0.00000000000E+00 0.  1.
     999901    1    3    3    0    0  0.92547346867E-01  0.24658200763E-01 -0.10059344334E+00  0.89089397749E+00  0.88000000000E+00 0.  1.
        -11    1    4    4    0    0 -0.55524079516E-01 -0.25776439934E-02  0.69629448603E-01  0.89095953266E-01  0.51100000000E-03 0. -1.
         11    1    4    4    0    0 -0.35504473091E-01 -0.17849215705E-02  0.18565110669E-01  0.40108328432E-01  0.51100000000E-03 0.  1.
</event>
<event>
 8    1  0.1106168E+005  0.1043930E+01  0.7957747E-01            NaN
         13   -1    0    0    0    0  0.00000000000E+00  0.00000000000E+00  0.74505805969E-08  0.10566000000E+00  0.10566000000E+00 0.  1.
     999900   -1    0    0    0    0 -0.00000000000E+00 -0.00000000000E+00 -0.74505805969E-08  0.93827000000E+00  0.93827000000E+00 0.  1.
     999902    2    1    2    0    0  0.19590026033E-01 -0.51118068959E-02  0.10563657526E-01  0.10210938324E+01  0.10208384417E+01 0.  0.
     999903    2    3    3    0    0  0.48842065114E-02 -0.96863564664E-02 -0.12817674377E+00  0.13009097799E+00  0.19408862339E-01 0.  0.
         14    1    1    2    0    0 -0.19590026033E-01  0.51118068959E-02 -0.10563657526E-01  0.22836167587E-01  0.00000000000E+00 0. -1.
     999901    1    3    3    0    0  0.14705819522E-01  0.45745495705E-02  0.13874040130E+00  0.89100285442E+00  0.88000000000E+00 0. -1.
        -11    1    4    4    0    0  0.11671375958E-01 -0.60725947699E-02 -0.10059177293E+00  0.10144980693E+00  0.51100000000E-03 0. -1.
         11    1    4    4    0    0 -0.67871694469E-02 -0.36137616965E-02 -0.27584970844E-01  0.28641171068E-01  0.51100000000E-03 0.  1.
</event>
<event>
 8    1  0.1106168E+005  0.1043930E+01  0.7957747E-01            NaN
         13   -1    0    0    0    0  0.00000000000E+00  0.00000000000E+00  0.74505805969E-08  0.10566000000E+00  0.10566000000E+00 0.  1.
     999900   -1    0    0    0    0 -0.00000000000E+00 -0.00000000000E+00 -0.74505805969E-08  0.93827000000E+00  0.93827000000E+00 0.  1.
     999902    2    1    2    0    0 -0.81787422315E-02 -0.19864543012E-01  0.36036447686E-02  0.10221474807E+01  0.10219153556E+01 0.  0.
     999903    2    3    3    0    0  0.40246313564E-01 -0.11822079756E+00 -0.44186055844E-01  0.13405807393E+00  0.20572722833E-01 0.  0.
         14    1    1    2    0    0  0.81787422315E-02  0.19864543012E-01 -0.36036447686E-02  0.21782519348E-01  0.00000000000E+00 0.  1.
     999901    1    3    3    0    0 -0.48425055796E-01  0.98356254549E-01  0.47789700612E-01  0.88808940672E+00  0.88000000000E+00 0. -1.
        -11    1    4    4    0    0  0.12795385639E-01 -0.32188265797E-01 -0.29071245488E-02  0.34763757605E-01  0.51100000000E-03 0. -1.
         11    1    4    4    0    0  0.27450927925E-01 -0.86032531763E-01 -0.41278931295E-01  0.99294316330E-01  0.51100000000E-03 0.  1.
</event>
<event>
 8    1  0.1106168E+005  0.1043930E+01  0.7957747E-01            NaN
         13   -1    0    0    0    0  0.00000000000E+00  0.00000000000E+00  0.74505805969E-08  0.10566000000E+00  0.10566000000E+00 0. -1.
     999900   -1    0    0    0    0 -0.00000000000E+00 -0.00000000000E+00 -0.74505805969E-08  0.93827000000E+00  0.93827000000E+00 0. -1.
     999902    2    1    2    0    0 -0.15297727940E-01 -0.14877382200E-01 -0.98706402961E-02  0.10204185874E+01  0.10201476888E+01 0.  0.
     999903    2    3    3    0    0  0.33130399931E-01  0.78609004733E-01  0.93630038258E-01  0.12811965850E+00  0.19263016496E-01 0.  0.
         14    1    1    2    0    0  0.15297727940E-01  0.14877382200E-01  0.98706402961E-02  0.23511412572E-01  0.00000000000E+00 0.  1.
     999901    1    3    3    0    0 -0.48428127871E-01 -0.93486386933E-01 -0.10350067855E+00  0.89229892893E+00  0.88000000000E+00 0. -1.
        -11    1    4    4    0    0  0.40261675322E-02  0.20288483368E-01  0.33869950951E-01  0.39689636945E-01  0.51100000000E-03 0.  1.
         11    1    4    4    0    0  0.29104232399E-01  0.58320521365E-01  0.59760087307E-01  0.88430021552E-01  0.51100000000E-03 0. -1.
</event>
<event>
 8    1  0.1106168E+005  0.1043930E+01  0.7957747E-01            NaN
         13   -1    0    0    0    0  0.00000000000E+00  0.00000000000E+00  0.74505805969E-08  0.10566000000E+00  0.10566000000E+00 0.  1.
     999900   -1    0    0    0    0 -0.00000000000E+00 -0.00000000000E+00 -0.74505805969E-08  0.93827000000E+00  0.93827000000E+00 0.  1.
     999902    2    1    2    0    0 -0.16446469281E-01 -0.63168324795E-02 -0.15615838988E-01  0.10203876307E+01  0.10201160100E+01 0.  0.
     999903    2    3    3    0    0  0.10353459907E+00  0.44131857537E-01  0.57397168835E-01  0.12782310845E+00  0.19423645612E-01 0.  0.
         14    1    1    2    0    0  0.16446469281E-01  0.63168324795E-02  0.15615838988E-01  0.23542369288E-01  0.00000000000E+00 0.  1.
     999901    1    3    3    0    0 -0.11998106835E+00 -0.50448690016E-01 -0.73013007823E-01  0.89256452226E+00  0.88000000000E+00 0.  1.
        -11    1    4    4    0    0  0.41226597746E-01  0.23705230242E-01  0.15555583265E-01  0.50038061455E-01  0.51100000000E-03 0. -1.
         11    1    4    4    0    0  0.62308001328E-01  0.20426627295E-01  0.41841585570E-01  0.77785046996E-01  0.51100000000E-03 0.  1.
</event>
<event>
 8    1  0.1106168E+005  0.1043930E+01  0.7957747E-01            NaN
         13   -1    0    0    0    0  0.00000000000E+00  0.00000000000E+00  0.74505805969E-08  0.10566000000E+00  0.10566000000E+00 0. -1.
     999900   -1    0    0    0    0 -0.00000000000E+00 -0.00000000000E+00 -0.74505805969E-08  0.93827000000E+00  0.93827000000E+00 0. -1.
     999902    2    1    2    0    0 -0.14945682964E-01 -0.16864512886E-01  0.74521633735E-02  0.10201956373E+01  0.10199195156E+01 0.  0.
     999903    2    3    3    0    0 -0.12196247463E+00  0.42051113714E-01  0.17601172130E-01  0.13169879029E+00  0.19789611436E-01 0.  0.
         14    1    1    2    0    0  0.14945682964E-01  0.16864512886E-01 -0.74521633735E-02  0.23734362707E-01  0.00000000000E+00 0.  1.
     999901    1    3    3    0    0  0.10701679167E+00 -0.58915626601E-01 -0.10149008756E-01  0.88849684700E+00  0.88000000000E+00 0. -1.
        -11    1    4    4    0    0 -0.30621143056E-01  0.17765699220E-01 -0.77102158463E-03  0.35413698848E-01  0.51100000000E-03 0. -1.
         11    1    4    4    0    0 -0.91341331575E-01  0.24285414494E-01  0.18372193714E-01  0.96285091442E-01  0.51100000000E-03 0.  1.
</event>
<event>
 8    1  0.1106168E+005  0.1043930E+01  0.7957747E-01            NaN
         13   -1    0    0    0    0  0.00000000000E+00  0.00000000000E+00  0.74505805969E-08  0.10566000000E+00  0.10566000000E+00 0. -1.
     999900   -1    0    0    0    0 -0.00000000000E+00 -0.00000000000E+00 -0.74505805969E-08  0.93827000000E+00  0.93827000000E+00 0.  1.
     999902    2    1    2    0    0 -0.61273575535E-02 -0.10423527850E-01 -0.20360092817E-01  0.10202503078E+01  0.10199754716E+01 0.  0.
     999903    2    3    3    0    0  0.10777039158E+00 -0.21316889575E-01 -0.69432310343E-01  0.13148743440E+00  0.19980805897E-01 0.  0.
         14    1    1    2    0    0  0.61273575535E-02  0.10423527850E-01  0.20360092817E-01  0.23679692205E-01  0.00000000000E+00 0. -1.
     999901    1    3    3    0    0 -0.11389774913E+00  0.10893361725E-01  0.49072217526E-01  0.88876287339E+00  0.88000000000E+00 0. -1.
        -11    1    4    4    0    0  0.77671380227E-01 -0.21204849383E-01 -0.42249694392E-01  0.90927370692E-01  0.51100000000E-03 0.  1.
         11    1    4    4    0    0  0.30099011351E-01 -0.11204019220E-03 -0.27182615951E-01  0.40560063711E-01  0.51100000000E-03 0. -1.
</event>
<event>
 8    1  0.1106168E+005  0.1043930E+01  0.7957747E-01            NaN
         13   -1    0    0    0    0  0.00000000000E+00  0.00000000000E+00  0.74505805969E-08  0.10566000000E+00  0.10566000000E+00 0.  1.
     999900   -1    0    0    0    0 -0.00000000000E+00 -0.00000000000E+00 -0.74505805969E-08  0.93827000000E+00  0.93827000000E+00 0.  1.
     999902    2    1    2    0    0 -0.48664231055E-02  0.87429628580E-02  0.27030201941E-01  0.10151072088E+01  0.10146979315E+01 0.  0.
     999903    2    3    3    0    0 -0.13993693274E-01  0.78437747678E-01 -0.93053506216E-01  0.12417468218E+00  0.20300072984E-01 0.  0.
         14    1    1    2    0    0  0.48664231055E-02 -0.87429628580E-02 -0.27030201941E-01  0.28822791162E-01  0.00000000000E+00 0. -1.
     999901    1    3    3    0    0  0.91272701684E-02 -0.69694784820E-01  0.12008370816E+00  0.89093252666E+00  0.88000000000E+00 0. -1.
        -11    1    4    4    0    0 -0.26995307382E-03  0.15885707361E-01 -0.31818455851E-01  0.35568298059E-01  0.51100000000E-03 0.  1.
         11    1    4    4    0    0 -0.13723740200E-01  0.62552040317E-01 -0.61235050365E-01  0.88606384121E-01  0.51100000000E-03 0. -1.
</event>
<event>
 8    1  0.1116673E+005  0.1043930E+01  0.7957747E-01            NaN
         13   -1    0    0    0    0  0.00000000000E+00  0.00000000000E+00  0.74505805969E-08  0.10566000000E+00  0.10566000000E+00 0. -1.
     999900   -1    0    0    0    0 -0.00000000000E+00 -0.00000000000E+00 -0.74505805969E-08  0.93827000000E+00  0.93827000000E+00 0. -1.
     999902    2    1    2    0    0 -0.18344518178E-01 -0.11013089434E-01  0.88055928606E-02  0.10207924126E+01  0.10205301571E+01 0.  0.
     999903    2    3    3    0    0  0.47236865341E-01  0.56063100464E-01 -0.10381704555E+00  0.12866910731E+00  0.20084012243E-01 0.  0.
         14    1    1    2    0    0  0.18344518178E-01  0.11013089434E-01 -0.88055928606E-02  0.23137587422E-01  0.00000000000E+00 0.  1.
     999901    1    3    3    0    0 -0.65581383519E-01 -0.67076189898E-01  0.11262263842E+00  0.89212330527E+00  0.88000000000E+00 0.  1.
        -11    1    4    4    0    0  0.12778917477E-01  0.29842333064E-01 -0.49603028716E-01  0.59283953591E-01  0.51100000000E-03 0. -1.
         11    1    4    4    0    0  0.34457947864E-01  0.26220767400E-01 -0.54214016839E-01  0.69385153721E-01  0.51100000000E-03 0.  1.
</event>
<event>
 8    1  0.1106168E+005  0.1043930E+01  0.7957747E-01            NaN
         13   -1    0    0    0    0  0.00000000000E+00  0.00000000000E+00  0.74505805969E-08  0.10566000000E+00  0.10566000000E+00 0.  1.
     999900   -1    0    0    0    0 -0.00000000000E+00 -0.00000000000E+00 -0.74505805969E-08  0.93827000000E+00  0.93827000000E+00 0. -1.
     999902    2    1    2    0    0 -0.41739582484E-02 -0.18764941864E-01 -0.13661533382E-01  0.10203464790E+01  0.10200738967E+01 0.  0.
     999903    2    3    3    0    0 -0.12715146273E-01  0.94669941068E-01  0.82712066467E-01  0.12780611835E+00  0.19210550793E-01 0.  0.
         14    1    1    2    0    0  0.41739582484E-02  0.18764941864E-01  0.13661533382E-01  0.23583521047E-01  0.00000000000E+00 0.  1.
     999901    1    3    3    0    0  0.85411880244E-02 -0.11343488293E+00 -0.96373599849E-01  0.89254036060E+00  0.88000000000E+00 0.  1.
        -11    1    4    4    0    0 -0.60287118414E-02  0.78236949952E-01  0.74671748686E-01  0.10832126697E+00  0.51100000000E-03 0. -1.
         11    1    4    4    0    0 -0.66864344314E-02  0.16432991116E-01  0.80403177811E-02  0.19484851384E-01  0.51100000000E-03 0.  1.
</event>
<event>
 8    1  0.1106168E+005  0.1043930E+01  0.7957747E-01            NaN
         13   -1    0    0    0    0  0.00000000000E+00  0.00000000000E+00  0.74505805969E-08  0.10566000000E+00  0.10566000000E+00 0. -1.
     999900   -1    0    0    0    0 -0.00000000000E+00 -0.00000000000E+00 -0.74505805969E-08  0.93827000000E+00  0.93827000000E+00 0.  1.
     999902    2    1    2    0    0  0.20601816493E-01 -0.20606563870E-02 -0.13222786300E-01  0.10193632903E+01  0.10190672178E+01 0.  0.
     999903    2    3    3    0    0  0.93359218167E-01  0.89908063600E-01 -0.11769051417E-01  0.13158291302E+00  0.19394558775E-01 0.  0.
         14    1    1    2    0    0 -0.20601816493E-01  0.20606563870E-02  0.13222786300E-01  0.24566709693E-01  0.00000000000E+00 0. -1.
     999901    1    3    3    0    0 -0.72757401674E-01 -0.91968719987E-01 -0.14537348836E-02  0.88778037729E+00  0.88000000000E+00 0. -1.
        -11    1    4    4    0    0  0.93303240333E-02  0.15272894932E-01 -0.65721500007E-02  0.19072769668E-01  0.51100000000E-03 0.  1.
         11    1    4    4    0    0  0.84028894134E-01  0.74635168668E-01 -0.51969014160E-02  0.11251014335E+00  0.51100000000E-03 0. -1.
</event>
<event>
 8    1  0.1106168E+005  0.1043930E+01  0.7957747E-01            NaN
         13   -1    0    0    0    0  0.00000000000E+00  0.00000000000E+00  0.74505805969E-08  0.10566000000E+00  0.10566000000E+00 0. -1.
     999900   -1    0    0    0    0 -0.00000000000E+00 -0.00000000000E+00 -0.74505805969E-08  0.93827000000E+00  0.93827000000E+00 0.  1.
     999902    2    1    2    0    0 -0.11320550717E-01  0.80719167883E-02  0.19116401112E-01  0.10202921596E+01  0.10200183054E+01 0.  0.
     999903    2    3    3    0    0 -0.60654968265E-01  0.23515935399E-01  0.11488755438E+00  0.13358785921E+00  0.20360294262E-01 0.  0.
         14    1    1    2    0    0  0.11320550717E-01 -0.80719167883E-02 -0.19116401112E-01  0.23637840440E-01  0.00000000000E+00 0.  1.
     999901    1    3    3    0    0  0.49334417548E-01 -0.15444018611E-01 -0.95771153271E-01  0.88670430035E+00  0.88000000000E+00 0.  1.
        -11    1    4    4    0    0 -0.46132195041E-01  0.19322222281E-01  0.68646126130E-01  0.84935737159E-01  0.51100000000E-03 0.  1.
         11    1    4    4    0    0 -0.14522773224E-01  0.41937131182E-02  0.46241428253E-01  0.48652122048E-01  0.51100000000E-03 0. -1.
</event>
<event>
 8    1  0.1106168E+005  0.1043930E+01  0.7957747E-01            NaN
         13   -1    0    0    0    0  0.00000000000E+00  0.00000000000E+00  0.74505805969E-08  0.10566000000E+00  0.10566000000E+00 0. -1.
     999900   -1    0    0    0    0 -0.00000000000E+00 -0.00000000000E+00 -0.74505805969E-08  0.93827000000E+00  0.93827000000E+00 0. -1.
     999902    2    1    2    0    0 -0.10498393355E-01 -0.13936560382E-01 -0.15462052533E-01  0.10206165050E+01  0.10203502003E+01 0.  0.
     999903    2    3    3    0    0 -0.31469233431E-01  0.83835355977E-01 -0.94090630956E-01  0.13146996082E+00  0.20313153390E-01 0.  0.
         14    1    1    2    0    0  0.10498393355E-01  0.13936560382E-01  0.15462052533E-01  0.23313494952E-01  0.00000000000E+00 0. -1.
     999901    1    3    3    0    0  0.20970840076E-01 -0.97771916360E-01  0.78628578423E-01  0.88914654422E+00  0.88000000000E+00 0.  1.
        -11    1    4    4    0    0 -0.20325721700E-01  0.27758333151E-01 -0.39994375898E-01  0.52758613007E-01  0.51100000000E-03 0. -1.
         11    1    4    4    0    0 -0.11143511730E-01  0.56077022826E-01 -0.54096255058E-01  0.78711347816E-01  0.51100000000E-03 0.  1.
</event>
<event>
 8    1  0.1106168E+005  0.1043930E+01  0.7957747E-01            NaN
         13   -1    0    0    0    0  0.00000000000E+00  0.00000000000E+00  0.74505805969E-08  0.10566000000E+00  0.10566000000E+00 0. -1.
     999900   -1    0    0    0    0 -0.00000000000E+00 -0.00000000000E+00 -0.74505805969E-08  0.93827000000E+00  0.93827000000E+00 0.  1.
     999902    2    1    2    0    0  0.68831229847E-02 -0.18661802922E-01 -0.13508312186E-01  0.10198859827E+01  0.10196025220E+01 0.  0.
     999903    2    3    3    0    0  0.10066652759E+00 -0.63646707574E-01 -0.55500158830E-01  0.13276576321E+00  0.19021753034E-01 0.  0.
         14    1    1    2    0    0 -0.68831229847E-02  0.18661802922E-01  0.13508312186E-01  0.24044017311E-01  0.00000000000E+00 0. -1.
     999901    1    3    3    0    0 -0.93783404605E-01  0.44984904652E-01  0.41991846644E-01  0.88712021948E+00  0.88000000000E+00 0. -1.
        -11    1    4    4    0    0  0.43061688881E-01 -0.33744803560E-01 -0.33892341117E-01  0.64358159731E-01  0.51100000000E-03 0. -1.
         11    1    4    4    0    0  0.57604838709E-01 -0.29901904014E-01 -0.21607817712E-01  0.68407603478E-01  0.51100000000E-03 0.  1.
</event>
<event>
 8    1  0.1106168E+005  0.1043930E+01  0.7957747E-01            NaN
         13   -1    0    0    0    0  0.00000000000E+00  0.00000000000E+00  0.74505805969E-08  0.10566000000E+00  0.10566000000E+00 0.  1.
     999900   -1    0    0    0    0 -0.00000000000E+00 -0.00000000000E+00 -0.74505805969E-08  0.93827000000E+00  0.93827000000E+00 0.  1.
     999902    2    1    2    0    0 -0.17017727690E-01 -0.57531379649E-02  0.39777299462E-02  0.10255309786E+01  0.10253659172E+01 0.  0.
     999903    2    3    3    0    0 -0.90556416127E-01 -0.10678806997E-01 -0.10047477075E+00  0.13629393159E+00  0.12897860723E-01 0.  0.
         14    1    1    2    0    0  0.17017727690E-01  0.57531379649E-02 -0.39777299462E-02  0.18399021379E-01  0.00000000000E+00 0. -1.
     999901    1    3    3    0    0  0.73538688436E-01  0.49256690316E-02  0.10445250069E+00  0.88923704703E+00  0.88000000000E+00 0. -1.
        -11    1    4    4    0    0 -0.41343955629E-01 -0.12304292025E-03 -0.51748256594E-01  0.66238062986E-01  0.51100000000E-03 0.  1.
         11    1    4    4    0    0 -0.49212460497E-01 -0.10555764076E-01 -0.48726514151E-01  0.70055868603E-01  0.51100000000E-03 0. -1.
</event>
<event>
 8    1  0.1106168E+005  0.1043930E+01  0.7957747E-01            NaN
         13   -1    0    0    0    0  0.00000000000E+00  0.00000000000E+00  0.74505805969E-08  0.10566000000E+00  0.10566000000E+00 0. -1.
     999900   -1    0    0    0    0 -0.00000000000E+00 -0.00000000000E+00 -0.74505805969E-08  0.93827000000E+00  0.93827000000E+00 0. -1.
     999902    2    1    2    0    0 -0.11041841256E-01  0.20519418940E-01 -0.38196608495E-02  0.10203173208E+01  0.10200440561E+01 0.  0.
     999903    2    3    3    0    0 -0.15246403755E-02  0.97266371423E-01 -0.87935276799E-01  0.13293008360E+00  0.21788131668E-01 0.  0.
         14    1    1    2    0    0  0.11041841256E-01 -0.20519418940E-01  0.38196608495E-02  0.23612679242E-01  0.00000000000E+00 0.  1.
     999901    1    3    3    0    0 -0.95172008805E-02 -0.76746952483E-01  0.84115615950E-01  0.88738723716E+00  0.88000000000E+00 0.  1.
        -11    1    4    4    0    0  0.64824457467E-02  0.18924766909E-01 -0.25604613519E-01  0.32496557662E-01  0.51100000000E-03 0. -1.
         11    1    4    4    0    0 -0.80070861222E-02  0.78341604515E-01 -0.62330663280E-01  0.10043352594E+00  0.51100000000E-03 0.  1.
</event>
<event>
 8    1  0.1106168E+005  0.1043930E+01  0.7957747E-01            NaN
         13   -1    0    0    0    0  0.00000000000E+00  0.00000000000E+00  0.74505805969E-08  0.10566000000E+00  0.10566000000E+00 0.  1.
     999900   -1    0    0    0    0 -0.00000000000E+00 -0.00000000000E+00 -0.74505805969E-08  0.93827000000E+00  0.93827000000E+00 0.  1.
     999902    2    1    2    0    0 -0.16737473715E-01  0.29154411558E-02  0.12311933058E-01  0.10229484243E+01  0.10227332263E+01 0.  0.
     999903    2    3    3    0    0  0.12544705145E+00 -0.15821386358E-01 -0.27270807084E-01  0.13046072061E+00  0.17000697634E-01 0.  0.
         14    1    1    2    0    0  0.16737473715E-01 -0.29154411558E-02 -0.12311933058E-01  0.20981575706E-01  0.00000000000E+00 0. -1.
     999901    1    3    3    0    0 -0.14218452517E+00  0.18736827514E-01  0.39582740142E-01  0.89248770368E+00  0.88000000000E+00 0. -1.
        -11    1    4    4    0    0  0.62679607619E-01 -0.93722759307E-02 -0.51169067289E-02  0.63584720042E-01  0.51100000000E-03 0.  1.
         11    1    4    4    0    0  0.62767443832E-01 -0.64491104272E-02 -0.22153900355E-01  0.66876000572E-01  0.51100000000E-03 0. -1.
</event>
<event>
 8    1  0.1106168E+005  0.1043930E+01  0.7957747E-01            NaN
         13   -1    0    0    0    0  0.00000000000E+00  0.00000000000E+00  0.74505805969E-08  0.10566000000E+00  0.10566000000E+00 0.  1.
     999900   -1    0    0    0    0 -0.00000000000E+00 -0.00000000000E+00 -0.74505805969E-08  0.93827000000E+00  0.93827000000E+00 0. -1.
     999902    2    1    2    0    0  0.44343080350E-02  0.12340937029E-01 -0.20724694873E-01  0.10194050170E+01  0.10191099616E+01 0.  0.
     999903    2    3    3    0    0  0.88832988064E-01  0.94640397093E-02 -0.95245439307E-01  0.13222704437E+00  0.20770886816E-01 0.  0.
         14    1    1    2    0    0 -0.44343080350E-02 -0.12340937029E-01  0.20724694873E-01  0.24524983019E-01  0.00000000000E+00 0.  1.
     999901    1    3    3    0    0 -0.84398680029E-01  0.28768973197E-02  0.74520744434E-01  0.88717797261E+00  0.88000000000E+00 0.  1.
        -11    1    4    4    0    0  0.67550670739E-01  0.48504884831E-03 -0.79201020000E-01  0.10409798788E+00  0.51100000000E-03 0.  1.
         11    1    4    4    0    0  0.21282317325E-01  0.89789908610E-02 -0.16044419307E-01  0.28129056499E-01  0.51100000000E-03 0. -1.
</event>
<event>
 8    1  0.1106168E+005  0.1043930E+01  0.7957747E-01            NaN
         13   -1    0    0    0    0  0.00000000000E+00  0.00000000000E+00  0.74505805969E-08  0.10566000000E+00  0.10566000000E+00 0. -1.
     999900   -1    0    0    0    0 -0.00000000000E+00 -0.00000000000E+00 -0.74505805969E-08  0.93827000000E+00  0.93827000000E+00 0.  1.
     999902    2    1    2    0    0 -0.35778869306E-02 -0.23215188235E-01  0.34906271947E-02  0.10201827745E+01  0.10199063500E+01 0.  0.
     999903    2    3    3    0    0 -0.85901494192E-01 -0.92137847806E-01  0.37912947568E-01  0.13298921872E+00  0.19501051258E-01 0.  0.
         14    1    1    2    0    0  0.35778869306E-02  0.23215188235E-01 -0.34906271947E-02  0.23747225478E-01  0.00000000000E+00 0. -1.
     999901    1    3    3    0    0  0.82323607261E-01  0.68922659571E-01 -0.34422320374E-01  0.88719355580E+00  0.88000000000E+00 0. -1.
        -11    1    4    4    0    0 -0.15428430437E-01 -0.10639262061E-01 -0.64325574882E-04  0.18748216495E-01  0.51100000000E-03 0.  1.
         11    1    4    4    0    0 -0.70473063755E-01 -0.81498585745E-01  0.37977273143E-01  0.11424100223E+00  0.51100000000E-03 0. -1.
</event>
<event>
 8    1  0.1106168E+005  0.1043930E+01  0.7957747E-01            NaN
         13   -1    0    0    0    0  0.00000000000E+00  0.00000000000E+00  0.74505805969E-08  0.10566000000E+00  0.10566000000E+00 0.  1.
     999900   -1    0    0    0    0 -0.00000000000E+00 -0.00000000000E+00 -0.74505805969E-08  0.93827000000E+00  0.93827000000E+00 0. -1.
     999902    2    1    2    0    0 -0.13836846185E-02  0.19049445426E-01  0.13423473001E-01  0.10205850738E+01  0.10203180422E+01 0.  0.
     999903    2    3    3    0    0  0.86232322728E-01 -0.89242448478E-01  0.32113831087E-01  0.12943243334E+00  0.17922850206E-01 0.  0.
         14    1    1    2    0    0  0.13836846185E-02 -0.19049445426E-01 -0.13423473001E-01  0.23344926249E-01  0.00000000000E+00 0.  1.
     999901    1    3    3    0    0 -0.87616007347E-01  0.10829189390E+00 -0.18690358087E-01  0.89115264041E+00  0.88000000000E+00 0. -1.
        -11    1    4    4    0    0  0.61966920053E-01 -0.73779214953E-01  0.28174314961E-01  0.10038587991E+00  0.51100000000E-03 0.  1.
         11    1    4    4    0    0  0.24265402675E-01 -0.15463233525E-01  0.39395161268E-02  0.29046553433E-01  0.51100000000E-03 0. -1.
</event>
<event>
 8    1  0.1106168E+005  0.1043930E+01  0.7957747E-01            NaN
         13   -1    0    0    0    0  0.00000000000E+00  0.00000000000E+00  0.74505805969E-08  0.10566000000E+00  0.10566000000E+00 0. -1.
     999900   -1    0    0    0    0 -0.00000000000E+00 -0.00000000000E+00 -0.74505805969E-08  0.93827000000E+00  0.93827000000E+00 0.  1.
     999902    2    1    2    0    0 -0.29585669607E-02  0.17428754252E-01  0.14604995963E-01  0.10209992237E+01  0.10207416884E+01 0.  0.
     999903    2    3    3    0    0  0.33593001376E-01  0.79020750832E-01 -0.96986253735E-01  0.13106540698E+00  0.19975952770E-01 0.  0.
         14    1    1    2    0    0  0.29585669607E-02 -0.17428754252E-01 -0.14604995963E-01  0.22930776270E-01  0.00000000000E+00 0.  1.
     999901    1    3    3    0    0 -0.36551568337E-01 -0.61591996580E-01  0.11159124970E+00  0.88993381675E+00  0.88000000000E+00 0. -1.
        -11    1    4    4    0    0  0.18215307170E-01  0.52137243368E-01 -0.48352193552E-01  0.73404940594E-01  0.51100000000E-03 0.  1.
         11    1    4    4    0    0  0.15377694207E-01  0.26883507464E-01 -0.48634060183E-01  0.57660466384E-01  0.51100000000E-03 0. -1.
</event>
<event>
 8    1  0.1106168E+005  0.1043930E+01  0.7957747E-01            NaN
         13   -1    0    0    0    0  0.00000000000E+00  0.00000000000E+00  0.74505805969E-08  0.10566000000E+00  0.10566000000E+00 0. -1.
     999900   -1    0    0    0    0 -0.00000000000E+00 -0.00000000000E+00 -0.74505805969E-08  0.93827000000E+00  0.93827000000E+00 0.  1.
     999902    2    1    2    0    0  0.57079859835E-02  0.19323275404E-01  0.85666347577E-02  0.10220357700E+01  0.10218012321E+01 0.  0.
     999903    2    3    3    0    0  0.52577168443E-01  0.92221911280E-01  0.80747365878E-01  0.13483737656E+00  0.19792459657E-01 0.  0.
         14    1    1    2    0    0 -0.57079859835E-02 -0.19323275404E-01 -0.85666347577E-02  0.21894230002E-01  0.00000000000E+00 0.  1.
     999901    1    3    3    0    0 -0.46869182459E-01 -0.72898635877E-01 -0.72180731120E-01  0.88719839344E+00  0.88000000000E+00 0. -1.
        -11    1    4    4    0    0  0.30300408878E-01  0.63424923892E-01  0.43057055405E-01  0.82431831777E-01  0.51100000000E-03 0. -1.
         11    1    4    4    0    0  0.22276759565E-01  0.28796987388E-01  0.37690310473E-01  0.52405544782E-01  0.51100000000E-03 0.  1.
</event>
<event>
 8    1  0.1106168E+005  0.1043930E+01  0.7957747E-01            NaN
         13   -1    0    0    0    0  0.00000000000E+00  0.00000000000E+00  0.74505805969E-08  0.10566000000E+00  0.10566000000E+00 0.  1.
     999900   -1    0    0    0    0 -0.00000000000E+00 -0.00000000000E+00 -0.74505805969E-08  0.93827000000E+00  0.93827000000E+00 0. -1.
     999902    2    1    2    0    0  0.18819447139E-01  0.44626351299E-02  0.85879561923E-02  0.10227677767E+01  0.10225488181E+01 0.  0.
     999903    2    3    3    0    0 -0.34570984452E-01 -0.95398216923E-01 -0.79032197084E-01  0.13119611991E+00  0.25891329526E-01 0.  0.
         14    1    1    2    0    0 -0.18819447139E-01 -0.44626351299E-02 -0.85879561923E-02  0.21162223288E-01  0.00000000000E+00 0. -1.
     999901    1    3    3    0    0  0.53390431591E-01  0.99860852053E-01  0.87620153277E-01  0.89157165681E+00  0.88000000000E+00 0. -1.
        -11    1    4    4    0    0 -0.11807696666E-01 -0.67866947271E-01 -0.54805103119E-01  0.88029567086E-01  0.51100000000E-03 0.  1.
         11    1    4    4    0    0 -0.22763287785E-01 -0.27531269652E-01 -0.24227093965E-01  0.43166552821E-01  0.51100000000E-03 0. -1.
</event>
<event>
 8    1  0.1106168E+005  0.1043930E+01  0.7957747E-01            NaN
         13   -1    0    0    0    0  0.00000000000E+00  0.00000000000E+00  0.74505805969E-08  0.10566000000E+00  0.10566000000E+00 0.  1.
     999900   -1    0    0    0    0 -0.00000000000E+00 -0.00000000000E+00 -0.74505805969E-08  0.93827000000E+00  0.93827000000E+00 0. -1.
     999902    2    1    2    0    0  0.44803669685E-02  0.23396436352E-01  0.33088936227E-02  0.10198797256E+01  0.10195961156E+01 0.  0.
     999903    2    3    3    0    0  0.21038896479E-01 -0.42431870729E-01 -0.11875064330E+00  0.12886565080E+00  0.16172255664E-01 0.  0.
         14    1    1    2    0    0 -0.44803669685E-02 -0.23396436352E-01 -0.33088936227E-02  0.24050274409E-01  0.00000000000E+00 0.  1.
     999901    1    3    3    0    0 -0.16558529511E-01  0.65828307081E-01  0.12205953693E+00  0.89101407479E+00  0.88000000000E+00 0.  1.
        -11    1    4    4    0    0  0.15804732217E-01 -0.26588049768E-01 -0.94421010894E-01  0.99359460396E-01  0.51100000000E-03 0. -1.
         11    1    4    4    0    0  0.52341642628E-02 -0.15843820961E-01 -0.24329632411E-01  0.29506190409E-01  0.51100000000E-03 0.  1.
</event>
<event>
 8    1  0.1106168E+005  0.1043930E+01  0.7957747E-01            NaN
         13   -1    0    0    0    0  0.00000000000E+00  0.00000000000E+00  0.74505805969E-08  0.10566000000E+00  0.10566000000E+00 0.  1.
     999900   -1    0    0    0    0 -0.00000000000E+00 -0.00000000000E+00 -0.74505805969E-08  0.93827000000E+00  0.93827000000E+00 0.  1.
     999902    2    1    2    0    0 -0.61461384827E-02  0.13893047231E-01 -0.18691157772E-01  0.10198436728E+01  0.10195592017E+01 0.  0.
     999903    2    3    3    0    0 -0.71754109299E-01 -0.96055116681E-01 -0.46260182106E-01  0.13015099794E+00  0.20592235765E-01 0.  0.
         14    1    1    2    0    0  0.61461384827E-02 -0.13893047231E-01  0.18691157772E-01  0.24086327210E-01  0.00000000000E+00 0.  1.
     999901    1    3    3    0    0  0.65607970817E-01  0.10994816391E+00  0.27569024333E-01  0.88969267485E+00  0.88000000000E+00 0. -1.
        -11    1    4    4    0    0 -0.17611201948E-01 -0.38883582684E-01 -0.20035084337E-01  0.47156687350E-01  0.51100000000E-03 0.  1.
         11    1    4    4    0    0 -0.54142907351E-01 -0.57171533997E-01 -0.26225097768E-01  0.82994310588E-01  0.51100000000E-03 0. -1.
</event>
<event>
 8    1  0.1106168E+005  0.1043930E+01  0.7957747E-01            NaN
         13   -1    0    0    0    0  0.00000000000E+00  0.00000000000E+00  0.74505805969E-08  0.10566000000E+00  0.10566000000E+00 0. -1.
     999900   -1    0    0    0    0 -0.00000000000E+00 -0.00000000000E+00 -0.74505805969E-08  0.93827000000E+00  0.93827000000E+00 0.  1.
     999902    2    1    2    0    0  0.51529771680E-03 -0.54503199408E-02 -0.20253438883E-01  0.10229496924E+01  0.10227345208E+01 0.  0.
     999903    2    3    3    0    0  0.86166010281E-02  0.15769995767E-02 -0.13363024374E+00  0.13561136112E+00  0.21369756255E-01 0.  0.
         14    1    1    2    0    0 -0.51529771680E-03  0.54503199408E-02  0.20253438883E-01  0.20980307571E-01  0.00000000000E+00 0. -1.
     999901    1    3    3    0    0 -0.81013033113E-02 -0.70273195176E-02  0.11337680485E+00  0.88733833131E+00  0.88000000000E+00 0. -1.
        -11    1    4    4    0    0  0.11256551648E-01  0.94199746707E-02 -0.78664711133E-01  0.80024019997E-01  0.51100000000E-03 0. -1.
         11    1    4    4    0    0 -0.26399506202E-02 -0.78429750939E-02 -0.54965532602E-01  0.55587341121E-01  0.51100000000E-03 0.  1.
</event>
<event>
 8    1  0.1106168E+005  0.1043930E+01  0.7957747E-01            NaN
         13   -1    0    0    0    0  0.00000000000E+00  0.00000000000E+00  0.74505805969E-08  0.10566000000E+00  0.10566000000E+00 0.  1.
     999900   -1    0    0    0    0 -0.00000000000E+00 -0.00000000000E+00 -0.74505805969E-08  0.93827000000E+00  0.93827000000E+00 0. -1.
     999902    2    1    2    0    0  0.64471073770E-02 -0.21799370624E-01 -0.76219009656E-02  0.10199535297E+01  0.10196716784E+01 0.  0.
     999903    2    3    3    0    0  0.46850223804E-01  0.58858472021E-01  0.10213971679E+00  0.12855815608E+00  0.20866589336E-01 0.  0.
         14    1    1    2    0    0 -0.64471073770E-02  0.21799370624E-01  0.76219009656E-02  0.23976470288E-01  0.00000000000E+00 0. -1.
     999901    1    3    3    0    0 -0.40403116427E-01 -0.80657842645E-01 -0.10976161775E+00  0.89139537363E+00  0.88000000000E+00 0. -1.
        -11    1    4    4    0    0  0.23976544002E-01  0.17500650896E-01  0.50285266365E-01  0.58395347233E-01  0.51100000000E-03 0. -1.
         11    1    4    4    0    0  0.22873679802E-01  0.41357821125E-01  0.51854450424E-01  0.70162808850E-01  0.51100000000E-03 0.  1.
</event>
<event>
 8    1  0.1106168E+005  0.1043930E+01  0.7957747E-01            NaN
         13   -1    0    0    0    0  0.00000000000E+00  0.00000000000E+00  0.74505805969E-08  0.10566000000E+00  0.10566000000E+00 0. -1.
     999900   -1    0    0    0    0 -0.00000000000E+00 -0.00000000000E+00 -0.74505805969E-08  0.93827000000E+00  0.93827000000E+00 0. -1.
     999902    2    1    2    0    0 -0.17035280780E-01  0.16962310700E-01 -0.48083048169E-02  0.10194138712E+01  0.10191190314E+01 0.  0.
     999903    2    3    3    0    0  0.43907697348E-01  0.50643322742E-01  0.10873639181E+00  0.12939091910E+00  0.20634316496E-01 0.  0.
         14    1    1    2    0    0  0.17035280780E-01 -0.16962310700E-01  0.48083048169E-02  0.24516128788E-01  0.00000000000E+00 0.  1.
     999901    1    3    3    0    0 -0.60942978129E-01 -0.33681012042E-01 -0.11354469663E+00  0.89002295211E+00  0.88000000000E+00 0. -1.
        -11    1    4    4    0    0  0.12233426110E-01  0.47213542073E-02  0.31403784626E-01  0.34035374389E-01  0.51100000000E-03 0.  1.
         11    1    4    4    0    0  0.31674271238E-01  0.45921968534E-01  0.77332607182E-01  0.95355544711E-01  0.51100000000E-03 0. -1.
</event>
<event>
 8    1  0.1106168E+005  0.1043930E+01  0.7957747E-01            NaN
         13   -1    0    0    0    0  0.00000000000E+00  0.00000000000E+00  0.74505805969E-08  0.10566000000E+00  0.10566000000E+00 0.  1.
     999900   -1    0    0    0    0 -0.00000000000E+00 -0.00000000000E+00 -0.74505805969E-08  0.93827000000E+00  0.93827000000E+00 0. -1.
     999902    2    1    2    0    0 -0.28764203849E-02  0.20112653615E-01 -0.13460313427E-01  0.10195584455E+01  0.10192671147E+01 0.  0.
     999903    2    3    3    0    0  0.95491103143E-01  0.48096956971E-01 -0.73991861861E-01  0.13157006764E+00  0.20100224551E-01 0.  0.
         14    1    1    2    0    0  0.28764203849E-02 -0.20112653615E-01  0.13460313427E-01  0.24371554468E-01  0.00000000000E+00 0.  1.
     999901    1    3    3    0    0 -0.98367523528E-01 -0.27984303356E-01  0.60531548435E-01  0.88798837789E+00  0.88000000000E+00 0.  1.
        -11    1    4    4    0    0  0.83477562691E-01  0.44434039997E-01 -0.56944177446E-01  0.11038925604E+00  0.51100000000E-03 0. -1.
         11    1    4    4    0    0  0.12013540452E-01  0.36629169740E-02 -0.17047684415E-01  0.21180811597E-01  0.51100000000E-03 0.  1.
</event>
<event>
 8    1  0.1106168E+005  0.1043930E+01  0.7957747E-01            NaN
         13   -1    0    0    0    0  0.00000000000E+00  0.00000000000E+00  0.74505805969E-08  0.10566000000E+00  0.10566000000E+00 0.  1.
     999900   -1    0    0    0    0 -0.00000000000E+00 -0.00000000000E+00 -0.74505805969E-08  0.93827000000E+00  0.93827000000E+00 0.  1.
     999902    2    1    2    0    0  0.98133715067E-02 -0.19042110189E-01 -0.99247217627E-02  0.10203205883E+01  0.10200474001E+01 0.  0.
     999903    2    3    3    0    0 -0.75393581728E-01 -0.98625159088E-01  0.37949600492E-01  0.13134047752E+00  0.19975852604E-01 0.  0.
         14    1    1    2    0    0 -0.98133715067E-02  0.19042110189E-01  0.99247217627E-02  0.23609411743E-01  0.00000000000E+00 0.  1.
     999901    1    3    3    0    0  0.85206953234E-01  0.79583048900E-01 -0.47874322254E-01  0.88898011074E+00  0.88000000000E+00 0.  1.
        -11    1    4    4    0    0 -0.56361124378E-01 -0.86193710258E-01  0.30339766629E-01  0.10736244497E+00  0.51100000000E-03 0.  1.
         11    1    4    4    0    0 -0.19032457350E-01 -0.12431448831E-01  0.76098338623E-02  0.23978032555E-01  0.51100000000E-03 0. -1.
</event>
<event>
 8    1  0.1106168E+005  0.1043930E+01  0.7957747E-01            NaN
         13   -1    0    0    0    0  0.00000000000E+00  0.00000000000E+00  0.74505805969E-08  0.10566000000E+00  0.10566000000E+00 0. -1.
     999900   -1    0    0    0    0 -0.00000000000E+00 -0.00000000000E+00 -0.74505805969E-08  0.93827000000E+00  0.93827000000E+00 0.  1.
     999902    2    1    2    0    0  0.12791976104E-02  0.89625172103E-02  0.21124256300E-01  0.10209474574E+01  0.10206887447E+01 0.  0.
     999903    2    3    3    0    0  0.92613803540E-01  0.51197251668E-01 -0.73129243027E-01  0.13021208412E+00  0.20219433235E-01 0.  0.
         14    1    1    2    0    0 -0.12791976104E-02 -0.89625172103E-02 -0.21124256300E-01  0.22982542625E-01  0.00000000000E+00 0.  1.
     999901    1    3    3    0    0 -0.91334605930E-01 -0.42234734458E-01  0.94253499327E-01  0.89073537326E+00  0.88000000000E+00 0. -1.
        -11    1    4    4    0    0  0.54766203097E-01  0.26612624589E-01 -0.30395120564E-01  0.68056544610E-01  0.51100000000E-03 0. -1.
         11    1    4    4    0    0  0.37847600443E-01  0.24584627079E-01 -0.42734122463E-01  0.62155539508E-01  0.51100000000E-03 0.  1.
</event>
<event>
 8    1  0.1106168E+005  0.1043930E+01  0.7957747E-01            NaN
         13   -1    0    0    0    0  0.00000000000E+00  0.00000000000E+00  0.74505805969E-08  0.10566000000E+00  0.10566000000E+00 0. -1.
     999900   -1    0    0    0    0 -0.00000000000E+00 -0.00000000000E+00 -0.74505805969E-08  0.93827000000E+00  0.93827000000E+00 0.  1.
     999902    2    1    2    0    0 -0.87559167138E-02 -0.11504730267E-01 -0.18557777636E-01  0.10204052044E+01  0.10201339938E+01 0.  0.
     999903    2    3    3    0    0  0.92361535695E-01 -0.88114314521E-01 -0.23200335667E-01  0.13129591928E+00  0.20138945999E-01 0.  0.
         14    1    1    2    0    0  0.87559167138E-02  0.11504730267E-01  0.18557777636E-01  0.23524795575E-01  0.00000000000E+00 0. -1.
     999901    1    3    3    0    0 -0.10111745241E+00  0.76609584253E-01  0.46425580301E-02  0.88910928514E+00  0.88000000000E+00 0.  1.
        -11    1    4    4    0    0  0.69965566193E-01 -0.75601530075E-01 -0.13620560553E-01  0.10390646079E+00  0.51100000000E-03 0.  1.
         11    1    4    4    0    0  0.22395969502E-01 -0.12512784446E-01 -0.95797751135E-02  0.27389458497E-01  0.51100000000E-03 0. -1.
</event>
<event>
 8    1  0.1106168E+005  0.1043930E+01  0.7957747E-01            NaN
         13   -1    0    0    0    0  0.00000000000E+00  0.00000000000E+00  0.74505805969E-08  0.10566000000E+00  0.10566000000E+00 0.  1.
     999900   -1    0    0    0    0 -0.00000000000E+00 -0.00000000000E+00 -0.74505805969E-08  0.93827000000E+00  0.93827000000E+00 0.  1.
     999902    2    1    2    0    0 -0.62356779103E-02  0.17345770055E-01 -0.15042279258E-01  0.10201386238E+01  0.10198611583E+01 0.  0.
     999903    2    3    3    0    0  0.61378813818E-01 -0.75536302795E-01 -0.83861869538E-01  0.13000664762E+00  0.19895311957E-01 0.  0.
         14    1    1    2    0    0  0.62356779103E-02 -0.17345770055E-01  0.15042279258E-01  0.23791376234E-01  0.00000000000E+00 0.  1.
     999901    1    3    3    0    0 -0.67614491728E-01  0.92882072850E-01  0.68819590279E-01  0.89013197614E+00  0.88000000000E+00 0. -1.
        -11    1    4    4    0    0  0.38881762868E-01 -0.54921316187E-01 -0.46653908961E-01  0.81884008193E-01  0.51100000000E-03 0.  1.
         11    1    4    4    0    0  0.22497050950E-01 -0.20614986608E-01 -0.37207960577E-01  0.48122639429E-01  0.51100000000E-03 0. -1.
</event>
<event>
 8    1  0.1106168E+005  0.1043930E+01  0.7957747E-01            NaN
         13   -1    0    0    0    0  0.00000000000E+00  0.00000000000E+00  0.74505805969E-08  0.10566000000E+00  0.10566000000E+00 0.  1.
     999900   -1    0    0    0    0 -0.00000000000E+00 -0.00000000000E+00 -0.74505805969E-08  0.93827000000E+00  0.93827000000E+00 0.  1.
     999902    2    1    2    0    0  0.51489067341E-02  0.90479907560E-02  0.21703094462E-01  0.10198592359E+01  0.10195751366E+01 0.  0.
     999903    2    3    3    0    0 -0.20151200805E-01  0.44295576449E-01 -0.11669759059E+00  0.12798635401E+00  0.19849689584E-01 0.  0.
         14    1    1    2    0    0 -0.51489067341E-02 -0.90479907560E-02 -0.21703094462E-01  0.24070764144E-01  0.00000000000E+00 0. -1.
     999901    1    3    3    0    0  0.25300107539E-01 -0.35247585693E-01  0.13840068506E+00  0.89187288184E+00  0.88000000000E+00 0. -1.
        -11    1    4    4    0    0 -0.67612277661E-02  0.11024437047E-01 -0.13361171981E-01  0.18602001258E-01  0.51100000000E-03 0.  1.
         11    1    4    4    0    0 -0.13389973039E-01  0.33271139402E-01 -0.10333641861E+00  0.10938435276E+00  0.51100000000E-03 0. -1.
</event>
<event>
 8    1  0.1106168E+005  0.1043930E+01  0.7957747E-01            NaN
         13   -1    0    0    0    0  0.00000000000E+00  0.00000000000E+00  0.74505805969E-08  0.10566000000E+00  0.10566000000E+00 0.  1.
     999900   -1    0    0    0    0 -0.00000000000E+00 -0.00000000000E+00 -0.74505805969E-08  0.93827000000E+00  0.93827000000E+00 0. -1.
     999902    2    1    2    0    0  0.13430923478E-02  0.84740440389E-02  0.21560308049E-01  0.10207252547E+01  0.10204614571E+01 0.  0.
     999903    2    3    3    0    0 -0.70962626820E-01  0.72438673668E-01 -0.78741966284E-01  0.12978185749E+00  0.18973071212E-01 0.  0.
         14    1    1    2    0    0 -0.13430923478E-02 -0.84740440389E-02 -0.21560308049E-01  0.23204745260E-01  0.00000000000E+00 0. -1.
     999901    1    3    3    0    0  0.72305719167E-01 -0.63964629629E-01  0.10030227433E+00  0.89094339725E+00  0.88000000000E+00 0.  1.
        -11    1    4    4    0    0 -0.61988746380E-02  0.16218417893E-01 -0.14482254249E-01  0.22615479983E-01  0.51100000000E-03 0.  1.
         11    1    4    4    0    0 -0.64763752182E-01  0.56220255776E-01 -0.64259712035E-01  0.10716637751E+00  0.51100000000E-03 0. -1.
</event>
<event>
 8    1  0.1106168E+005  0.1043930E+01  0.7957747E-01            NaN
         13   -1    0    0    0    0  0.00000000000E+00  0.00000000000E+00  0.74505805969E-08  0.10566000000E+00  0.10566000000E+00 0.  1.
     999900   -1    0    0    0    0 -0.00000000000E+00 -0.00000000000E+00 -0.74505805969E-08  0.93827000000E+00  0.93827000000E+00 0.  1.
     999902    2    1    2    0    0  0.22222245423E-02 -0.21304252203E-01  0.82549103594E-02  0.10209745434E+01  0.10207164470E+01 0.  0.
     999903    2    3    3    0    0  0.46322401204E-01 -0.80448820622E-01 -0.92162048375E-01  0.13219646581E+00  0.19086246867E-01 0.  0.
         14    1    1    2    0    0 -0.22222245423E-02  0.21304252203E-01 -0.82549103594E-02  0.22955456625E-01  0.00000000000E+00 0. -1.
     999901    1    3    3    0    0 -0.44100176662E-01  0.59144568420E-01  0.10041695873E+00  0.88877807756E+00  0.88000000000E+00 0. -1.
        -11    1    4    4    0    0  0.38915887600E-01 -0.50878116348E-01 -0.58074703019E-01  0.86463641391E-01  0.51100000000E-03 0.  1.
         11    1    4    4    0    0  0.74065136040E-02 -0.29570704274E-01 -0.34087345357E-01  0.45732824421E-01  0.51100000000E-03 0. -1.
</event>
<event>
 8    1  0.1106168E+005  0.1043930E+01  0.7957747E-01            NaN
         13   -1    0    0    0    0  0.00000000000E+00  0.00000000000E+00  0.74505805969E-08  0.10566000000E+00  0.10566000000E+00 0. -1.
     999900   -1    0    0    0    0 -0.00000000000E+00 -0.00000000000E+00 -0.74505805969E-08  0.93827000000E+00  0.93827000000E+00 0.  1.
     999902    2    1    2    0    0  0.17357729585E-01  0.11170300179E-01  0.86649086555E-02  0.10215436867E+01  0.10212983681E+01 0.  0.
     999903    2    3    3    0    0 -0.35739272166E-02  0.99293236612E-01  0.86730631867E-01  0.13345695480E+00  0.20411675295E-01 0.  0.
         14    1    1    2    0    0 -0.17357729585E-01 -0.11170300179E-01 -0.86649086555E-02  0.22386313328E-01  0.00000000000E+00 0.  1.
     999901    1    3    3    0    0  0.20931656801E-01 -0.88122936433E-01 -0.78065723211E-01  0.88808673187E+00  0.88000000000E+00 0.  1.
        -11    1    4    4    0    0  0.21702299101E-02  0.69262701032E-01  0.48908166296E-01  0.84819228384E-01  0.51100000000E-03 0.  1.
         11    1    4    4    0    0 -0.57441571266E-02  0.30030535580E-01  0.37822465571E-01  0.48637726418E-01  0.51100000000E-03 0. -1.
</event>
<event>
 8    1  0.1106168E+005  0.1043930E+01  0.7957747E-01            NaN
         13   -1    0    0    0    0  0.00000000000E+00  0.00000000000E+00  0.74505805969E-08  0.10566000000E+00  0.10566000000E+00 0. -1.
     999900   -1    0    0    0    0 -0.00000000000E+00 -0.00000000000E+00 -0.74505805969E-08  0.93827000000E+00  0.93827000000E+00 0.  1.
     999902    2    1    2    0    0 -0.38871180968E-02  0.55983755878E-02 -0.25323342030E-01  0.10177055239E+01  0.10173675885E+01 0.  0.
     999903    2    3    3    0    0  0.10803021051E+00  0.42276294137E-01 -0.51386163549E-01  0.12947693347E+00  0.25805562708E-01 0.  0.
         14    1    1    2    0    0  0.38871180968E-02 -0.55983755878E-02  0.25323342030E-01  0.26224476122E-01  0.00000000000E+00 0. -1.
     999901    1    3    3    0    0 -0.11191732861E+00 -0.36677918549E-01  0.26062821519E-01  0.88822859041E+00  0.88000000000E+00 0.  1.
        -11    1    4    4    0    0  0.27507550029E-01  0.13882916403E-01 -0.20965059334E-02  0.30887815309E-01  0.51100000000E-03 0.  1.
         11    1    4    4    0    0  0.80522660486E-01  0.28393377734E-01 -0.49289657615E-01  0.98589118161E-01  0.51100000000E-03 0. -1.
</event>
<event>
 8    1  0.1106168E+005  0.1043930E+01  0.7957747E-01            NaN
         13   -1    0    0    0    0  0.00000000000E+00  0.00000000000E+00  0.74505805969E-08  0.10566000000E+00  0.10566000000E+00 0. -1.
     999900   -1    0    0    0    0 -0.00000000000E+00 -0.00000000000E+00 -0.74505805969E-08  0.93827000000E+00  0.93827000000E+00 0. -1.
     999902    2    1    2    0    0 -0.87063248701E-02  0.21289747585E-01  0.29257056497E-02  0.10207435126E+01  0.10204801347E+01 0.  0.
     999903    2    3    3    0    0 -0.28223580731E-01  0.27874865511E-02 -0.12625822453E+00  0.13090546847E+00  0.19767696505E-01 0.  0.
         14    1    1    2    0    0  0.87063248701E-02 -0.21289747585E-01 -0.29257056497E-02  0.23186487412E-01  0.00000000000E+00 0. -1.
     999901    1    3    3    0    0  0.19517255861E-01  0.18502261034E-01  0.12918393018E+00  0.88983804412E+00  0.88000000000E+00 0.  1.
        -11    1    4    4    0    0 -0.20957859107E-01 -0.33509040154E-02 -0.54022031730E-01  0.58043961351E-01  0.51100000000E-03 0.  1.
         11    1    4    4    0    0 -0.72657216248E-02  0.61383905664E-02 -0.72236192795E-01  0.72861507121E-01  0.51100000000E-03 0. -1.
</event>
<event>
 8    1  0.1106168E+005  0.1043930E+01  0.7957747E-01            NaN
         13   -1    0    0    0    0  0.00000000000E+00  0.00000000000E+00  0.74505805969E-08  0.10566000000E+00  0.10566000000E+00 0. -1.
     999900   -1    0    0    0    0 -0.00000000000E+00 -0.00000000000E+00 -0.74505805969E-08  0.93827000000E+00  0.93827000000E+00 0. -1.
     999902    2    1    2    0    0 -0.87537317238E-02 -0.10154850240E-01  0.20484160980E-01  0.10194483813E+01  0.10191543811E+01 0.  0.
     999903    2    3    3    0    0  0.73155887536E-02  0.12518916871E+00 -0.18188617301E-01  0.12811689959E+00  0.18901543884E-01 0.  0.
         14    1    1    2    0    0  0.87537317238E-02  0.10154850240E-01 -0.20484160980E-01  0.24481618687E-01  0.00000000000E+00 0.  1.
     999901    1    3    3    0    0 -0.16069320477E-01 -0.13534401895E+00  0.38672778281E-01  0.89133148172E+00  0.88000000000E+00 0.  1.
        -11    1    4    4    0    0  0.65488251354E-02  0.53298057685E-01  0.97346565190E-03  0.53710137033E-01  0.51100000000E-03 0. -1.
         11    1    4    4    0    0  0.76676361822E-03  0.71891111023E-01 -0.19162082953E-01  0.74406762560E-01  0.51100000000E-03 0.  1.
</event>
<event>
 8    1  0.1106168E+005  0.1043930E+01  0.7957747E-01            NaN
         13   -1    0    0    0    0  0.00000000000E+00  0.00000000000E+00  0.74505805969E-08  0.10566000000E+00  0.10566000000E+00 0.  1.
     999900   -1    0    0    0    0 -0.00000000000E+00 -0.00000000000E+00 -0.74505805969E-08  0.93827000000E+00  0.93827000000E+00 0. -1.
     999902    2    1    2    0    0  0.16022551517E-01 -0.17483414192E-01  0.86155100541E-02  0.10186986912E+01  0.10183861765E+01 0.  0.
     999903    2    3    3    0    0  0.85290848016E-01 -0.98446039356E-01 -0.81150285309E-02  0.13211369559E+00  0.20543209421E-01 0.  0.
         14    1    1    2    0    0 -0.16022551517E-01  0.17483414192E-01 -0.86155100541E-02  0.25231308773E-01  0.00000000000E+00 0. -1.
     999901    1    3    3    0    0 -0.69268296499E-01  0.80962625165E-01  0.16730538585E-01  0.88658499564E+00  0.88000000000E+00 0.  1.
        -11    1    4    4    0    0  0.69497585793E-01 -0.71043734569E-01 -0.12542972599E-01  0.10017341931E+00  0.51100000000E-03 0. -1.
         11    1    4    4    0    0  0.15793262222E-01 -0.27402304787E-01  0.44279440682E-02  0.31940276281E-01  0.51100000000E-03 0.  1.
</event>
<event>
 8    1  0.1106168E+005  0.1043930E+01  0.7957747E-01            NaN
         13   -1    0    0    0    0  0.00000000000E+00  0.00000000000E+00  0.74505805969E-08  0.10566000000E+00  0.10566000000E+00 0.  1.
     999900   -1    0    0    0    0 -0.00000000000E+00 -0.00000000000E+00 -0.74505805969E-08  0.93827000000E+00  0.93827000000E+00 0.  1.
     999902    2    1    2    0    0  0.29690042204E-02 -0.17378285700E-01  0.15572520308E-01  0.10204071773E+01  0.10201360126E+01 0.  0.
     999903    2    3    3    0    0  0.73704191955E-01  0.93131140958E-01  0.48947160409E-01  0.13005350218E+00  0.20306934512E-01 0.  0.
         14    1    1    2    0    0 -0.29690042204E-02  0.17378285700E-01 -0.15572520308E-01  0.23522822719E-01  0.00000000000E+00 0. -1.
     999901    1    3    3    0    0 -0.70735187735E-01 -0.11050942666E+00 -0.33374640101E-01  0.89035367510E+00  0.88000000000E+00 0.  1.
        -11    1    4    4    0    0  0.68058574609E-01  0.87512173207E-01  0.39508661535E-01  0.11769258895E+00  0.51100000000E-03 0.  1.
         11    1    4    4    0    0  0.56456173459E-02  0.56189677507E-02  0.94384988736E-02  0.12360913226E-01  0.51100000000E-03 0. -1.
</event>
<event>
 8    1  0.1106168E+005  0.1043930E+01  0.7957747E-01            NaN
         13   -1    0    0    0    0  0.00000000000E+00  0.00000000000E+00  0.74505805969E-08  0.10566000000E+00  0.10566000000E+00 0.  1.
     999900   -1    0    0    0    0 -0.00000000000E+00 -0.00000000000E+00 -0.74505805969E-08  0.93827000000E+00  0.93827000000E+00 0. -1.
     999902    2    1    2    0    0 -0.18474314681E-01  0.42556032469E-02 -0.60774224356E-02  0.10240215715E+01  0.10238280292E+01 0.  0.
     999903    2    3    3    0    0 -0.10687474360E+00 -0.73082776788E-01  0.33877602451E-01  0.13531899759E+00  0.20005901110E-01 0.  0.
         14    1    1    2    0    0  0.18474314681E-01 -0.42556032469E-02  0.60774224356E-02  0.19908428501E-01  0.00000000000E+00 0. -1.
     999901    1    3    3    0    0  0.88400428914E-01  0.77338380035E-01 -0.39955024887E-01  0.88870257391E+00  0.88000000000E+00 0. -1.
        -11    1    4    4    0    0 -0.12686103172E-01 -0.11389459183E-01  0.11361393067E-01  0.20493886103E-01  0.51100000000E-03 0.  1.
         11    1    4    4    0    0 -0.94188640424E-01 -0.61693317606E-01  0.22516209384E-01  0.11482511149E+00  0.51100000000E-03 0. -1.
</event>
<event>
 8    1  0.1106168E+005  0.1043930E+01  0.7957747E-01            NaN
         13   -1    0    0    0    0  0.00000000000E+00  0.00000000000E+00  0.74505805969E-08  0.10566000000E+00  0.10566000000E+00 0.  1.
     999900   -1    0    0    0    0 -0.00000000000E+00 -0.00000000000E+00 -0.74505805969E-08  0.93827000000E+00  0.93827000000E+00 0. -1.
     999902    2    1    2    0    0  0.23605736556E-01 -0.18887255026E-02  0.49786240462E-02  0.10197311409E+01  0.10194439735E+01 0.  0.
     999903    2    3    3    0    0  0.95256883953E-01  0.61363612187E-01  0.65592876545E-01  0.13248324280E+00  0.20248884628E-01 0.  0.
         14    1    1    2    0    0 -0.23605736556E-01  0.18887255026E-02 -0.49786240462E-02  0.24198859059E-01  0.00000000000E+00 0. -1.
     999901    1    3    3    0    0 -0.71651147397E-01 -0.63252337690E-01 -0.60614252499E-01  0.88724789814E+00  0.88000000000E+00 0. -1.
        -11    1    4    4    0    0  0.37209614186E-01  0.12689889440E-01  0.20906247967E-01  0.44530001201E-01  0.51100000000E-03 0. -1.
         11    1    4    4    0    0  0.58047269767E-01  0.48673722747E-01  0.44686628578E-01  0.87953241601E-01  0.51100000000E-03 0.  1.
</event>
<event>
 8    1  0.1106168E+005  0.1043930E+01  0.7957747E-01            NaN
         13   -1    0    0    0    0  0.00000000000E+00  0.00000000000E+00  0.74505805969E-08  0.10566000000E+00  0.10566000000E+00 0. -1.
     999900   -1    0    0    0    0 -0.00000000000E+00 -0.00000000000E+00 -0.74505805969E-08  0.93827000000E+00  0.93827000000E+00 0.  1.
     999902    2    1    2    0    0 -0.16150800512E-01  0.31316251333E-02 -0.17098816013E-01  0.10202018534E+01  0.10199258780E+01 0.  0.
     999903    2    3    3    0    0  0.56310776369E-01  0.76050186491E-01  0.84998954603E-01  0.12835447211E+00  0.17190515562E-01 0.  0.
         14    1    1    2    0    0  0.16150800512E-01 -0.31316251333E-02  0.17098816013E-01  0.23728146624E-01  0.00000000000E+00 0. -1.
     999901    1    3    3    0    0 -0.72461576882E-01 -0.72918561358E-01 -0.10209777062E+00  0.89184738127E+00  0.88000000000E+00 0. -1.
        -11    1    4    4    0    0  0.29169560672E-01  0.46385010712E-01  0.39004933626E-01  0.67261270109E-01  0.51100000000E-03 0. -1.
         11    1    4    4    0    0  0.27141215697E-01  0.29665175779E-01  0.45994020977E-01  0.61093201996E-01  0.51100000000E-03 0.  1.
</event>
<event>
 8    1  0.1106168E+005  0.1043930E+01  0.7957747E-01            NaN
         13   -1    0    0    0    0  0.00000000000E+00  0.00000000000E+00  0.74505805969E-08  0.10566000000E+00  0.10566000000E+00 0.  1.
     999900   -1    0    0    0    0 -0.00000000000E+00 -0.00000000000E+00 -0.74505805969E-08  0.93827000000E+00  0.93827000000E+00 0.  1.
     999902    2    1    2    0    0  0.26530579833E-02 -0.27947592508E-02 -0.24511609233E-01  0.10191173342E+01  0.10188152298E+01 0.  0.
     999903    2    3    3    0    0  0.96188001788E-02 -0.54802296946E-01  0.11232845068E+00  0.12699710267E+00  0.20365907447E-01 0.  0.
         14    1    1    2    0    0 -0.26530579833E-02  0.27947592508E-02  0.24511609233E-01  0.24812665780E-01  0.00000000000E+00 0.  1.
     999901    1    3    3    0    0 -0.69657421955E-02  0.52007537695E-01 -0.13684005992E+00  0.89212023155E+00  0.88000000000E+00 0.  1.
        -11    1    4    4    0    0  0.81873177521E-03 -0.40993620781E-01  0.93139108559E-01  0.10176591733E+00  0.51100000000E-03 0. -1.
         11    1    4    4    0    0  0.88000684036E-02 -0.13808676165E-01  0.19189342125E-01  0.25231185337E-01  0.51100000000E-03 0.  1.
</event>
<event>
 8    1  0.1106168E+005  0.1043930E+01  0.7957747E-01            NaN
         13   -1    0    0    0    0  0.00000000000E+00  0.00000000000E+00  0.74505805969E-08  0.10566000000E+00  0.10566000000E+00 0. -1.
     999900   -1    0    0    0    0 -0.00000000000E+00 -0.00000000000E+00 -0.74505805969E-08  0.93827000000E+00  0.93827000000E+00 0. -1.
     999902    2    1    2    0    0  0.14410679708E-01  0.16491544846E-01 -0.97649448679E-02  0.10199509907E+01  0.10196690789E+01 0.  0.
     999903    2    3    3    0    0 -0.51852979452E-01 -0.83460058012E-01  0.78934211247E-01  0.12739917942E+00  0.18591085227E-01 0.  0.
         14    1    1    2    0    0 -0.14410679708E-01 -0.16491544846E-01  0.97649448679E-02  0.23979009349E-01  0.00000000000E+00 0. -1.
     999901    1    3    3    0    0  0.66263659160E-01  0.99951602859E-01 -0.88699156115E-01  0.89255181123E+00  0.88000000000E+00 0. -1.
        -11    1    4    4    0    0 -0.20203816034E-01 -0.49168311162E-01  0.45754778115E-01  0.70138989487E-01  0.51100000000E-03 0.  1.
         11    1    4    4    0    0 -0.31649163417E-01 -0.34291746850E-01  0.33179433132E-01  0.57260189932E-01  0.51100000000E-03 0. -1.
</event>
<event>
 7    1  0.1106168E+005  0.1043930E+01  0.7957747E-01            NaN
         13   -1    0    0    0    0  0.00000000000E+00  0.00000000000E+00  0.74505805969E-08  0.10566000000E+00  0.10566000000E+00 0. -1.
     999900   -1    0    0    0    0 -0.00000000000E+00 -0.00000000000E+00 -0.74505805969E-08  0.93827000000E+00  0.93827000000E+00 0. -1.
     999903    2    1    2    0    0 -0.21357029995E-01  0.10209576335E-01  0.82128697805E-01  0.87307101790E-01  0.17805865347E-01 0.  0.
         14    1    1    2    0    0 -0.48335761287E-01  0.42191559326E-01  0.18068032378E-01  0.66655287049E-01  0.00000000000E+00 0. -1.
     999901    1    1    2    0    0  0.69692791282E-01 -0.52401135661E-01 -0.10019673018E+00  0.88996761116E+00  0.88000000000E+00 0. -1.
        -11    1    3    3    0    0 -0.15374410725E-01 -0.23060846162E-02  0.38508647059E-01  0.41531524782E-01  0.51100000000E-03 0. -1.
         11    1    3    3    0    0 -0.59826192697E-02  0.12515660951E-01  0.43620050746E-01  0.45775577008E-01  0.51100000000E-03 0.  1.
</event>
<event>
 8    1  0.1106168E+005  0.1043930E+01  0.7957747E-01            NaN
         13   -1    0    0    0    0  0.00000000000E+00  0.00000000000E+00  0.74505805969E-08  0.10566000000E+00  0.10566000000E+00 0.  1.
     999900   -1    0    0    0    0 -0.00000000000E+00 -0.00000000000E+00 -0.74505805969E-08  0.93827000000E+00  0.93827000000E+00 0.  1.
     999902    2    1    2    0    0 -0.71332468965E-03  0.41387282840E-02  0.23615360528E-01  0.10199441050E+01  0.10196620294E+01 0.  0.
     999903    2    3    3    0    0 -0.10389466322E+00  0.45495131796E-01 -0.58443274888E-01  0.12916334617E+00  0.20090932080E-01 0.  0.
         14    1    1    2    0    0  0.71332468965E-03 -0.41387282840E-02 -0.23615360528E-01  0.23985894955E-01  0.00000000000E+00 0. -1.
     999901    1    3    3    0    0  0.10318133853E+00 -0.41356403512E-01  0.82058635416E-01  0.89078075887E+00  0.88000000000E+00 0. -1.
        -11    1    4    4    0    0 -0.56623808332E-01  0.21327245644E-01 -0.20430929264E-01  0.63865413710E-01  0.51100000000E-03 0. -1.
         11    1    4    4    0    0 -0.47270854889E-01  0.24167886152E-01 -0.38012345624E-01  0.65297932462E-01  0.51100000000E-03 0.  1.
</event>
<event>
 8    1  0.1106168E+005  0.1043930E+01  0.7957747E-01            NaN
         13   -1    0    0    0    0  0.00000000000E+00  0.00000000000E+00  0.74505805969E-08  0.10566000000E+00  0.10566000000E+00 0. -1.
     999900   -1    0    0    0    0 -0.00000000000E+00 -0.00000000000E+00 -0.74505805969E-08  0.93827000000E+00  0.93827000000E+00 0.  1.
     999902    2    1    2    0    0 -0.20162684754E-02  0.10219997445E-01  0.21147953427E-01  0.10203556576E+01  0.10200832899E+01 0.  0.
     999903    2    3    3    0    0 -0.29478155488E-01  0.74444501154E-01  0.10498987341E+00  0.13361532938E+00  0.20475285684E-01 0.  0.
         14    1    1    2    0    0  0.20162684754E-02 -0.10219997445E-01 -0.21147953427E-01  0.23574342419E-01  0.00000000000E+00 0.  1.
     999901    1    3    3    0    0  0.27461887012E-01 -0.64224503709E-01 -0.83841919981E-01  0.88674032820E+00  0.88000000000E+00 0.  1.
        -11    1    4    4    0    0 -0.28026349169E-02  0.33628650361E-01  0.39243552622E-01  0.51759621627E-01  0.51100000000E-03 0.  1.
         11    1    4    4    0    0 -0.26675520571E-01  0.40815850792E-01  0.65746320786E-01  0.81855707752E-01  0.51100000000E-03 0. -1.
</event>
<event>
 8    1  0.1106168E+005  0.1043930E+01  0.7957747E-01            NaN
         13   -1    0    0    0    0  0.00000000000E+00  0.00000000000E+00  0.74505805969E-08  0.10566000000E+00  0.10566000000E+00 0.  1.
     999900   -1    0    0    0    0 -0.00000000000E+00 -0.00000000000E+00 -0.74505805969E-08  0.93827000000E+00  0.93827000000E+00 0.  1.
     999902    2    1    2    0    0  0.77828214258E-02  0.15268684932E-01 -0.16085423168E-01  0.10204258326E+01  0.10201551028E+01 0.  0.
     999903    2    3    3    0    0 -0.34908654915E-01 -0.12186511296E+00  0.60573048589E-02  0.12850737155E+00  0.20192415799E-01 0.  0.
         14    1    1    2    0    0 -0.77828214258E-02 -0.15268684932E-01  0.16085423168E-01  0.23504167447E-01  0.00000000000E+00 0.  1.
     999901    1    3    3    0    0  0.42691476341E-01  0.13713379789E+00 -0.22142728027E-01  0.89191846100E+00  0.88000000000E+00 0.  1.
        -11    1    4    4    0    0 -0.17715796644E-01 -0.62319566766E-01 -0.69970702041E-02  0.65167460938E-01  0.51100000000E-03 0. -1.
         11    1    4    4    0    0 -0.17192858271E-01 -0.59545546192E-01  0.13054375063E-01  0.63339910611E-01  0.51100000000E-03 0.  1.
</event>
<event>
 8    1  0.1106168E+005  0.1043930E+01  0.7957747E-01            NaN
         13   -1    0    0    0    0  0.00000000000E+00  0.00000000000E+00  0.74505805969E-08  0.10566000000E+00  0.10566000000E+00 0. -1.
     999900   -1    0    0    0    0 -0.00000000000E+00 -0.00000000000E+00 -0.74505805969E-08  0.93827000000E+00  0.93827000000E+00 0. -1.
     999902    2    1    2    0    0 -0.91504288644E-02 -0.13073316873E-01 -0.15723029064E-01  0.10215278661E+01  0.10212821968E+01 0.  0.
     999903    2    3    3    0    0  0.10044688736E+00 -0.82223426821E-01  0.93627994179E-02  0.13168371778E+00  0.20066649354E-01 0.  0.
         14    1    1    2    0    0  0.91504288644E-02  0.13073316873E-01  0.15723029064E-01  0.22402133947E-01  0.00000000000E+00 0. -1.
     999901    1    3    3    0    0 -0.10959731622E+00  0.69150109949E-01 -0.25085828482E-01  0.88984414828E+00  0.88000000000E+00 0. -1.
        -11    1    4    4    0    0  0.42622698649E-01 -0.22476270655E-01  0.43518708577E-02  0.48384678191E-01  0.51100000000E-03 0.  1.
         11    1    4    4    0    0  0.57824188710E-01 -0.59747156166E-01  0.50109285602E-02  0.83299039586E-01  0.51100000000E-03 0. -1.
</event>
<event>
 8    1  0.1106168E+005  0.1043930E+01  0.7957747E-01            NaN
         13   -1    0    0    0    0  0.00000000000E+00  0.00000000000E+00  0.74505805969E-08  0.10566000000E+00  0.10566000000E+00 0. -1.
     999900   -1    0    0    0    0 -0.00000000000E+00 -0.00000000000E+00 -0.74505805969E-08  0.93827000000E+00  0.93827000000E+00 0. -1.
     999902    2    1    2    0    0 -0.16126617937E-01  0.27220194390E-01 -0.62395286212E-02  0.10116819224E+01  0.10111678267E+01 0.  0.
     999903    2    3    3    0    0  0.10913034141E+00 -0.16015483318E-01  0.43737523176E-01  0.12035912155E+00  0.20184649733E-01 0.  0.
         14    1    1    2    0    0  0.16126617937E-01 -0.27220194390E-01  0.62395286212E-02  0.32248077557E-01  0.00000000000E+00 0. -1.
     999901    1    3    3    0    0 -0.12525695934E+00  0.43235677708E-01 -0.49977051797E-01  0.89132280090E+00  0.88000000000E+00 0. -1.
        -11    1    4    4    0    0  0.42973278718E-01  0.27430960025E-02  0.21152427630E-01  0.47978261485E-01  0.51100000000E-03 0.  1.
         11    1    4    4    0    0  0.66157062687E-01 -0.18758579320E-01  0.22585095546E-01  0.72380860062E-01  0.51100000000E-03 0. -1.
</event>
<event>
 8    1  0.1106168E+005  0.1043930E+01  0.7957747E-01            NaN
         13   -1    0    0    0    0  0.00000000000E+00  0.00000000000E+00  0.74505805969E-08  0.10566000000E+00  0.10566000000E+00 0.  1.
     999900   -1    0    0    0    0 -0.00000000000E+00 -0.00000000000E+00 -0.74505805969E-08  0.93827000000E+00  0.93827000000E+00 0. -1.
     999902    2    1    2    0    0  0.10295113671E-01 -0.20359877483E-01  0.42440496560E-02  0.10207238384E+01  0.10204600082E+01 0.  0.
     999903    2    3    3    0    0 -0.31645028387E-01 -0.29457144644E-01  0.12286991639E+00  0.13172786993E+00  0.19649024666E-01 0.  0.
         14    1    1    2    0    0 -0.10295113671E-01  0.20359877483E-01 -0.42440496560E-02  0.23206161555E-01  0.00000000000E+00 0.  1.
     999901    1    3    3    0    0  0.41940142058E-01  0.90972671605E-02 -0.11862586673E+00  0.88899596852E+00  0.88000000000E+00 0. -1.
        -11    1    4    4    0    0 -0.22409644104E-01 -0.29596979651E-01  0.85186426724E-01  0.92925571143E-01  0.51100000000E-03 0. -1.
         11    1    4    4    0    0 -0.92353842829E-02  0.13983500754E-03  0.37683489662E-01  0.38802298783E-01  0.51100000000E-03 0.  1.
</event>
<event>
 8    1  0.1106168E+005  0.1043930E+01  0.7957747E-01            NaN
         13   -1    0    0    0    0  0.00000000000E+00  0.00000000000E+00  0.74505805969E-08  0.10566000000E+00  0.10566000000E+00 0.  1.
     999900   -1    0    0    0    0 -0.00000000000E+00 -0.00000000000E+00 -0.74505805969E-08  0.93827000000E+00  0.93827000000E+00 0.  1.
     999902    2    1    2    0    0 -0.18762721439E-01  0.14807242846E-01 -0.31362754839E-02  0.10198233540E+01  0.10195383970E+01 0.  0.
     999903    2    3    3    0    0  0.79675207572E-01 -0.94142426495E-01 -0.22200486606E-01  0.12745375544E+00  0.23252161253E-01 0.  0.
         14    1    1    2    0    0  0.18762721439E-01 -0.14807242846E-01  0.31362754839E-02  0.24106645981E-01  0.00000000000E+00 0.  1.
     999901    1    3    3    0    0 -0.98437929011E-01  0.10894966934E+00  0.19064211122E-01  0.89236959858E+00  0.88000000000E+00 0. -1.
        -11    1    4    4    0    0  0.54899669706E-01 -0.47495213952E-01 -0.15223638200E-01  0.74174047774E-01  0.51100000000E-03 0.  1.
         11    1    4    4    0    0  0.24775537866E-01 -0.46647212543E-01 -0.69768484057E-02  0.53279707669E-01  0.51100000000E-03 0. -1.
</event>
<event>
 8    1  0.1106168E+005  0.1043930E+01  0.7957747E-01            NaN
         13   -1    0    0    0    0  0.00000000000E+00  0.00000000000E+00  0.74505805969E-08  0.10566000000E+00  0.10566000000E+00 0.  1.
     999900   -1    0    0    0    0 -0.00000000000E+00 -0.00000000000E+00 -0.74505805969E-08  0.93827000000E+00  0.93827000000E+00 0.  1.
     999902    2    1    2    0    0  0.22308680505E-01 -0.38854674146E-02 -0.75421224540E-02  0.10200624971E+01  0.10197832320E+01 0.  0.
     999903    2    3    3    0    0 -0.11579778774E+00 -0.26254542529E-01 -0.43373171834E-01  0.12829030861E+00  0.21880187343E-01 0.  0.
         14    1    1    2    0    0 -0.22308680505E-01  0.38854674146E-02  0.75421224540E-02  0.23867502886E-01  0.00000000000E+00 0. -1.
     999901    1    3    3    0    0  0.13810646825E+00  0.22369075115E-01  0.35831049380E-01  0.89177218851E+00  0.88000000000E+00 0.  1.
        -11    1    4    4    0    0 -0.50205582911E-01 -0.14944723756E-01 -0.30102326863E-01  0.60418180436E-01  0.51100000000E-03 0.  1.
         11    1    4    4    0    0 -0.65592204832E-01 -0.11309818773E-01 -0.13270844971E-01  0.67872128173E-01  0.51100000000E-03 0. -1.
</event>
<event>
 8    1  0.1106168E+005  0.1043930E+01  0.7957747E-01            NaN
         13   -1    0    0    0    0  0.00000000000E+00  0.00000000000E+00  0.74505805969E-08  0.10566000000E+00  0.10566000000E+00 0.  1.
     999900   -1    0    0    0    0 -0.00000000000E+00 -0.00000000000E+00 -0.74505805969E-08  0.93827000000E+00  0.93827000000E+00 0.  1.
     999902    2    1    2    0    0 -0.16403587983E-01  0.15993843131E-01  0.53247789628E-02  0.10204090734E+01  0.10201379530E+01 0.  0.
     999903    2    3    3    0    0 -0.64539677346E-01  0.75513026561E-01 -0.85549044330E-01  0.13242390008E+00  0.18704630258E-01 0.  0.
         14    1    1    2    0    0  0.16403587983E-01 -0.15993843131E-01 -0.53247789628E-02  0.23520926594E-01  0.00000000000E+00 0.  1.
     999901    1    3    3    0    0  0.48136089362E-01 -0.59519183430E-01  0.90873823293E-01  0.88798517333E+00  0.88000000000E+00 0. -1.
        -11    1    4    4    0    0 -0.34007945996E-01  0.25634099741E-01 -0.35247604478E-01  0.55283833105E-01  0.51100000000E-03 0. -1.
         11    1    4    4    0    0 -0.30531731350E-01  0.49878926820E-01 -0.50301439852E-01  0.77140066970E-01  0.51100000000E-03 0.  1.
</event>
<event>
 8    1  0.1106168E+005  0.1043930E+01  0.7957747E-01            NaN
         13   -1    0    0    0    0  0.00000000000E+00  0.00000000000E+00  0.74505805969E-08  0.10566000000E+00  0.10566000000E+00 0. -1.
     999900   -1    0    0    0    0 -0.00000000000E+00 -0.00000000000E+00 -0.74505805969E-08  0.93827000000E+00  0.93827000000E+00 0. -1.
     999902    2    1    2    0    0 -0.49904945547E-02  0.20676957791E-02  0.23122644742E-01  0.10201847457E+01  0.10199083676E+01 0.  0.
     999903    2    3    3    0    0  0.11145470838E+00  0.29625908598E-01  0.59459227019E-01  0.13134320325E+00  0.20390950995E-01 0.  0.
         14    1    1    2    0    0  0.49904945547E-02 -0.20676957791E-02 -0.23122644742E-01  0.23745254297E-01  0.00000000000E+00 0.  1.
     999901    1    3    3    0    0 -0.11644520293E+00 -0.27558212819E-01 -0.36336582277E-01  0.88884154245E+00  0.88000000000E+00 0.  1.
        -11    1    4    4    0    0  0.65731603594E-01  0.22904088343E-01  0.45115166365E-01  0.82951071910E-01  0.51100000000E-03 0.  1.
         11    1    4    4    0    0  0.45723104783E-01  0.67218202545E-02  0.14344060655E-01  0.48392131340E-01  0.51100000000E-03 0. -1.
</event>
<event>
 8    1  0.1106168E+005  0.1043930E+01  0.7957747E-01            NaN
         13   -1    0    0    0    0  0.00000000000E+00  0.00000000000E+00  0.74505805969E-08  0.10566000000E+00  0.10566000000E+00 0.  1.
     999900   -1    0    0    0    0 -0.00000000000E+00 -0.00000000000E+00 -0.74505805969E-08  0.93827000000E+00  0.93827000000E+00 0. -1.
     999902    2    1    2    0    0 -0.79502499033E-02  0.11199777930E-01 -0.21113280441E-01  0.10187424612E+01  0.10184310434E+01 0.  0.
     999903    2    3    3    0    0 -0.11018500932E+00 -0.18570769577E-01  0.60270001708E-01  0.12859557999E+00  0.20463145567E-01 0.  0.
         14    1    1    2    0    0  0.79502499033E-02 -0.11199777930E-01  0.21113280441E-01  0.25187538788E-01  0.00000000000E+00 0.  1.
     999901    1    3    3    0    0  0.10223475942E+00  0.29770547507E-01 -0.81383282149E-01  0.89014688122E+00  0.88000000000E+00 0.  1.
        -11    1    4    4    0    0 -0.29520519018E-01 -0.11601247091E-01  0.98634878974E-02  0.33220467963E-01  0.51100000000E-03 0.  1.
         11    1    4    4    0    0 -0.80664490301E-01 -0.69695224854E-02  0.50406513811E-01  0.95375112030E-01  0.51100000000E-03 0. -1.
</event>
<event>
 8    1  0.1106168E+005  0.1043930E+01  0.7957747E-01            NaN
         13   -1    0    0    0    0  0.00000000000E+00  0.00000000000E+00  0.74505805969E-08  0.10566000000E+00  0.10566000000E+00 0. -1.
     999900   -1    0    0    0    0 -0.00000000000E+00 -0.00000000000E+00 -0.74505805969E-08  0.93827000000E+00  0.93827000000E+00 0. -1.
     999902    2    1    2    0    0  0.23962569065E-03 -0.11796672410E-01  0.20307460407E-01  0.10204435816E+01  0.10201732654E+01 0.  0.
     999903    2    3    3    0    0 -0.91390558594E-01  0.86707413254E-01  0.24872390500E-01  0.13020766673E+00  0.21563648869E-01 0.  0.
         14    1    1    2    0    0 -0.23962569065E-03  0.11796672410E-01 -0.20307460407E-01  0.23486418386E-01  0.00000000000E+00 0.  1.
     999901    1    3    3    0    0  0.91630184285E-01 -0.98504085664E-01 -0.45649300926E-02  0.89023591489E+00  0.88000000000E+00 0.  1.
        -11    1    4    4    0    0 -0.71721334742E-01  0.78272072314E-01  0.17692053838E-01  0.10762777082E+00  0.51100000000E-03 0. -1.
         11    1    4    4    0    0 -0.19669223852E-01  0.84353409395E-02  0.71803366618E-02  0.22579895910E-01  0.51100000000E-03 0.  1.
</event>
<event>
 8    1  0.1106168E+005  0.1043930E+01  0.7957747E-01            NaN
         13   -1    0    0    0    0  0.00000000000E+00  0.00000000000E+00  0.74505805969E-08  0.10566000000E+00  0.10566000000E+00 0.  1.
     999900   -1    0    0    0    0 -0.00000000000E+00 -0.00000000000E+00 -0.74505805969E-08  0.93827000000E+00  0.93827000000E+00 0.  1.
     999902    2    1    2    0    0 -0.11219856685E-01 -0.23927060304E-03  0.21072286668E-01  0.10200556686E+01  0.10197762418E+01 0.  0.
     999903    2    3    3    0    0  0.47321458401E-01 -0.80472865223E-01  0.90740977996E-01  0.13173239308E+00  0.20107109100E-01 0.  0.
         14    1    1    2    0    0  0.11219856685E-01  0.23927060304E-03 -0.21072286668E-01  0.23874331401E-01  0.00000000000E+00 0.  1.
     999901    1    3    3    0    0 -0.58541315086E-01  0.80233594620E-01 -0.69668691328E-01  0.88832327552E+00  0.88000000000E+00 0.  1.
        -11    1    4    4    0    0  0.15707338028E-01 -0.45540769634E-01  0.41576595345E-01  0.63636126283E-01  0.51100000000E-03 0. -1.
         11    1    4    4    0    0  0.31614120373E-01 -0.34932095590E-01  0.49164382650E-01  0.68096266797E-01  0.51100000000E-03 0.  1.
</event>
<event>
 8    1  0.1106168E+005  0.1043930E+01  0.7957747E-01            NaN
         13   -1    0    0    0    0  0.00000000000E+00  0.00000000000E+00  0.74505805969E-08  0.10566000000E+00  0.10566000000E+00 0.  1.
     999900   -1    0    0    0    0 -0.00000000000E+00 -0.00000000000E+00 -0.74505805969E-08  0.93827000000E+00  0.93827000000E+00 0.  1.
     999902    2    1    2    0    0 -0.11782988982E-01  0.19804605593E-01 -0.50426449776E-02  0.10203399703E+01  0.10200672358E+01 0.  0.
     999903    2    3    3    0    0  0.52297360285E-01  0.32985543687E-01  0.11264509794E+00  0.13009818680E+00  0.20336177948E-01 0.  0.
         14    1    1    2    0    0  0.11782988982E-01 -0.19804605593E-01  0.50426449776E-02  0.23590029682E-01  0.00000000000E+00 0.  1.
     999901    1    3    3    0    0 -0.64080349267E-01 -0.13180938095E-01 -0.11768774292E+00  0.89024178352E+00  0.88000000000E+00 0.  1.
        -11    1    4    4    0    0  0.15202021120E-01  0.19647055314E-01  0.53890171914E-01  0.59342396132E-01  0.51100000000E-03 0. -1.
         11    1    4    4    0    0  0.37095339164E-01  0.13338488373E-01  0.58754926024E-01  0.70755790667E-01  0.51100000000E-03 0.  1.
</event>
<event>
 8    1  0.1106168E+005  0.1043930E+01  0.7957747E-01            NaN
         13   -1    0    0    0    0  0.00000000000E+00  0.00000000000E+00  0.74505805969E-08  0.10566000000E+00  0.10566000000E+00 0. -1.
     999900   -1    0    0    0    0 -0.00000000000E+00 -0.00000000000E+00 -0.74505805969E-08  0.93827000000E+00  0.93827000000E+00 0. -1.
     999902    2    1    2    0    0 -0.25698046327E-01  0.37916214184E-02 -0.12601920928E-01  0.10150583116E+01  0.10146476244E+01 0.  0.
     999903    2    3    3    0    0 -0.11720759179E+00  0.49506406259E-02  0.47575986702E-01  0.12826818945E+00  0.20667014772E-01 0.  0.
         14    1    1    2    0    0  0.25698046327E-01 -0.37916214184E-02  0.12601920928E-01  0.28871688366E-01  0.00000000000E+00 0. -1.
     999901    1    3    3    0    0  0.91509545458E-01 -0.11590192075E-02 -0.60177907631E-01  0.88679012218E+00  0.88000000000E+00 0. -1.
        -11    1    4    4    0    0 -0.27911912809E-01  0.25953767310E-03  0.21150664144E-01  0.35025047483E-01  0.51100000000E-03 0. -1.
         11    1    4    4    0    0 -0.89295678976E-01  0.46911029528E-02  0.26425322559E-01  0.93243141968E-01  0.51100000000E-03 0.  1.
</event>
<event>
 8    1  0.1106168E+005  0.1043930E+01  0.7957747E-01            NaN
         13   -1    0    0    0    0  0.00000000000E+00  0.00000000000E+00  0.74505805969E-08  0.10566000000E+00  0.10566000000E+00 0. -1.
     999900   -1    0    0    0    0 -0.00000000000E+00 -0.00000000000E+00 -0.74505805969E-08  0.93827000000E+00  0.93827000000E+00 0.  1.
     999902    2    1    2    0    0 -0.12170442275E-01  0.11248918075E-01 -0.16879143704E-01  0.10202749093E+01  0.10200006506E+01 0.  0.
     999903    2    3    3    0    0 -0.65562601047E-01 -0.88073700932E-02  0.10942529060E+00  0.12942936297E+00  0.20050968865E-01 0.  0.
         14    1    1    2    0    0  0.12170442275E-01 -0.11248918075E-01  0.16879143704E-01  0.23655090683E-01  0.00000000000E+00 0. -1.
     999901    1    3    3    0    0  0.53392158773E-01  0.20056288168E-01 -0.12630443431E+00  0.89084554634E+00  0.88000000000E+00 0.  1.
        -11    1    4    4    0    0 -0.64544057012E-02 -0.75833729431E-02  0.17145109503E-01  0.19833880080E-01  0.51100000000E-03 0. -1.
         11    1    4    4    0    0 -0.59108195346E-01 -0.12239971501E-02  0.92280181100E-01  0.10959548289E+00  0.51100000000E-03 0.  1.
</event>
<event>
 8    1  0.1106168E+005  0.1043930E+01  0.7957747E-01            NaN
         13   -1    0    0    0    0  0.00000000000E+00  0.00000000000E+00  0.74505805969E-08  0.10566000000E+00  0.10566000000E+00 0. -1.
     999900   -1    0    0    0    0 -0.00000000000E+00 -0.00000000000E+00 -0.74505805969E-08  0.93827000000E+00  0.93827000000E+00 0.  1.
     999902    2    1    2    0    0  0.12237598583E-01  0.14618901353E-01 -0.15787686716E-01  0.10191767750E+01  0.10188761341E+01 0.  0.
     999903    2    3    3    0    0  0.26238096413E-01  0.12543524783E+00  0.21420143237E-01  0.13133630555E+00  0.19182375180E-01 0.  0.
         14    1    1    2    0    0 -0.12237598583E-01 -0.14618901353E-01  0.15787686716E-01  0.24753224995E-01  0.00000000000E+00 0.  1.
     999901    1    3    3    0    0 -0.14000497830E-01 -0.11081634648E+00 -0.37207829953E-01  0.88784046945E+00  0.88000000000E+00 0.  1.
        -11    1    4    4    0    0  0.23784923232E-02  0.29842958417E-01 -0.21857259484E-02  0.30021624069E-01  0.51100000000E-03 0.  1.
         11    1    4    4    0    0  0.23859604090E-01  0.95592289416E-01  0.23605869186E-01  0.10131468148E+00  0.51100000000E-03 0. -1.
</event>
<event>
 8    1  0.1106168E+005  0.1043930E+01  0.7957747E-01            NaN
         13   -1    0    0    0    0  0.00000000000E+00  0.00000000000E+00  0.74505805969E-08  0.10566000000E+00  0.10566000000E+00 0.  1.
     999900   -1    0    0    0    0 -0.00000000000E+00 -0.00000000000E+00 -0.74505805969E-08  0.93827000000E+00  0.93827000000E+00 0. -1.
     999902    2    1    2    0    0 -0.12685456070E-01 -0.21125311544E-02  0.19904683200E-01  0.10202323209E+01  0.10199570621E+01 0.  0.
     999903    2    3    3    0    0 -0.71704946661E-01  0.66859018184E-01 -0.82164153489E-01  0.12969404413E+00  0.21397880175E-01 0.  0.
         14    1    1    2    0    0  0.12685456070E-01  0.21125311544E-02 -0.19904683200E-01  0.23697679146E-01  0.00000000000E+00 0. -1.
     999901    1    3    3    0    0  0.59019490591E-01 -0.68971549338E-01  0.10206883669E+00  0.89053827672E+00  0.88000000000E+00 0. -1.
        -11    1    4    4    0    0 -0.70775878096E-01  0.59826878897E-01 -0.72341111349E-01  0.11756690806E+00  0.51100000000E-03 0. -1.
         11    1    4    4    0    0 -0.92906856524E-03  0.70321392864E-02 -0.98230421401E-02  0.12127136069E-01  0.51100000000E-03 0.  1.
</event>
<event>
 8    1  0.1106168E+005  0.1043930E+01  0.7957747E-01            NaN
         13   -1    0    0    0    0  0.00000000000E+00  0.00000000000E+00  0.74505805969E-08  0.10566000000E+00  0.10566000000E+00 0.  1.
     999900   -1    0    0    0    0 -0.00000000000E+00 -0.00000000000E+00 -0.74505805969E-08  0.93827000000E+00  0.93827000000E+00 0. -1.
     999902    2    1    2    0    0  0.12227330688E-01  0.19128868939E-01  0.10195846962E-02  0.10212042262E+01  0.10209513264E+01 0.  0.
     999903    2    3    3    0    0 -0.12083127419E+00  0.16073480279E-01 -0.40796063034E-01  0.13021462123E+00  0.20808056909E-01 0.  0.
         14    1    1    2    0    0 -0.12227330688E-01 -0.19128868939E-01 -0.10195846962E-02  0.22725773817E-01  0.00000000000E+00 0.  1.
     999901    1    3    3    0    0  0.13305860488E+00  0.30553886601E-02  0.41815647730E-01  0.89098960495E+00  0.88000000000E+00 0.  1.
        -11    1    4    4    0    0 -0.59801186486E-01 -0.22063337948E-02 -0.17093338116E-01  0.62237393445E-01  0.51100000000E-03 0.  1.
         11    1    4    4    0    0 -0.61030087708E-01  0.18279814074E-01 -0.23702724918E-01  0.67977227788E-01  0.51100000000E-03 0. -1.
</event>
<event>
 8    1  0.1106168E+005  0.1043930E+01  0.7957747E-01            NaN
         13   -1    0    0    0    0  0.00000000000E+00  0.00000000000E+00  0.74505805969E-08  0.10566000000E+00  0.10566000000E+00 0.  1.
     999900   -1    0    0    0    0 -0.00000000000E+00 -0.00000000000E+00 -0.74505805969E-08  0.93827000000E+00  0.93827000000E+00 0. -1.
     999902    2    1    2    0    0 -0.16934981630E-01 -0.95759392788E-02 -0.13778390463E-01  0.10200901959E+01  0.10198115863E+01 0.  0.
     999903    2    3    3    0    0 -0.29424148455E-01  0.83270155824E-01 -0.95114200072E-01  0.13138783257E+00  0.20404708480E-01 0.  0.
         14    1    1    2    0    0  0.16934981630E-01  0.95759392788E-02  0.13778390463E-01  0.23839804102E-01  0.00000000000E+00 0.  1.
     999901    1    3    3    0    0  0.12489166825E-01 -0.92846095103E-01  0.81335809609E-01  0.88870236333E+00  0.88000000000E+00 0.  1.
        -11    1    4    4    0    0 -0.13184763898E-01  0.16413032195E-01 -0.30034601655E-01  0.36681930735E-01  0.51100000000E-03 0.  1.
         11    1    4    4    0    0 -0.16239384557E-01  0.66857123629E-01 -0.65079598417E-01  0.94705901833E-01  0.51100000000E-03 0. -1.
</event>
<event>
 8    1  0.1106168E+005  0.1043930E+01  0.7957747E-01            NaN
         13   -1    0    0    0    0  0.00000000000E+00  0.00000000000E+00  0.74505805969E-08  0.10566000000E+00  0.10566000000E+00 0.  1.
     999900   -1    0    0    0    0 -0.00000000000E+00 -0.00000000000E+00 -0.74505805969E-08  0.93827000000E+00  0.93827000000E+00 0.  1.
     999902    2    1    2    0    0  0.16804207013E-01  0.13715644598E-01  0.81489685785E-02  0.10207587685E+01  0.10204957411E+01 0.  0.
     999903    2    3    3    0    0 -0.11993722072E+00  0.17650400060E-01  0.41508457962E-01  0.12956487496E+00  0.19173711263E-01 0.  0.
         14    1    1    2    0    0 -0.16804207013E-01 -0.13715644598E-01 -0.81489685785E-02  0.23171231495E-01  0.00000000000E+00 0. -1.
     999901    1    3    3    0    0  0.13674142774E+00 -0.39347554614E-02 -0.33359489383E-01  0.89119389355E+00  0.88000000000E+00 0.  1.
        -11    1    4    4    0    0 -0.61109627370E-01  0.10145841677E-01  0.11163997756E-01  0.62946172461E-01  0.51100000000E-03 0. -1.
         11    1    4    4    0    0 -0.58827593355E-01  0.75045583824E-02  0.30344460206E-01  0.66618702499E-01  0.51100000000E-03 0.  1.
</event>
<event>
 8    1  0.1106168E+005  0.1043930E+01  0.7957747E-01            NaN
         13   -1    0    0    0    0  0.00000000000E+00  0.00000000000E+00  0.74505805969E-08  0.10566000000E+00  0.10566000000E+00 0.  1.
     999900   -1    0    0    0    0 -0.00000000000E+00 -0.00000000000E+00 -0.74505805969E-08  0.93827000000E+00  0.93827000000E+00 0. -1.
     999902    2    1    2    0    0 -0.80945728211E-02 -0.10490683500E-01 -0.18731235848E-01  0.10209858124E+01  0.10207279722E+01 0.  0.
     999903    2    3    3    0    0  0.81166738315E-01  0.53904210632E-01  0.81182683441E-01  0.12851896407E+00  0.20803670396E-01 0.  0.
         14    1    1    2    0    0  0.80945728211E-02  0.10490683500E-01  0.18731235848E-01  0.22944187627E-01  0.00000000000E+00 0.  1.
     999901    1    3    3    0    0 -0.89261311136E-01 -0.64394894132E-01 -0.99913919289E-01  0.89246684831E+00  0.88000000000E+00 0. -1.
        -11    1    4    4    0    0  0.64862632541E-01  0.46458311314E-01  0.75136107829E-01  0.10959576457E+00  0.51100000000E-03 0.  1.
         11    1    4    4    0    0  0.16304105774E-01  0.74458993178E-02  0.60465756123E-02  0.18923199501E-01  0.51100000000E-03 0. -1.
</event>
<event>
 8    1  0.1106168E+005  0.1043930E+01  0.7957747E-01            NaN
         13   -1    0    0    0    0  0.00000000000E+00  0.00000000000E+00  0.74505805969E-08  0.10566000000E+00  0.10566000000E+00 0. -1.
     999900   -1    0    0    0    0 -0.00000000000E+00 -0.00000000000E+00 -0.74505805969E-08  0.93827000000E+00  0.93827000000E+00 0. -1.
     999902    2    1    2    0    0  0.15572469885E-01 -0.60570013317E-02  0.16425183152E-01  0.10204997690E+01  0.10202307596E+01 0.  0.
     999903    2    3    3    0    0  0.74512488276E-01  0.22928805385E-01  0.10637178435E+00  0.13347976143E+00  0.20592454404E-01 0.  0.
         14    1    1    2    0    0 -0.15572469885E-01  0.60570013317E-02 -0.16425183152E-01  0.23430231007E-01  0.00000000000E+00 0.  1.
     999901    1    3    3    0    0 -0.58940018391E-01 -0.28985806717E-01 -0.89946601200E-01  0.88702000757E+00  0.88000000000E+00 0. -1.
        -11    1    4    4    0    0  0.14670742082E-01  0.13699140748E-01  0.27067535933E-01  0.33701776703E-01  0.51100000000E-03 0.  1.
         11    1    4    4    0    0  0.59841746193E-01  0.92296646376E-02  0.79304248420E-01  0.99777984722E-01  0.51100000000E-03 0. -1.
</event>
<event>
 8    1  0.1106168E+005  0.1043930E+01  0.7957747E-01            NaN
         13   -1    0    0    0    0  0.00000000000E+00  0.00000000000E+00  0.74505805969E-08  0.10566000000E+00  0.10566000000E+00 0.  1.
     999900   -1    0    0    0    0 -0.00000000000E+00 -0.00000000000E+00 -0.74505805969E-08  0.93827000000E+00  0.93827000000E+00 0.  1.
     999902    2    1    2    0    0  0.22140924778E-02  0.36687521976E-02  0.30623360039E-01  0.10130082903E+01  0.10125362434E+01 0.  0.
     999903    2    3    3    0    0  0.11446159079E+00 -0.37779107871E-01 -0.18921197402E-01  0.12352974133E+00  0.19309803793E-01 0.  0.
         14    1    1    2    0    0 -0.22140924778E-02 -0.36687521976E-02 -0.30623360039E-01  0.30921709659E-01  0.00000000000E+00 0. -1.
     999901    1    3    3    0    0 -0.11224749832E+00  0.41447860069E-01  0.49544557441E-01  0.88947854901E+00  0.88000000000E+00 0.  1.
        -11    1    4    4    0    0  0.14665293665E-01 -0.11949728979E-01 -0.15179256707E-02  0.18985048862E-01  0.51100000000E-03 0. -1.
         11    1    4    4    0    0  0.99796297130E-01 -0.25829378892E-01 -0.17403271731E-01  0.10454469247E+00  0.51100000000E-03 0.  1.
</event>
<event>
 8    1  0.1106168E+005  0.1043930E+01  0.7957747E-01            NaN
         13   -1    0    0    0    0  0.00000000000E+00  0.00000000000E+00  0.74505805969E-08  0.10566000000E+00  0.10566000000E+00 0.  1.
     999900   -1    0    0    0    0 -0.00000000000E+00 -0.00000000000E+00 -0.74505805969E-08  0.93827000000E+00  0.93827000000E+00 0.  1.
     999902    2    1    2    0    0 -0.22034482150E-01 -0.43506219622E-02 -0.58522440413E-02  0.10207201944E+01  0.10204562804E+01 0.  0.
     999903    2    3    3    0    0  0.27950044686E-01  0.18715232175E-01 -0.12499343573E+00  0.13098702649E+00  0.20069310382E-01 0.  0.
         14    1    1    2    0    0  0.22034482150E-01  0.43506219622E-02  0.58522440413E-02  0.23209805587E-01  0.00000000000E+00 0.  1.
     999901    1    3    3    0    0 -0.49984526835E-01 -0.23065854137E-01  0.11914119169E+00  0.88973316793E+00  0.88000000000E+00 0.  1.
        -11    1    4    4    0    0  0.24642601397E-01  0.68740177700E-02 -0.98597780944E-01  0.10186409305E+00  0.51100000000E-03 0. -1.
         11    1    4    4    0    0  0.33074432885E-02  0.11841214405E-01 -0.26395654785E-01  0.29122933442E-01  0.51100000000E-03 0.  1.
</event>
<event>
 8    1  0.1106168E+005  0.1043930E+01  0.7957747E-01            NaN
         13   -1    0    0    0    0  0.00000000000E+00  0.00000000000E+00  0.74505805969E-08  0.10566000000E+00  0.10566000000E+00 0.  1.
     999900   -1    0    0    0    0 -0.00000000000E+00 -0.00000000000E+00 -0.74505805969E-08  0.93827000000E+00  0.93827000000E+00 0. -1.
     999902    2    1    2    0    0 -0.11900660665E-01 -0.14098354563E-01  0.12793819198E-01  0.10214784714E+01  0.10212317056E+01 0.  0.
     999903    2    3    3    0    0 -0.65548838143E-01  0.83498301094E-02 -0.11103833031E+00  0.13090761563E+00  0.20998171032E-01 0.  0.
         14    1    1    2    0    0  0.11900660665E-01  0.14098354563E-01 -0.12793819198E-01  0.22451528574E-01  0.00000000000E+00 0. -1.
     999901    1    3    3    0    0  0.53648177478E-01 -0.22448184673E-01  0.12383214951E+00  0.89057085580E+00  0.88000000000E+00 0.  1.
        -11    1    4    4    0    0 -0.38128214079E-01  0.87679265715E-02 -0.46427415169E-01  0.60715757802E-01  0.51100000000E-03 0. -1.
         11    1    4    4    0    0 -0.27420624064E-01 -0.41809646208E-03 -0.64610915142E-01  0.70191857827E-01  0.51100000000E-03 0.  1.
</event>
<event>
 8    1  0.1106168E+005  0.1043930E+01  0.7957747E-01            NaN
         13   -1    0    0    0    0  0.00000000000E+00  0.00000000000E+00  0.74505805969E-08  0.10566000000E+00  0.10566000000E+00 0. -1.
     999900   -1    0    0    0    0 -0.00000000000E+00 -0.00000000000E+00 -0.74505805969E-08  0.93827000000E+00  0.93827000000E+00 0. -1.
     999902    2    1    2    0    0 -0.49093105572E-02 -0.16636746954E-01 -0.17652158740E-02  0.10264944425E+01  0.10263463556E+01 0.  0.
     999903    2    3    3    0    0 -0.82267991870E-01 -0.79418056496E-01  0.74707735799E-01  0.13757713994E+00  0.16461271556E-01 0.  0.
         14    1    1    2    0    0  0.49093105572E-02  0.16636746954E-01  0.17652158740E-02  0.17435557532E-01  0.00000000000E+00 0.  1.
     999901    1    3    3    0    0  0.77358681312E-01  0.62781309541E-01 -0.76472951673E-01  0.88891730253E+00  0.88000000000E+00 0. -1.
        -11    1    4    4    0    0 -0.48148686203E-01 -0.36014195121E-01  0.42828525176E-01  0.73823180120E-01  0.51100000000E-03 0.  1.
         11    1    4    4    0    0 -0.34119305666E-01 -0.43403861375E-01  0.31879210623E-01  0.63753959817E-01  0.51100000000E-03 0. -1.
</event>
<event>
 8    1  0.1106168E+005  0.1043930E+01  0.7957747E-01            NaN
         13   -1    0    0    0    0  0.00000000000E+00  0.00000000000E+00  0.74505805969E-08  0.10566000000E+00  0.10566000000E+00 0.  1.
     999900   -1    0    0    0    0 -0.00000000000E+00 -0.00000000000E+00 -0.74505805969E-08  0.93827000000E+00  0.93827000000E+00 0.  1.
     999902    2    1    2    0    0 -0.10538403945E-01  0.32351670670E-02  0.21692736770E-01  0.10195969136E+01  0.10193065129E+01 0.  0.
     999903    2    3    3    0    0 -0.65904741856E-02  0.19301343251E-01 -0.12427773064E+00  0.12741919281E+00  0.19357690000E-01 0.  0.
         14    1    1    2    0    0  0.10538403945E-01 -0.32351670670E-02 -0.21692736770E-01  0.24333086369E-01  0.00000000000E+00 0. -1.
     999901    1    3    3    0    0 -0.39479297592E-02 -0.16066176184E-01  0.14597046741E+00  0.89217772082E+00  0.88000000000E+00 0. -1.
        -11    1    4    4    0    0 -0.11831798120E-01  0.10917230148E-01 -0.51200001243E-01  0.53673816793E-01  0.51100000000E-03 0.  1.
         11    1    4    4    0    0  0.52413239341E-02  0.83841131035E-02 -0.73077729400E-01  0.73745376021E-01  0.51100000000E-03 0. -1.
</event>
<event>
 8    1  0.1106168E+005  0.1043930E+01  0.7957747E-01            NaN
         13   -1    0    0    0    0  0.00000000000E+00  0.00000000000E+00  0.74505805969E-08  0.10566000000E+00  0.10566000000E+00 0. -1.
     999900   -1    0    0    0    0 -0.00000000000E+00 -0.00000000000E+00 -0.74505805969E-08  0.93827000000E+00  0.93827000000E+00 0.  1.
     999902    2    1    2    0    0 -0.12739478340E-01 -0.13498777729E-01 -0.14670959359E-01  0.10202709984E+01  0.10199966479E+01 0.  0.
     999903    2    3    3    0    0  0.79104943934E-01 -0.76288368185E-01 -0.70461554698E-01  0.13151314549E+00  0.15917583684E-01 0.  0.
         14    1    1    2    0    0  0.12739478340E-01  0.13498777729E-01  0.14670959359E-01  0.23659001607E-01  0.00000000000E+00 0. -1.
     999901    1    3    3    0    0 -0.91844422274E-01  0.62789590456E-01  0.55790595339E-01  0.88875785291E+00  0.88000000000E+00 0. -1.
        -11    1    4    4    0    0  0.43898582271E-01 -0.31474280338E-01 -0.32649302517E-01  0.63118570358E-01  0.51100000000E-03 0. -1.
         11    1    4    4    0    0  0.35206361664E-01 -0.44814087847E-01 -0.37812252180E-01  0.68394575129E-01  0.51100000000E-03 0.  1.
</event>
<event>
 8    1  0.1106168E+005  0.1043930E+01  0.7957747E-01            NaN
         13   -1    0    0    0    0  0.00000000000E+00  0.00000000000E+00  0.74505805969E-08  0.10566000000E+00  0.10566000000E+00 0.  1.
     999900   -1    0    0    0    0 -0.00000000000E+00 -0.00000000000E+00 -0.74505805969E-08  0.93827000000E+00  0.93827000000E+00 0. -1.
     999902    2    1    2    0    0  0.22851788382E-01 -0.49194721406E-02 -0.89110393631E-03  0.10205377042E+01  0.10202695752E+01 0.  0.
     999903    2    3    3    0    0 -0.57025696099E-02  0.61679186805E-01  0.11297663001E+00  0.13024753036E+00  0.19075084558E-01 0.  0.
         14    1    1    2    0    0 -0.22851788382E-01  0.49194721406E-02  0.89110393631E-03  0.23392295839E-01  0.00000000000E+00 0. -1.
     999901    1    3    3    0    0  0.28554357992E-01 -0.66598658945E-01 -0.11386773395E+00  0.89029017380E+00  0.88000000000E+00 0. -1.
        -11    1    4    4    0    0  0.33792102871E-02  0.34622171021E-01  0.75568168401E-01  0.83192084869E-01  0.51100000000E-03 0.  1.
         11    1    4    4    0    0 -0.90817798970E-02  0.27057015784E-01  0.37408461610E-01  0.47055445490E-01  0.51100000000E-03 0. -1.
</event>
<event>
 8    1  0.1106168E+005  0.1043930E+01  0.7957747E-01            NaN
         13   -1    0    0    0    0  0.00000000000E+00  0.00000000000E+00  0.74505805969E-08  0.10566000000E+00  0.10566000000E+00 0.  1.
     999900   -1    0    0    0    0 -0.00000000000E+00 -0.00000000000E+00 -0.74505805969E-08  0.93827000000E+00  0.93827000000E+00 0.  1.
     999902    2    1    2    0    0 -0.13008689322E-02  0.19146882013E-01  0.12843408648E-01  0.10208378261E+01  0.10205766109E+01 0.  0.
     999903    2    3    3    0    0  0.11022336895E+00  0.73737258397E-03 -0.66107640140E-01  0.13010226836E+00  0.20165449853E-01 0.  0.
         14    1    1    2    0    0  0.13008689322E-02 -0.19146882013E-01 -0.12843408648E-01  0.23092173924E-01  0.00000000000E+00 0. -1.
     999901    1    3    3    0    0 -0.11152423788E+00  0.18409509429E-01  0.78951048789E-01  0.89073555771E+00  0.88000000000E+00 0. -1.
        -11    1    4    4    0    0  0.56178626978E-01 -0.87167182717E-02 -0.28617329472E-01  0.63649288870E-01  0.51100000000E-03 0.  1.
         11    1    4    4    0    0  0.54044741969E-01  0.94540908557E-02 -0.37490310668E-01  0.66452979492E-01  0.51100000000E-03 0. -1.
</event>
<event>
 8    1  0.1106168E+005  0.1043930E+01  0.7957747E-01            NaN
         13   -1    0    0    0    0  0.00000000000E+00  0.00000000000E+00  0.74505805969E-08  0.10566000000E+00  0.10566000000E+00 0.  1.
     999900   -1    0    0    0    0 -0.00000000000E+00 -0.00000000000E+00 -0.74505805969E-08  0.93827000000E+00  0.93827000000E+00 0. -1.
     999902    2    1    2    0    0  0.18703472520E-01 -0.12859336735E-01  0.73552680989E-02  0.10200703606E+01  0.10197912816E+01 0.  0.
     999903    2    3    3    0    0 -0.84898230237E-01  0.21603689512E-01  0.92885069767E-01  0.12920765510E+00  0.19812951674E-01 0.  0.
         14    1    1    2    0    0 -0.18703472520E-01  0.12859336735E-01 -0.73552680989E-02  0.23859639444E-01  0.00000000000E+00 0. -1.
     999901    1    3    3    0    0  0.10360170276E+00 -0.34463026247E-01 -0.85529801668E-01  0.89086270545E+00  0.88000000000E+00 0.  1.
        -11    1    4    4    0    0 -0.25604863154E-01  0.12825360519E-01  0.40477672515E-01  0.49586308421E-01  0.51100000000E-03 0.  1.
         11    1    4    4    0    0 -0.59293367083E-01  0.87783289928E-02  0.52407397251E-01  0.79621346683E-01  0.51100000000E-03 0. -1.
</event>
<event>
 8    1  0.1106168E+005  0.1043930E+01  0.7957747E-01            NaN
         13   -1    0    0    0    0  0.00000000000E+00  0.00000000000E+00  0.74505805969E-08  0.10566000000E+00  0.10566000000E+00 0.  1.
     999900   -1    0    0    0    0 -0.00000000000E+00 -0.00000000000E+00 -0.74505805969E-08  0.93827000000E+00  0.93827000000E+00 0. -1.
     999902    2    1    2    0    0 -0.14357687312E-02  0.18724515239E-01  0.15246313983E-01  0.10197407670E+01  0.10194538307E+01 0.  0.
     999903    2    3    3    0    0  0.68694522274E-01  0.52647479232E-01 -0.94329209219E-01  0.12952965694E+00  0.19729111855E-01 0.  0.
         14    1    1    2    0    0  0.14357687312E-02 -0.18724515239E-01 -0.15246313983E-01  0.24189232995E-01  0.00000000000E+00 0. -1.
     999901    1    3    3    0    0 -0.70130291005E-01 -0.33922963992E-01  0.10957552320E+00  0.89021111007E+00  0.88000000000E+00 0.  1.
        -11    1    4    4    0    0  0.37922226491E-01  0.30095233751E-01 -0.66709390618E-01  0.82427072459E-01  0.51100000000E-03 0. -1.
         11    1    4    4    0    0  0.30772295784E-01  0.22552245481E-01 -0.27619818601E-01  0.47102584479E-01  0.51100000000E-03 0.  1.
</event>
<event>
 8    1  0.1106168E+005  0.1043930E+01  0.7957747E-01            NaN
         13   -1    0    0    0    0  0.00000000000E+00  0.00000000000E+00  0.74505805969E-08  0.10566000000E+00  0.10566000000E+00 0. -1.
     999900   -1    0    0    0    0 -0.00000000000E+00 -0.00000000000E+00 -0.74505805969E-08  0.93827000000E+00  0.93827000000E+00 0. -1.
     999902    2    1    2    0    0 -0.10073359020E-01  0.21123920521E-01 -0.10105521375E-02  0.10205053592E+01  0.10202364796E+01 0.  0.
     999903    2    3    3    0    0  0.90915529591E-02  0.87164151362E-01  0.97030369013E-01  0.13239465206E+00  0.20813595716E-01 0.  0.
         14    1    1    2    0    0  0.10073359020E-01 -0.21123920521E-01  0.10105521375E-02  0.23424640782E-01  0.00000000000E+00 0. -1.
     999901    1    3    3    0    0 -0.19164911979E-01 -0.66040230841E-01 -0.98040921151E-01  0.88811070715E+00  0.88000000000E+00 0. -1.
        -11    1    4    4    0    0 -0.44768171301E-02  0.47003576393E-01  0.44415451184E-01  0.64825701001E-01  0.51100000000E-03 0. -1.
         11    1    4    4    0    0  0.13568370089E-01  0.40160574968E-01  0.52614917829E-01  0.67568951064E-01  0.51100000000E-03 0.  1.
</event>
<event>
 8    1  0.1106168E+005  0.1043930E+01  0.7957747E-01            NaN
         13   -1    0    0    0    0  0.00000000000E+00  0.00000000000E+00  0.74505805969E-08  0.10566000000E+00  0.10566000000E+00 0. -1.
     999900   -1    0    0    0    0 -0.00000000000E+00 -0.00000000000E+00 -0.74505805969E-08  0.93827000000E+00  0.93827000000E+00 0.  1.
     999902    2    1    2    0    0 -0.19040438287E-01  0.41164272389E-02  0.12607503536E-01  0.10207258536E+01  0.10204620698E+01 0.  0.
     999903    2    3    3    0    0  0.15612469878E-01 -0.12355925584E-01  0.12924346277E+00  0.13220117224E+00  0.19412860680E-01 0.  0.
         14    1    1    2    0    0  0.19040438287E-01 -0.41164272389E-02 -0.12607503536E-01  0.23204146370E-01  0.00000000000E+00 0.  1.
     999901    1    3    3    0    0 -0.34652908165E-01  0.16472352823E-01 -0.11663595924E+00  0.88852468139E+00  0.88000000000E+00 0.  1.
        -11    1    4    4    0    0  0.79164536506E-03  0.33538492330E-03  0.66147670328E-01  0.66155231058E-01  0.51100000000E-03 0. -1.
         11    1    4    4    0    0  0.14820824513E-01 -0.12691310507E-01  0.63095792443E-01  0.66045941183E-01  0.51100000000E-03 0.  1.
</event>
<event>
 8    1  0.1106168E+005  0.1043930E+01  0.7957747E-01            NaN
         13   -1    0    0    0    0  0.00000000000E+00  0.00000000000E+00  0.74505805969E-08  0.10566000000E+00  0.10566000000E+00 0.  1.
     999900   -1    0    0    0    0 -0.00000000000E+00 -0.00000000000E+00 -0.74505805969E-08  0.93827000000E+00  0.93827000000E+00 0. -1.
     999902    2    1    2    0    0  0.37395510733E-03  0.50920549161E-02  0.23634971806E-01  0.10197498272E+01  0.10194631083E+01 0.  0.
     999903    2    3    3    0    0 -0.51294825822E-01  0.51318011638E-01  0.10947546871E+00  0.13285913892E+00  0.20049315994E-01 0.  0.
         14    1    1    2    0    0 -0.37395510733E-03 -0.50920549161E-02 -0.23634971806E-01  0.24180172828E-01  0.00000000000E+00 0. -1.
     999901    1    3    3    0    0  0.51668780929E-01 -0.46225956722E-01 -0.85840496901E-01  0.88689068825E+00  0.88000000000E+00 0. -1.
        -11    1    4    4    0    0 -0.23980987263E-01  0.37848191593E-01  0.64131440913E-01  0.78234750537E-01  0.51100000000E-03 0.  1.
         11    1    4    4    0    0 -0.27313838558E-01  0.13469820045E-01  0.45344027794E-01  0.54624388385E-01  0.51100000000E-03 0. -1.
</event>
<event>
 8    1  0.1106168E+005  0.1043930E+01  0.7957747E-01            NaN
         13   -1    0    0    0    0  0.00000000000E+00  0.00000000000E+00  0.74505805969E-08  0.10566000000E+00  0.10566000000E+00 0. -1.
     999900   -1    0    0    0    0 -0.00000000000E+00 -0.00000000000E+00 -0.74505805969E-08  0.93827000000E+00  0.93827000000E+00 0. -1.
     999902    2    1    2    0    0  0.21367588955E-02  0.55246415117E-03 -0.23588866003E-01  0.10202381121E+01  0.10199629894E+01 0.  0.
     999903    2    3    3    0    0  0.10311566054E+00 -0.13570054551E-01 -0.79853235609E-01  0.13256595219E+00  0.19498887502E-01 0.  0.
         14    1    1    2    0    0 -0.21367588955E-02 -0.55246415117E-03  0.23588866003E-01  0.23691887947E-01  0.00000000000E+00 0. -1.
     999901    1    3    3    0    0 -0.10097890164E+00  0.14122518702E-01  0.56264369606E-01  0.88767215986E+00  0.88000000000E+00 0.  1.
        -11    1    4    4    0    0  0.44696536619E-01  0.36836501399E-02 -0.31855849375E-01  0.55012779647E-01  0.51100000000E-03 0.  1.
         11    1    4    4    0    0  0.58419123918E-01 -0.17253704691E-01 -0.47997386234E-01  0.77553172541E-01  0.51100000000E-03 0. -1.
</event>
<event>
 8    1  0.1106168E+005  0.1043930E+01  0.7957747E-01            NaN
         13   -1    0    0    0    0  0.00000000000E+00  0.00000000000E+00  0.74505805969E-08  0.10566000000E+00  0.10566000000E+00 0.  1.
     999900   -1    0    0    0    0 -0.00000000000E+00 -0.00000000000E+00 -0.74505805969E-08  0.93827000000E+00  0.93827000000E+00 0. -1.
     999902    2    1    2    0    0  0.11355784047E-01  0.13515564700E-01  0.15860571140E-01  0.10201985433E+01  0.10199224900E+01 0.  0.
     999903    2    3    3    0    0 -0.12677910060E+00  0.90286833565E-02 -0.98446190382E-02  0.12904079336E+00  0.20003808527E-01 0.  0.
         14    1    1    2    0    0 -0.11355784047E-01 -0.13515564700E-01 -0.15860571140E-01  0.23731456705E-01  0.00000000000E+00 0. -1.
     999901    1    3    3    0    0  0.13813488465E+00  0.44868813439E-02  0.25705190178E-01  0.89115774993E+00  0.88000000000E+00 0. -1.
        -11    1    4    4    0    0 -0.97525505690E-01  0.11691305442E-02 -0.13736857767E-01  0.98496464448E-01  0.51100000000E-03 0.  1.
         11    1    4    4    0    0 -0.29253594910E-01  0.78595528123E-02  0.38922387291E-02  0.30544328915E-01  0.51100000000E-03 0. -1.
</event>
<event>
 8    1  0.1106168E+005  0.1043930E+01  0.7957747E-01            NaN
         13   -1    0    0    0    0  0.00000000000E+00  0.00000000000E+00  0.74505805969E-08  0.10566000000E+00  0.10566000000E+00 0.  1.
     999900   -1    0    0    0    0 -0.00000000000E+00 -0.00000000000E+00 -0.74505805969E-08  0.93827000000E+00  0.93827000000E+00 0. -1.
     999902    2    1    2    0    0  0.17025757835E-01  0.84018851019E-02  0.13928476363E-01  0.10203828015E+01  0.10201110680E+01 0.  0.
     999903    2    3    3    0    0  0.12801415849E+00 -0.16938980763E-01  0.25042376586E-01  0.13297979084E+00  0.19543548915E-01 0.  0.
         14    1    1    2    0    0 -0.17025757835E-01 -0.84018851019E-02 -0.13928476363E-01  0.23547198494E-01  0.00000000000E+00 0. -1.
     999901    1    3    3    0    0 -0.11098840065E+00  0.25340865865E-01 -0.11113900223E-01  0.88740301067E+00  0.88000000000E+00 0. -1.
        -11    1    4    4    0    0  0.84471434433E-01 -0.40689793343E-02  0.10075579299E-01  0.85168998157E-01  0.51100000000E-03 0. -1.
         11    1    4    4    0    0  0.43542724055E-01 -0.12870001429E-01  0.14966797287E-01  0.47810792682E-01  0.51100000000E-03 0.  1.
</event>
<event>
 8    1  0.1106168E+005  0.1043930E+01  0.7957747E-01            NaN
         13   -1    0    0    0    0  0.00000000000E+00  0.00000000000E+00  0.74505805969E-08  0.10566000000E+00  0.10566000000E+00 0. -1.
     999900   -1    0    0    0    0 -0.00000000000E+00 -0.00000000000E+00 -0.74505805969E-08  0.93827000000E+00  0.93827000000E+00 0.  1.
     999902    2    1    2    0    0 -0.11637688637E-01 -0.91660897544E-02  0.18397003468E-01  0.10203100352E+01  0.10200366000E+01 0.  0.
     999903    2    3    3    0    0 -0.38734632163E-01 -0.81346675805E-01 -0.91621363217E-01  0.13011437004E+00  0.20435794565E-01 0.  0.
         14    1    1    2    0    0  0.11637688637E-01  0.91660897544E-02 -0.18397003468E-01  0.23619964751E-01  0.00000000000E+00 0.  1.
     999901    1    3    3    0    0  0.27096943526E-01  0.72180586051E-01  0.11001836669E+00  0.89019566521E+00  0.88000000000E+00 0. -1.
        -11    1    4    4    0    0 -0.16519442049E-01 -0.49786861328E-01 -0.63460335041E-01  0.82335282662E-01  0.51100000000E-03 0.  1.
         11    1    4    4    0    0 -0.22215190115E-01 -0.31559814477E-01 -0.28161028177E-01  0.47779087377E-01  0.51100000000E-03 0. -1.
</event>
<event>
 8    1  0.1106168E+005  0.1043930E+01  0.7957747E-01            NaN
         13   -1    0    0    0    0  0.00000000000E+00  0.00000000000E+00  0.74505805969E-08  0.10566000000E+00  0.10566000000E+00 0. -1.
     999900   -1    0    0    0    0 -0.00000000000E+00 -0.00000000000E+00 -0.74505805969E-08  0.93827000000E+00  0.93827000000E+00 0. -1.
     999902    2    1    2    0    0  0.12158836431E-01  0.16239333484E-01  0.12091994372E-01  0.10203128540E+01  0.10200394848E+01 0.  0.
     999903    2    3    3    0    0  0.23472422740E-01  0.50920957550E-01  0.11880984252E+00  0.13311529352E+00  0.21447707128E-01 0.  0.
         14    1    1    2    0    0 -0.12158836431E-01 -0.16239333484E-01 -0.12091994372E-01  0.23617145959E-01  0.00000000000E+00 0.  1.
     999901    1    3    3    0    0 -0.11313586310E-01 -0.34681624066E-01 -0.10671784815E+00  0.88719756052E+00  0.88000000000E+00 0. -1.
        -11    1    4    4    0    0 -0.22829854236E-02  0.73699854127E-02  0.29200818006E-01  0.30207244175E-01  0.51100000000E-03 0. -1.
         11    1    4    4    0    0  0.25755408164E-01  0.43550972137E-01  0.89609024517E-01  0.10290804934E+00  0.51100000000E-03 0.  1.
</event>
<event>
 8    1  0.1106168E+005  0.1043930E+01  0.7957747E-01            NaN
         13   -1    0    0    0    0  0.00000000000E+00  0.00000000000E+00  0.74505805969E-08  0.10566000000E+00  0.10566000000E+00 0.  1.
     999900   -1    0    0    0    0 -0.00000000000E+00 -0.00000000000E+00 -0.74505805969E-08  0.93827000000E+00  0.93827000000E+00 0.  1.
     999902    2    1    2    0    0  0.14567557804E-01  0.95356052511E-02  0.15002230466E-01  0.10209472146E+01  0.10206884963E+01 0.  0.
     999903    2    3    3    0    0  0.10800817662E+00 -0.69202966864E-01 -0.22111624484E-01  0.13172938398E+00  0.20221024373E-01 0.  0.
         14    1    1    2    0    0 -0.14567557804E-01 -0.95356052511E-02 -0.15002230466E-01  0.22982785446E-01  0.00000000000E+00 0. -1.
     999901    1    3    3    0    0 -0.93440618816E-01  0.78738572115E-01  0.37113854949E-01  0.88921783058E+00  0.88000000000E+00 0. -1.
        -11    1    4    4    0    0  0.49068892959E-01 -0.43399514254E-01 -0.11901064431E-01  0.66582058765E-01  0.51100000000E-03 0.  1.
         11    1    4    4    0    0  0.58939283661E-01 -0.25803452610E-01 -0.10210560053E-01  0.65147325215E-01  0.51100000000E-03 0. -1.
</event>
<event>
 8    1  0.1106168E+005  0.1043930E+01  0.7957747E-01            NaN
         13   -1    0    0    0    0  0.00000000000E+00  0.00000000000E+00  0.74505805969E-08  0.10566000000E+00  0.10566000000E+00 0.  1.
     999900   -1    0    0    0    0 -0.00000000000E+00 -0.00000000000E+00 -0.74505805969E-08  0.93827000000E+00  0.93827000000E+00 0. -1.
     999902    2    1    2    0    0  0.49963770199E-02  0.93926496949E-02  0.18097359263E-01  0.10229371425E+01  0.10227217107E+01 0.  0.
     999903    2    3    3    0    0 -0.79587788355E-02  0.75684501303E-01  0.11040109354E+00  0.13553507752E+00  0.19745123093E-01 0.  0.
         14    1    1    2    0    0 -0.49963770199E-02 -0.93926496949E-02 -0.18097359263E-01  0.20992857450E-01  0.00000000000E+00 0. -1.
     999901    1    3    3    0    0  0.12955155855E-01 -0.66291851608E-01 -0.92303734277E-01  0.88740206503E+00  0.88000000000E+00 0. -1.
        -11    1    4    4    0    0  0.28977290988E-02  0.55898756443E-01  0.81239641980E-01  0.98657023855E-01  0.51100000000E-03 0.  1.
         11    1    4    4    0    0 -0.10856507934E-01  0.19785744860E-01  0.29161451561E-01  0.36878053668E-01  0.51100000000E-03 0. -1.
</event>
<event>
 8    1  0.1106168E+005  0.1043930E+01  0.7957747E-01            NaN
         13   -1    0    0    0    0  0.00000000000E+00  0.00000000000E+00  0.74505805969E-08  0.10566000000E+00  0.10566000000E+00 0. -1.
     999900   -1    0    0    0    0 -0.00000000000E+00 -0.00000000000E+00 -0.74505805969E-08  0.93827000000E+00  0.93827000000E+00 0.  1.
     999902    2    1    2    0    0 -0.11986812237E-01  0.17614615054E-01 -0.11793302871E-01  0.10195775807E+01  0.10192867128E+01 0.  0.
     999903    2    3    3    0    0 -0.90562015648E-02 -0.12326357210E+00 -0.27785337961E-01  0.12822411702E+00  0.19836234201E-01 0.  0.
         14    1    1    2    0    0  0.11986812237E-01 -0.17614615054E-01  0.11793302871E-01  0.24352419258E-01  0.00000000000E+00 0.  1.
     999901    1    3    3    0    0 -0.29306106717E-02  0.14087818716E+00  0.15992035091E-01  0.89135346372E+00  0.88000000000E+00 0. -1.
        -11    1    4    4    0    0  0.17577816795E-02 -0.93148077070E-01 -0.20005102914E-01  0.95289660100E-01  0.51100000000E-03 0.  1.
         11    1    4    4    0    0 -0.10813983244E-01 -0.30115495031E-01 -0.77802350470E-02  0.32934456925E-01  0.51100000000E-03 0. -1.
</event>
<event>
 8    1  0.1106168E+005  0.1043930E+01  0.7957747E-01            NaN
         13   -1    0    0    0    0  0.00000000000E+00  0.00000000000E+00  0.74505805969E-08  0.10566000000E+00  0.10566000000E+00 0.  1.
     999900   -1    0    0    0    0 -0.00000000000E+00 -0.00000000000E+00 -0.74505805969E-08  0.93827000000E+00  0.93827000000E+00 0. -1.
     999902    2    1    2    0    0 -0.96241966296E-02  0.68638840879E-02 -0.20050545702E-01  0.10206542090E+01  0.10203887748E+01 0.  0.
     999903    2    3    3    0    0 -0.47785083230E-01  0.10649665401E+00 -0.60369255345E-01  0.13329377461E+00  0.22312146093E-01 0.  0.
         14    1    1    2    0    0  0.96241966296E-02 -0.68638840879E-02  0.20050545702E-01  0.23275791039E-01  0.00000000000E+00 0.  1.
     999901    1    3    3    0    0  0.38160886600E-01 -0.99632769924E-01  0.40318709643E-01  0.88736043435E+00  0.88000000000E+00 0.  1.
        -11    1    4    4    0    0 -0.19551554135E-01  0.20594861192E-01 -0.13583527393E-01  0.31483089334E-01  0.51100000000E-03 0.  1.
         11    1    4    4    0    0 -0.28233529095E-01  0.85901792820E-01 -0.46785727952E-01  0.10181068527E+00  0.51100000000E-03 0. -1.
</event>
<event>
 8    1  0.1106168E+005  0.1043930E+01  0.7957747E-01            NaN
         13   -1    0    0    0    0  0.00000000000E+00  0.00000000000E+00  0.74505805969E-08  0.10566000000E+00  0.10566000000E+00 0.  1.
     999900   -1    0    0    0    0 -0.00000000000E+00 -0.00000000000E+00 -0.74505805969E-08  0.93827000000E+00  0.93827000000E+00 0.  1.
     999902    2    1    2    0    0 -0.22327104020E-01 -0.78389625831E-02  0.24732244355E-02  0.10201378637E+01  0.10198603803E+01 0.  0.
     999903    2    3    3    0    0  0.59501870256E-01  0.52238905549E-01 -0.99161111034E-01  0.12849058516E+00  0.20187340495E-01 0.  0.
         14    1    1    2    0    0  0.22327104020E-01  0.78389625831E-02 -0.24732244355E-02  0.23792136251E-01  0.00000000000E+00 0. -1.
     999901    1    3    3    0    0 -0.81828974275E-01 -0.60077868132E-01  0.10163433547E+00  0.89164727859E+00  0.88000000000E+00 0.  1.
        -11    1    4    4    0    0  0.52047079902E-01  0.52366183400E-01 -0.85915946487E-01  0.11328250823E+00  0.51100000000E-03 0. -1.
         11    1    4    4    0    0  0.74547903537E-02 -0.12727785108E-03 -0.13245164547E-01  0.15208076924E-01  0.51100000000E-03 0.  1.
</event>
<event>
 8    1  0.1106168E+005  0.1043930E+01  0.7957747E-01            NaN
         13   -1    0    0    0    0  0.00000000000E+00  0.00000000000E+00  0.74505805969E-08  0.10566000000E+00  0.10566000000E+00 0.  1.
     999900   -1    0    0    0    0 -0.00000000000E+00 -0.00000000000E+00 -0.74505805969E-08  0.93827000000E+00  0.93827000000E+00 0. -1.
     999902    2    1    2    0    0  0.21772193043E-01 -0.68556780536E-02  0.59356268466E-02  0.10203448272E+01  0.10200722062E+01 0.  0.
     999903    2    3    3    0    0  0.36922025309E-01  0.12319262381E+00  0.15888817034E-01  0.13060264865E+00  0.16276941149E-01 0.  0.
         14    1    1    2    0    0 -0.21772193043E-01  0.68556780536E-02 -0.59356268466E-02  0.23585172832E-01  0.00000000000E+00 0. -1.
     999901    1    3    3    0    0 -0.15149832266E-01 -0.13004830187E+00 -0.99531901877E-02  0.88974217852E+00  0.88000000000E+00 0. -1.
        -11    1    4    4    0    0  0.16882933203E-01  0.83055531242E-01  0.95245339165E-02  0.85289111677E-01  0.51100000000E-03 0.  1.
         11    1    4    4    0    0  0.20039092105E-01  0.40137092571E-01  0.63642831178E-02  0.45313536974E-01  0.51100000000E-03 0. -1.
</event>
<event>
 8    1  0.1106168E+005  0.1043930E+01  0.7957747E-01            NaN
         13   -1    0    0    0    0  0.00000000000E+00  0.00000000000E+00  0.74505805969E-08  0.10566000000E+00  0.10566000000E+00 0.  1.
     999900   -1    0    0    0    0 -0.00000000000E+00 -0.00000000000E+00 -0.74505805969E-08  0.93827000000E+00  0.93827000000E+00 0. -1.
     999902    2    1    2    0    0  0.19301685920E-01  0.92681358555E-02 -0.11363829506E-01  0.10196897433E+01  0.10194015807E+01 0.  0.
     999903    2    3    3    0    0  0.16483286798E-01 -0.43120351403E-01 -0.12146026008E+00  0.13127895942E+00  0.18721831104E-01 0.  0.
         14    1    1    2    0    0 -0.19301685920E-01 -0.92681358555E-02  0.11363829506E-01  0.24240256653E-01  0.00000000000E+00 0. -1.
     999901    1    3    3    0    0  0.28183991214E-02  0.52388487259E-01  0.11009643057E+00  0.88841078393E+00  0.88000000000E+00 0.  1.
        -11    1    4    4    0    0  0.15461125706E-02 -0.28834008671E-01 -0.64076049212E-01  0.70283651895E-01  0.51100000000E-03 0.  1.
         11    1    4    4    0    0  0.14937174228E-01 -0.14286342732E-01 -0.57384210865E-01  0.60995307526E-01  0.51100000000E-03 0. -1.
</event>
<event>
 8    1  0.1106168E+005  0.1043930E+01  0.7957747E-01            NaN
         13   -1    0    0    0    0  0.00000000000E+00  0.00000000000E+00  0.74505805969E-08  0.10566000000E+00  0.10566000000E+00 0. -1.
     999900   -1    0    0    0    0 -0.00000000000E+00 -0.00000000000E+00 -0.74505805969E-08  0.93827000000E+00  0.93827000000E+00 0.  1.
     999902    2    1    2    0    0  0.21928093585E-01 -0.38890027920E-02 -0.47726839917E-02  0.10211540446E+01  0.10209000141E+01 0.  0.
     999903    2    3    3    0    0  0.53606560603E-01  0.11285483764E+00 -0.39045099564E-01  0.13221802441E+00  0.18633530571E-01 0.  0.
         14    1    1    2    0    0 -0.21928093585E-01  0.38890027920E-02  0.47726839917E-02  0.22775955380E-01  0.00000000000E+00 0. -1.
     999901    1    3    3    0    0 -0.31678467018E-01 -0.11674384043E+00  0.34272415572E-01  0.88893602021E+00  0.88000000000E+00 0. -1.
        -11    1    4    4    0    0  0.19126383013E-01  0.22307539572E-01 -0.76697888559E-02  0.30373205807E-01  0.51100000000E-03 0.  1.
         11    1    4    4    0    0  0.34480177590E-01  0.90547298067E-01 -0.31375310708E-01  0.10184481861E+00  0.51100000000E-03 0. -1.
</event>
<event>
 8    1  0.1106168E+005  0.1043930E+01  0.7957747E-01            NaN
         13   -1    0    0    0    0  0.00000000000E+00  0.00000000000E+00  0.74505805969E-08  0.10566000000E+00  0.10566000000E+00 0. -1.
     999900   -1    0    0    0    0 -0.00000000000E+00 -0.00000000000E+00 -0.74505805969E-08  0.93827000000E+00  0.93827000000E+00 0.  1.
     999902    2    1    2    0    0 -0.22830572303E-01  0.85347167343E-02 -0.38955231726E-02  0.10192469791E+01  0.10189480619E+01 0.  0.
     999903    2    3    3    0    0 -0.13077500518E+00  0.52152237228E-02 -0.76589333293E-02  0.13263704067E+00  0.20115286715E-01 0.  0.
         14    1    1    2    0    0  0.22830572303E-01 -0.85347167343E-02  0.38955231726E-02  0.24683020930E-01  0.00000000000E+00 0.  1.
     999901    1    3    3    0    0  0.10794443287E+00  0.33194930115E-02  0.37634101567E-02  0.88660993840E+00  0.88000000000E+00 0.  1.
        -11    1    4    4    0    0 -0.96632232100E-01  0.12487209396E-01 -0.74868845589E-02  0.97724271501E-01  0.51100000000E-03 0.  1.
         11    1    4    4    0    0 -0.34142773076E-01 -0.72719856731E-02 -0.17204877044E-03  0.34912769164E-01  0.51100000000E-03 0. -1.
</event>
<event>
 8    1  0.1106168E+005  0.1043930E+01  0.7957747E-01            NaN
         13   -1    0    0    0    0  0.00000000000E+00  0.00000000000E+00  0.74505805969E-08  0.10566000000E+00  0.10566000000E+00 0. -1.
     999900   -1    0    0    0    0 -0.00000000000E+00 -0.00000000000E+00 -0.74505805969E-08  0.93827000000E+00  0.93827000000E+00 0.  1.
     999902    2    1    2    0    0 -0.13096118836E-01  0.51749685138E-02  0.19308800787E-01  0.10200319161E+01  0.10197519264E+01 0.  0.
     999903    2    3    3    0    0 -0.62430492396E-01 -0.15627399901E-01  0.11501729027E+00  0.13322487172E+00  0.19444983311E-01 0.  0.
         14    1    1    2    0    0  0.13096118836E-01 -0.51749685138E-02 -0.19308800787E-01  0.23898083929E-01  0.00000000000E+00 0.  1.
     999901    1    3    3    0    0  0.49334373560E-01  0.20802368415E-01 -0.95708489483E-01  0.88680704435E+00  0.88000000000E+00 0.  1.
        -11    1    4    4    0    0 -0.58255815892E-02 -0.22338577264E-02  0.28651710162E-02  0.68846094403E-02  0.51100000000E-03 0.  1.
         11    1    4    4    0    0 -0.56604910807E-01 -0.13393542175E-01  0.11215211925E+00  0.12634026228E+00  0.51100000000E-03 0. -1.
</event>
<event>
 8    1  0.1106168E+005  0.1043930E+01  0.7957747E-01            NaN
         13   -1    0    0    0    0  0.00000000000E+00  0.00000000000E+00  0.74505805969E-08  0.10566000000E+00  0.10566000000E+00 0. -1.
     999900   -1    0    0    0    0 -0.00000000000E+00 -0.00000000000E+00 -0.74505805969E-08  0.93827000000E+00  0.93827000000E+00 0.  1.
     999902    2    1    2    0    0  0.14072934180E-01  0.13762443315E-01  0.11842123224E-01  0.10209585350E+01  0.10207000744E+01 0.  0.
     999903    2    3    3    0    0  0.10929040453E-01 -0.45081983890E-01  0.12232481907E+00  0.13209466646E+00  0.18270477578E-01 0.  0.
         14    1    1    2    0    0 -0.14072934180E-01 -0.13762443315E-01 -0.11842123224E-01  0.22971465014E-01  0.00000000000E+00 0.  1.
     999901    1    3    3    0    0  0.31438937262E-02  0.58844427206E-01 -0.11048269585E+00  0.88886386852E+00  0.88000000000E+00 0.  1.
        -11    1    4    4    0    0  0.11765259130E-01 -0.44841405250E-01  0.10547458688E+00  0.11521424628E+00  0.51100000000E-03 0. -1.
         11    1    4    4    0    0 -0.83621867644E-03 -0.24057864086E-03  0.16850232188E-01  0.16880420183E-01  0.51100000000E-03 0.  1.
</event>
<event>
 8    1  0.1106168E+005  0.1043930E+01  0.7957747E-01            NaN
         13   -1    0    0    0    0  0.00000000000E+00  0.00000000000E+00  0.74505805969E-08  0.10566000000E+00  0.10566000000E+00 0.  1.
     999900   -1    0    0    0    0 -0.00000000000E+00 -0.00000000000E+00 -0.74505805969E-08  0.93827000000E+00  0.93827000000E+00 0.  1.
     999902    2    1    2    0    0  0.20852847786E-01  0.10127394936E-02 -0.98400635737E-02  0.10208498407E+01  0.10205889003E+01 0.  0.
     999903    2    3    3    0    0 -0.85314714259E-01  0.65462146396E-01 -0.70273871769E-01  0.13007628785E+00  0.20433563774E-01 0.  0.
         14    1    1    2    0    0 -0.20852847786E-01 -0.10127394936E-02  0.98400635737E-02  0.23080159298E-01  0.00000000000E+00 0.  1.
     999901    1    3    3    0    0  0.10616756205E+00 -0.64449406902E-01  0.60433808195E-01  0.89077355285E+00  0.88000000000E+00 0. -1.
        -11    1    4    4    0    0 -0.30632581288E-01  0.18550785309E-01 -0.13236203237E-01  0.38183044262E-01  0.51100000000E-03 0.  1.
         11    1    4    4    0    0 -0.54682132971E-01  0.46911361087E-01 -0.57037668532E-01  0.91893243592E-01  0.51100000000E-03 0. -1.
</event>
<event>
 8    1  0.1106168E+005  0.1043930E+01  0.7957747E-01            NaN
         13   -1    0    0    0    0  0.00000000000E+00  0.00000000000E+00  0.74505805969E-08  0.10566000000E+00  0.10566000000E+00 0.  1.
     999900   -1    0    0    0    0 -0.00000000000E+00 -0.00000000000E+00 -0.74505805969E-08  0.93827000000E+00  0.93827000000E+00 0. -1.
     999902    2    1    2    0    0 -0.21844629543E-01 -0.10456088507E-01  0.67236739233E-02  0.10187958516E+01  0.10184857690E+01 0.  0.
     999903    2    3    3    0    0 -0.45300793596E-02  0.11693014344E+00  0.49647360662E-01  0.12841981380E+00  0.18264941625E-01 0.  0.
         14    1    1    2    0    0  0.21844629543E-01  0.10456088507E-01 -0.67236739233E-02  0.25134148440E-01  0.00000000000E+00 0. -1.
     999901    1    3    3    0    0 -0.17314550184E-01 -0.12738623194E+00 -0.42923686738E-01  0.89037603776E+00  0.88000000000E+00 0. -1.
        -11    1    4    4    0    0  0.56313378094E-02  0.29450427373E-01  0.17150212271E-01  0.34546064030E-01  0.51100000000E-03 0.  1.
         11    1    4    4    0    0 -0.10161417169E-01  0.87479716062E-01  0.32497148391E-01  0.93873749769E-01  0.51100000000E-03 0. -1.
</event>
<event>
 8    1  0.1257669E+005  0.1043930E+01  0.7957747E-01            NaN
         13   -1    0    0    0    0  0.00000000000E+00  0.00000000000E+00  0.74505805969E-08  0.10566000000E+00  0.10566000000E+00 0.  1.
     999900   -1    0    0    0    0 -0.00000000000E+00 -0.00000000000E+00 -0.74505805969E-08  0.93827000000E+00  0.93827000000E+00 0. -1.
     999902    2    1    2    0    0 -0.74347035307E-02  0.44689541818E-02 -0.22221561651E-01  0.10200753533E+01  0.10197963925E+01 0.  0.
     999903    2    3    3    0    0  0.85281165757E-01  0.67926038049E-01  0.65408591699E-01  0.12861471046E+00  0.19407112142E-01 0.  0.
         14    1    1    2    0    0  0.74347035307E-02 -0.44689541818E-02  0.22221561651E-01  0.23854646723E-01  0.00000000000E+00 0.  1.
     999901    1    3    3    0    0 -0.92715869287E-01 -0.63457083867E-01 -0.87630153349E-01  0.89146064281E+00  0.88000000000E+00 0.  1.
        -11    1    4    4    0    0  0.46441358925E-01  0.31227663140E-01  0.43401139693E-01  0.70822925749E-01  0.51100000000E-03 0. -1.
         11    1    4    4    0    0  0.38839806832E-01  0.36698374908E-01  0.22007452005E-01  0.57791784714E-01  0.51100000000E-03 0.  1.
</event>
<event>
 8    1  0.1106168E+005  0.1043930E+01  0.7957747E-01            NaN
         13   -1    0    0    0    0  0.00000000000E+00  0.00000000000E+00  0.74505805969E-08  0.10566000000E+00  0.10566000000E+00 0.  1.
     999900   -1    0    0    0    0 -0.00000000000E+00 -0.00000000000E+00 -0.74505805969E-08  0.93827000000E+00  0.93827000000E+00 0.  1.
     999902    2    1    2    0    0 -0.20895258502E-01 -0.34104363259E-02 -0.10915786983E-01  0.10201098970E+01  0.10198317531E+01 0.  0.
     999903    2    3    3    0    0  0.11615144701E-01  0.12618571671E+00  0.17137085888E-01  0.12958249542E+00  0.20980865522E-01 0.  0.
         14    1    1    2    0    0  0.20895258502E-01  0.34104363259E-02  0.10915786983E-01  0.23820103048E-01  0.00000000000E+00 0.  1.
     999901    1    3    3    0    0 -0.32510403202E-01 -0.12959615304E+00 -0.28052872871E-01  0.89052740153E+00  0.88000000000E+00 0.  1.
        -11    1    4    4    0    0  0.11985294979E-01  0.91321019474E-01  0.35977127928E-02  0.92175813270E-01  0.51100000000E-03 0. -1.
         11    1    4    4    0    0 -0.37015027862E-03  0.34864697239E-01  0.13539373095E-01  0.37406682152E-01  0.51100000000E-03 0.  1.
</event>
<event>
 8    1  0.1106168E+005  0.1043930E+01  0.7957747E-01            NaN
         13   -1    0    0    0    0  0.00000000000E+00  0.00000000000E+00  0.74505805969E-08  0.10566000000E+00  0.10566000000E+00 0.  1.
     999900   -1    0    0    0    0 -0.00000000000E+00 -0.00000000000E+00 -0.74505805969E-08  0.93827000000E+00  0.93827000000E+00 0.  1.
     999902    2    1    2    0    0  0.20471577086E-01  0.65705578573E-02 -0.10096893453E-01  0.10201770011E+01  0.10199004406E+01 0.  0.
     999903    2    3    3    0    0  0.27876446568E-01  0.11712927541E+00 -0.52202534319E-01  0.13222939730E+00  0.16221759777E-01 0.  0.
         14    1    1    2    0    0 -0.20471577086E-01 -0.65705578573E-02  0.10096893453E-01  0.23752998892E-01  0.00000000000E+00 0.  1.
     999901    1    3    3    0    0 -0.74048694824E-02 -0.11055871755E+00  0.42105640866E-01  0.88794760381E+00  0.88000000000E+00 0. -1.
        -11    1    4    4    0    0  0.21872008483E-01  0.10638976567E+00 -0.50555001010E-01  0.11980499256E+00  0.51100000000E-03 0.  1.
         11    1    4    4    0    0  0.60044380857E-02  0.10739509740E-01 -0.16475333096E-02  0.12424404741E-01  0.51100000000E-03 0. -1.
</event>
<event>
 8    1  0.1106168E+005  0.1043930E+01  0.7957747E-01            NaN
         13   -1    0    0    0    0  0.00000000000E+00  0.00000000000E+00  0.74505805969E-08  0.10566000000E+00  0.10566000000E+00 0.  1.
     999900   -1    0    0    0    0 -0.00000000000E+00 -0.00000000000E+00 -0.74505805969E-08  0.93827000000E+00  0.93827000000E+00 0. -1.
     999902    2    1    2    0    0 -0.23374857568E-01  0.19935136436E-02  0.59193816809E-02  0.10197350182E+01  0.10194479439E+01 0.  0.
     999903    2    3    3    0    0  0.33490795037E-01 -0.10120899536E+00  0.71020166628E-01  0.12949764960E+00  0.18996923220E-01 0.  0.
         14    1    1    2    0    0  0.23374857568E-01 -0.19935136436E-02 -0.59193816809E-02  0.24194981762E-01  0.00000000000E+00 0. -1.
     999901    1    3    3    0    0 -0.56865652605E-01  0.10320250900E+00 -0.65100784947E-01  0.89023736863E+00  0.88000000000E+00 0. -1.
        -11    1    4    4    0    0  0.10111222879E-01 -0.34504531110E-01  0.34933573855E-01  0.50133972498E-01  0.51100000000E-03 0. -1.
         11    1    4    4    0    0  0.23379572158E-01 -0.66704464247E-01  0.36086592774E-01  0.79363677107E-01  0.51100000000E-03 0.  1.
</event>
<event>
 8    1  0.1106168E+005  0.1043930E+01  0.7957747E-01            NaN
         13   -1    0    0    0    0  0.00000000000E+00  0.00000000000E+00  0.74505805969E-08  0.10566000000E+00  0.10566000000E+00 0. -1.
     999900   -1    0    0    0    0 -0.00000000000E+00 -0.00000000000E+00 -0.74505805969E-08  0.93827000000E+00  0.93827000000E+00 0.  1.
     999902    2    1    2    0    0 -0.69986291325E-02 -0.14581126204E-01  0.13532780003E-01  0.10228414679E+01  0.10226240474E+01 0.  0.
     999903    2    3    3    0    0 -0.12945517321E+00  0.25024549514E-01  0.71855404996E-02  0.13345712906E+00  0.19346921113E-01 0.  0.
         14    1    1    2    0    0  0.69986291325E-02  0.14581126204E-01 -0.13532780003E-01  0.21088532091E-01  0.00000000000E+00 0.  1.
     999901    1    3    3    0    0  0.12245654408E+00 -0.39605675718E-01  0.63472395035E-02  0.88938433885E+00  0.88000000000E+00 0.  1.
        -11    1    4    4    0    0 -0.95380739941E-01  0.22736126369E-01  0.12652314304E-01  0.98867381740E-01  0.51100000000E-03 0. -1.
         11    1    4    4    0    0 -0.34074433268E-01  0.22884231453E-02 -0.54667738043E-02  0.34589747323E-01  0.51100000000E-03 0.  1.
</event>
<event>
 8    1  0.1106168E+005  0.1043930E+01  0.7957747E-01            NaN
         13   -1    0    0    0    0  0.00000000000E+00  0.00000000000E+00  0.74505805969E-08  0.10566000000E+00  0.10566000000E+00 0. -1.
     999900   -1    0    0    0    0 -0.00000000000E+00 -0.00000000000E+00 -0.74505805969E-08  0.93827000000E+00  0.93827000000E+00 0.  1.
     999902    2    1    2    0    0 -0.16686360951E-01  0.12102114784E-02 -0.16532646548E-01  0.10204092080E+01  0.10201380907E+01 0.  0.
     999903    2    3    3    0    0 -0.20825950198E-01  0.48784148048E-01 -0.11956159632E+00  0.13311253828E+00  0.24705449407E-01 0.  0.
         14    1    1    2    0    0  0.16686360951E-01 -0.12102114784E-02  0.16532646548E-01  0.23520791982E-01  0.00000000000E+00 0. -1.
     999901    1    3    3    0    0  0.41395892478E-02 -0.47573936570E-01  0.10302894977E+00  0.88729666974E+00  0.88000000000E+00 0. -1.
        -11    1    4    4    0    0 -0.15662254305E-01  0.42408979601E-01 -0.11531304750E+00  0.12385954870E+00  0.51100000000E-03 0. -1.
         11    1    4    4    0    0 -0.51636958939E-02  0.63751684478E-02 -0.42485488216E-02  0.92529895770E-02  0.51100000000E-03 0.  1.
</event>
<event>
 8    1  0.1106168E+005  0.1043930E+01  0.7957747E-01            NaN
         13   -1    0    0    0    0  0.00000000000E+00  0.00000000000E+00  0.74505805969E-08  0.10566000000E+00  0.10566000000E+00 0. -1.
     999900   -1    0    0    0    0 -0.00000000000E+00 -0.00000000000E+00 -0.74505805969E-08  0.93827000000E+00  0.93827000000E+00 0.  1.
     999902    2    1    2    0    0 -0.81299614473E-05  0.18748864486E-01 -0.13815862329E-01  0.10206405595E+01  0.10203748104E+01 0.  0.
     999903    2    3    3    0    0  0.32868808289E-01  0.87237576213E-01 -0.93136909132E-01  0.13381282813E+00  0.23251577767E-01 0.  0.
         14    1    1    2    0    0  0.81299614473E-05 -0.18748864486E-01  0.13815862329E-01  0.23289440472E-01  0.00000000000E+00 0. -1.
     999901    1    3    3    0    0 -0.32876938250E-01 -0.68488711728E-01  0.79321046804E-01  0.88682773139E+00  0.88000000000E+00 0. -1.
        -11    1    4    4    0    0  0.25702020553E-01  0.35805087508E-01 -0.45315196467E-01  0.63216503413E-01  0.51100000000E-03 0. -1.
         11    1    4    4    0    0  0.71667877361E-02  0.51432488706E-01 -0.47821712666E-01  0.70596324721E-01  0.51100000000E-03 0.  1.
</event>
<event>
 8    1  0.1106168E+005  0.1043930E+01  0.7957747E-01            NaN
         13   -1    0    0    0    0  0.00000000000E+00  0.00000000000E+00  0.74505805969E-08  0.10566000000E+00  0.10566000000E+00 0. -1.
     999900   -1    0    0    0    0 -0.00000000000E+00 -0.00000000000E+00 -0.74505805969E-08  0.93827000000E+00  0.93827000000E+00 0.  1.
     999902    2    1    2    0    0  0.70295391684E-03  0.23423893179E-01  0.38602038834E-02  0.10201797560E+01  0.10199032603E+01 0.  0.
     999903    2    3    3    0    0  0.11118906062E+00 -0.58496677117E-01 -0.21759234337E-01  0.12912727987E+00  0.20384349189E-01 0.  0.
         14    1    1    2    0    0 -0.70295391684E-03 -0.23423893179E-01 -0.38602038834E-02  0.23750243996E-01  0.00000000000E+00 0.  1.
     999901    1    3    3    0    0 -0.11048610670E+00  0.81920570296E-01  0.25619438221E-01  0.89105247614E+00  0.88000000000E+00 0. -1.
        -11    1    4    4    0    0  0.27878137167E-01 -0.23412621138E-01 -0.11320846362E-01  0.38128257812E-01  0.51100000000E-03 0. -1.
         11    1    4    4    0    0  0.83310923454E-01 -0.35084055979E-01 -0.10438387976E-01  0.90999022056E-01  0.51100000000E-03 0.  1.
</event>
<event>
 8    1  0.1106168E+005  0.1043930E+01  0.7957747E-01            NaN
         13   -1    0    0    0    0  0.00000000000E+00  0.00000000000E+00  0.74505805969E-08  0.10566000000E+00  0.10566000000E+00 0.  1.
     999900   -1    0    0    0    0 -0.00000000000E+00 -0.00000000000E+00 -0.74505805969E-08  0.93827000000E+00  0.93827000000E+00 0. -1.
     999902    2    1    2    0    0  0.12371782563E-01 -0.20287721549E-01  0.43901093173E-02  0.10197654452E+01  0.10194791011E+01 0.  0.
     999903    2    3    3    0    0 -0.10803438690E+00  0.47543340229E-01  0.45782545963E-01  0.12801882624E+00  0.18999484326E-01 0.  0.
         14    1    1    2    0    0 -0.12371782563E-01  0.20287721549E-01 -0.43901093173E-02  0.24164554811E-01  0.00000000000E+00 0. -1.
     999901    1    3    3    0    0  0.12040616947E+00 -0.67831061778E-01 -0.41392436645E-01  0.89174661894E+00  0.88000000000E+00 0. -1.
        -11    1    4    4    0    0 -0.76073495962E-01  0.34381580483E-01  0.22916560178E-01  0.86571933764E-01  0.51100000000E-03 0. -1.
         11    1    4    4    0    0 -0.31960890941E-01  0.13161759747E-01  0.22865985784E-01  0.41446892480E-01  0.51100000000E-03 0.  1.
</event>
<event>
 8    1  0.1106168E+005  0.1043930E+01  0.7957747E-01            NaN
         13   -1    0    0    0    0  0.00000000000E+00  0.00000000000E+00  0.74505805969E-08  0.10566000000E+00  0.10566000000E+00 0. -1.
     999900   -1    0    0    0    0 -0.00000000000E+00 -0.00000000000E+00 -0.74505805969E-08  0.93827000000E+00  0.93827000000E+00 0.  1.
     999902    2    1    2    0    0 -0.13190346664E-01  0.80989047421E-02  0.18288537247E-01  0.10199706991E+01  0.10196892561E+01 0.  0.
     999903    2    3    3    0    0  0.32170362375E-02 -0.87764934678E-01  0.95212884735E-01  0.13127703248E+00  0.21333840632E-01 0.  0.
         14    1    1    2    0    0  0.13190346664E-01 -0.80989047421E-02 -0.18288537247E-01  0.23959300861E-01  0.00000000000E+00 0.  1.
     999901    1    3    3    0    0 -0.16407382902E-01  0.95863839420E-01 -0.76924347488E-01  0.88869366666E+00  0.88000000000E+00 0.  1.
        -11    1    4    4    0    0 -0.40718103297E-02 -0.65009291798E-01  0.79024699362E-01  0.10241070203E+00  0.51100000000E-03 0.  1.
         11    1    4    4    0    0  0.72888465673E-02 -0.22755642880E-01  0.16188185373E-01  0.28866330454E-01  0.51100000000E-03 0. -1.
</event>
<event>
 8    1  0.1106168E+005  0.1043930E+01  0.7957747E-01            NaN
         13   -1    0    0    0    0  0.00000000000E+00  0.00000000000E+00  0.74505805969E-08  0.10566000000E+00  0.10566000000E+00 0. -1.
     999900   -1    0    0    0    0 -0.00000000000E+00 -0.00000000000E+00 -0.74505805969E-08  0.93827000000E+00  0.93827000000E+00 0. -1.
     999902    2    1    2    0    0 -0.20070456511E-01 -0.92360408137E-03 -0.10624474061E-01  0.10212021378E+01  0.10209491910E+01 0.  0.
     999903    2    3    3    0    0  0.10977862115E+00 -0.47027537872E-01 -0.46350139731E-01  0.12976359321E+00  0.20671712289E-01 0.  0.
         14    1    1    2    0    0  0.20070456511E-01  0.92360408137E-03  0.10624474061E-01  0.22727862155E-01  0.00000000000E+00 0. -1.
     999901    1    3    3    0    0 -0.12984907766E+00  0.46103933791E-01  0.35725665670E-01  0.89143854464E+00  0.88000000000E+00 0.  1.
        -11    1    4    4    0    0  0.51141573534E-01 -0.32970454821E-01 -0.25186302109E-01  0.65856832368E-01  0.51100000000E-03 0.  1.
         11    1    4    4    0    0  0.58637047615E-01 -0.14057083052E-01 -0.21163837622E-01  0.63906760838E-01  0.51100000000E-03 0. -1.
</event>
<event>
 8    1  0.1106168E+005  0.1043930E+01  0.7957747E-01            NaN
         13   -1    0    0    0    0  0.00000000000E+00  0.00000000000E+00  0.74505805969E-08  0.10566000000E+00  0.10566000000E+00 0. -1.
     999900   -1    0    0    0    0 -0.00000000000E+00 -0.00000000000E+00 -0.74505805969E-08  0.93827000000E+00  0.93827000000E+00 0. -1.
     999902    2    1    2    0    0 -0.12055920418E-01 -0.16495125223E-01 -0.11383306811E-01  0.10205416686E+01  0.10202736315E+01 0.  0.
     999903    2    3    3    0    0 -0.22959230188E-01 -0.26293838476E-01 -0.12712470220E+00  0.13284185019E+00  0.16363833855E-01 0.  0.
         14    1    1    2    0    0  0.12055920418E-01  0.16495125223E-01  0.11383306811E-01  0.23388331432E-01  0.00000000000E+00 0.  1.
     999901    1    3    3    0    0  0.10903309771E-01  0.97987132532E-02  0.11574139539E+00  0.88769981838E+00  0.88000000000E+00 0.  1.
        -11    1    4    4    0    0 -0.94023441512E-03 -0.59706913790E-02 -0.82029687287E-02  0.10202108275E-01  0.51100000000E-03 0. -1.
         11    1    4    4    0    0 -0.22018995773E-01 -0.20323147097E-01 -0.11892173347E+00  0.12263974191E+00  0.51100000000E-03 0.  1.
</event>
<event>
 8    1  0.1106168E+005  0.1043930E+01  0.7957747E-01            NaN
         13   -1    0    0    0    0  0.00000000000E+00  0.00000000000E+00  0.74505805969E-08  0.10566000000E+00  0.10566000000E+00 0. -1.
     999900   -1    0    0    0    0 -0.00000000000E+00 -0.00000000000E+00 -0.74505805969E-08  0.93827000000E+00  0.93827000000E+00 0. -1.
     999902    2    1    2    0    0  0.16292495371E-01  0.73589596963E-02  0.11303658257E-01  0.10227788208E+01  0.10225600930E+01 0.  0.
     999903    2    3    3    0    0 -0.17609470562E-01 -0.93706934449E-01  0.90148380041E-01  0.13284615566E+00  0.20743375648E-01 0.  0.
         14    1    1    2    0    0 -0.16292495371E-01 -0.73589596963E-02 -0.11303658257E-01  0.21151179239E-01  0.00000000000E+00 0.  1.
     999901    1    3    3    0    0  0.33901965933E-01  0.10106589415E+00 -0.78844721784E-01  0.88993266510E+00  0.88000000000E+00 0. -1.
        -11    1    4    4    0    0 -0.14867498012E-01 -0.62606934284E-01  0.47468748629E-01  0.79963828916E-01  0.51100000000E-03 0.  1.
         11    1    4    4    0    0 -0.27419725498E-02 -0.31100000165E-01  0.42679631412E-01  0.52882326747E-01  0.51100000000E-03 0. -1.
</event>
<event>
 8    1  0.1106168E+005  0.1043930E+01  0.7957747E-01            NaN
         13   -1    0    0    0    0  0.00000000000E+00  0.00000000000E+00  0.74505805969E-08  0.10566000000E+00  0.10566000000E+00 0. -1.
     999900   -1    0    0    0    0 -0.00000000000E+00 -0.00000000000E+00 -0.74505805969E-08  0.93827000000E+00  0.93827000000E+00 0. -1.
     999902    2    1    2    0    0  0.20149645866E-01  0.27098304030E-02 -0.11469816987E-01  0.10205867331E+01  0.10203197399E+01 0.  0.
     999903    2    3    3    0    0 -0.14888189588E-01 -0.10628591127E+00  0.71806090342E-01  0.12927163819E+00  0.60571203159E-02 0.  0.
         14    1    1    2    0    0 -0.20149645866E-01 -0.27098304030E-02  0.11469816987E-01  0.23343266931E-01  0.00000000000E+00 0. -1.
     999901    1    3    3    0    0  0.35037835454E-01  0.10899574167E+00 -0.83275907329E-01  0.89131509488E+00  0.88000000000E+00 0.  1.
        -11    1    4    4    0    0 -0.38687455358E-02 -0.48160220231E-01  0.31276921131E-01  0.57557631303E-01  0.51100000000E-03 0.  1.
         11    1    4    4    0    0 -0.11019444052E-01 -0.58125691039E-01  0.40529169211E-01  0.71714006888E-01  0.51100000000E-03 0. -1.
</event>
<event>
 7    1  0.1106168E+005  0.1043930E+01  0.7957747E-01            NaN
         13   -1    0    0    0    0  0.00000000000E+00  0.00000000000E+00  0.74505805969E-08  0.10566000000E+00  0.10566000000E+00 0.  1.
     999900   -1    0    0    0    0 -0.00000000000E+00 -0.00000000000E+00 -0.74505805969E-08  0.93827000000E+00  0.93827000000E+00 0.  1.
     999903    2    1    2    0    0 -0.10143624529E+00  0.91794020917E-03 -0.15212725700E-01  0.10446903703E+00  0.19803994586E-01 0.  0.
         14    1    1    2    0    0 -0.19219674586E-01 -0.31106528512E-01  0.34829584968E-01  0.50498633608E-01  0.00000000000E+00 0.  1.
     999901    1    1    2    0    0  0.12065591987E+00  0.30188588303E-01 -0.19616859268E-01  0.88896232937E+00  0.88000000000E+00 0.  1.
        -11    1    3    3    0    0 -0.88629794827E-01 -0.31633511637E-02 -0.75983957548E-02  0.89012606190E-01  0.51100000000E-03 0. -1.
         11    1    3    3    0    0 -0.12806450461E-01  0.40812913729E-02 -0.76143299452E-02  0.15456430836E-01  0.51100000000E-03 0.  1.
</event>
<event>
 8    1  0.1106168E+005  0.1043930E+01  0.7957747E-01            NaN
         13   -1    0    0    0    0  0.00000000000E+00  0.00000000000E+00  0.74505805969E-08  0.10566000000E+00  0.10566000000E+00 0.  1.
     999900   -1    0    0    0    0 -0.00000000000E+00 -0.00000000000E+00 -0.74505805969E-08  0.93827000000E+00  0.93827000000E+00 0. -1.
     999902    2    1    2    0    0  0.10643250801E-01  0.16147383332E-01  0.13542641126E-01  0.10203202583E+01  0.10200470624E+01 0.  0.
     999903    2    3    3    0    0  0.43964848492E-01  0.43906142497E-01 -0.11239660208E+00  0.13029690432E+00  0.21991586264E-01 0.  0.
         14    1    1    2    0    0 -0.10643250801E-01 -0.16147383332E-01 -0.13542641126E-01  0.23609741734E-01  0.00000000000E+00 0. -1.
     999901    1    3    3    0    0 -0.33321597691E-01 -0.27758759164E-01  0.12593924320E+00  0.89002335394E+00  0.88000000000E+00 0.  1.
        -11    1    4    4    0    0  0.14963918246E-01  0.59505631168E-02 -0.15965347806E-01  0.22682184689E-01  0.51100000000E-03 0.  1.
         11    1    4    4    0    0  0.29000930246E-01  0.37955579380E-01 -0.96431254270E-01  0.10761471964E+00  0.51100000000E-03 0. -1.
</event>
<event>
 8    1  0.1106168E+005  0.1043930E+01  0.7957747E-01            NaN
         13   -1    0    0    0    0  0.00000000000E+00  0.00000000000E+00  0.74505805969E-08  0.10566000000E+00  0.10566000000E+00 0.  1.
     999900   -1    0    0    0    0 -0.00000000000E+00 -0.00000000000E+00 -0.74505805969E-08  0.93827000000E+00  0.93827000000E+00 0.  1.
     999902    2    1    2    0    0  0.28540820259E-03 -0.19550988551E-01  0.13892527821E-01  0.10199440679E+01  0.10196619914E+01 0.  0.
     999903    2    3    3    0    0  0.15857034721E-03 -0.99283356334E-02  0.13033740420E+00  0.13222112642E+00  0.19899506102E-01 0.  0.
         14    1    1    2    0    0 -0.28540820259E-03  0.19550988551E-01 -0.13892527821E-01  0.23985932136E-01  0.00000000000E+00 0. -1.
     999901    1    3    3    0    0  0.12683785538E-03 -0.96226529176E-02 -0.11644487638E+00  0.88772294145E+00  0.88000000000E+00 0.  1.
        -11    1    4    4    0    0 -0.88525226399E-02 -0.18462950446E-02  0.76673828472E-01  0.77206949532E-01  0.51100000000E-03 0.  1.
         11    1    4    4    0    0  0.90110929871E-02 -0.80820405888E-02  0.53663575733E-01  0.55014176885E-01  0.51100000000E-03 0. -1.
</event>
<event>
 8    1  0.1106168E+005  0.1043930E+01  0.7957747E-01            NaN
         13   -1    0    0    0    0  0.00000000000E+00  0.00000000000E+00  0.74505805969E-08  0.10566000000E+00  0.10566000000E+00 0.  1.
     999900   -1    0    0    0    0 -0.00000000000E+00 -0.00000000000E+00 -0.74505805969E-08  0.93827000000E+00  0.93827000000E+00 0.  1.
     999902    2    1    2    0    0  0.22015824896E-01 -0.53252452298E-02  0.41996954151E-02  0.10208932419E+01  0.10206332932E+01 0.  0.
     999903    2    3    3    0    0 -0.11400412761E+00 -0.32907719778E-01  0.45965992645E-01  0.12903751142E+00  0.21399713564E-01 0.  0.
         14    1    1    2    0    0 -0.22015824896E-01  0.53252452298E-02 -0.41996954151E-02  0.23036758110E-01  0.00000000000E+00 0.  1.
     999901    1    3    3    0    0  0.13601995251E+00  0.27582474548E-01 -0.41766297230E-01  0.89185573047E+00  0.88000000000E+00 0.  1.
        -11    1    4    4    0    0 -0.61151062564E-01 -0.18327945260E-01  0.36058211539E-01  0.73319995707E-01  0.51100000000E-03 0.  1.
         11    1    4    4    0    0 -0.52853065049E-01 -0.14579774518E-01  0.99077811066E-02  0.55717515716E-01  0.51100000000E-03 0. -1.
</event>
<event>
 8    1  0.1106168E+005  0.1043930E+01  0.7957747E-01            NaN
         13   -1    0    0    0    0  0.00000000000E+00  0.00000000000E+00  0.74505805969E-08  0.10566000000E+00  0.10566000000E+00 0.  1.
     999900   -1    0    0    0    0 -0.00000000000E+00 -0.00000000000E+00 -0.74505805969E-08  0.93827000000E+00  0.93827000000E+00 0.  1.
     999902    2    1    2    0    0 -0.19708371816E-01 -0.83873380667E-02 -0.83928557129E-02  0.10209254920E+01  0.10206662789E+01 0.  0.
     999903    2    3    3    0    0 -0.85816456548E-01  0.32102706024E-01  0.92826135356E-01  0.13173765660E+00  0.18522170859E-01 0.  0.
         14    1    1    2    0    0  0.19708371816E-01  0.83873380667E-02  0.83928557129E-02  0.23004507960E-01  0.00000000000E+00 0.  1.
     999901    1    3    3    0    0  0.66108084732E-01 -0.40490044090E-01 -0.10121899107E+00  0.88918783544E+00  0.88000000000E+00 0.  1.
        -11    1    4    4    0    0 -0.72666562824E-01  0.24701146215E-01  0.67292719696E-01  0.10207422408E+00  0.51100000000E-03 0.  1.
         11    1    4    4    0    0 -0.13149893724E-01  0.74015598089E-02  0.25533415660E-01  0.29663432519E-01  0.51100000000E-03 0. -1.
</event>
<event>
 8    1  0.1106168E+005  0.1043930E+01  0.7957747E-01            NaN
         13   -1    0    0    0    0  0.00000000000E+00  0.00000000000E+00  0.74505805969E-08  0.10566000000E+00  0.10566000000E+00 0.  1.
     999900   -1    0    0    0    0 -0.00000000000E+00 -0.00000000000E+00 -0.74505805969E-08  0.93827000000E+00  0.93827000000E+00 0.  1.
     999902    2    1    2    0    0  0.23476851226E-01 -0.50993423334E-02 -0.36041500375E-02  0.10196368789E+01  0.10193474428E+01 0.  0.
     999903    2    3    3    0    0 -0.94657997567E-01  0.81120104749E-01 -0.17322604662E-01  0.12746098169E+00  0.20140042764E-01 0.  0.
         14    1    1    2    0    0 -0.23476851226E-01  0.50993423334E-02  0.36041500375E-02  0.24293121109E-01  0.00000000000E+00 0. -1.
     999901    1    3    3    0    0  0.11813484879E+00 -0.86219447082E-01  0.13718454625E-01  0.89217589720E+00  0.88000000000E+00 0. -1.
        -11    1    4    4    0    0 -0.43912521453E-01  0.27525207259E-01 -0.13475070566E-01  0.53551706068E-01  0.51100000000E-03 0.  1.
         11    1    4    4    0    0 -0.50745476115E-01  0.53594897489E-01 -0.38475340961E-02  0.73909275620E-01  0.51100000000E-03 0. -1.
</event>
<event>
 8    1  0.1106168E+005  0.1043930E+01  0.7957747E-01            NaN
         13   -1    0    0    0    0  0.00000000000E+00  0.00000000000E+00  0.74505805969E-08  0.10566000000E+00  0.10566000000E+00 0. -1.
     999900   -1    0    0    0    0 -0.00000000000E+00 -0.00000000000E+00 -0.74505805969E-08  0.93827000000E+00  0.93827000000E+00 0. -1.
     999902    2    1    2    0    0 -0.21160038536E-01  0.63446851744E-02 -0.78583350060E-02  0.10204831305E+01  0.10202137344E+01 0.  0.
     999903    2    3    3    0    0  0.65121070170E-02 -0.12621286647E+00 -0.22472664904E-01  0.13000526396E+00  0.20597397599E-01 0.  0.
         14    1    1    2    0    0  0.21160038536E-01 -0.63446851744E-02  0.78583350060E-02  0.23446869511E-01  0.00000000000E+00 0. -1.
     999901    1    3    3    0    0 -0.27672145553E-01  0.13255755165E+00  0.14614329897E-01  0.89047786653E+00  0.88000000000E+00 0. -1.
        -11    1    4    4    0    0 -0.33587422566E-02 -0.99582564212E-01 -0.17162956885E-01  0.10110784566E+00  0.51100000000E-03 0.  1.
         11    1    4    4    0    0  0.98708492736E-02 -0.26630302263E-01 -0.53097080186E-02  0.28897418297E-01  0.51100000000E-03 0. -1.
</event>
<event>
 8    1  0.1106168E+005  0.1043930E+01  0.7957747E-01            NaN
         13   -1    0    0    0    0  0.00000000000E+00  0.00000000000E+00  0.74505805969E-08  0.10566000000E+00  0.10566000000E+00 0. -1.
     999900   -1    0    0    0    0 -0.00000000000E+00 -0.00000000000E+00 -0.74505805969E-08  0.93827000000E+00  0.93827000000E+00 0. -1.
     999902    2    1    2    0    0 -0.75420888442E-02  0.50472639576E-02 -0.21555660845E-01  0.10205418728E+01  0.10202738406E+01 0.  0.
     999903    2    3    3    0    0 -0.11815715029E+00  0.45300649676E-01 -0.34131306114E-01  0.13261497622E+00  0.20211997309E-01 0.  0.
         14    1    1    2    0    0  0.75420888442E-02 -0.50472639576E-02  0.21555660845E-01  0.23388127160E-01  0.00000000000E+00 0. -1.
     999901    1    3    3    0    0  0.11061506145E+00 -0.40253385718E-01  0.12575645270E-01  0.88792689662E+00  0.88000000000E+00 0. -1.
        -11    1    4    4    0    0 -0.45818840909E-01  0.23986214749E-01 -0.57593137910E-02  0.52039749198E-01  0.51100000000E-03 0. -1.
         11    1    4    4    0    0 -0.72338309385E-01  0.21314434926E-01 -0.28371992323E-01  0.80575227026E-01  0.51100000000E-03 0.  1.
</event>
<event>
 8    1  0.1106168E+005  0.1043930E+01  0.7957747E-01            NaN
         13   -1    0    0    0    0  0.00000000000E+00  0.00000000000E+00  0.74505805969E-08  0.10566000000E+00  0.10566000000E+00 0.  1.
     999900   -1    0    0    0    0 -0.00000000000E+00 -0.00000000000E+00 -0.74505805969E-08  0.93827000000E+00  0.93827000000E+00 0. -1.
     999902    2    1    2    0    0 -0.60808350263E-02  0.10555912153E-01 -0.20576112465E-01  0.10200180733E+01  0.10197377553E+01 0.  0.
     999903    2    3    3    0    0 -0.10817531957E+00 -0.66685556137E-01  0.21266480668E-01  0.12977073078E+00  0.15469848264E-01 0.  0.
         14    1    1    2    0    0  0.60808350263E-02 -0.10555912153E-01  0.20576112465E-01  0.23911926735E-01  0.00000000000E+00 0. -1.
     999901    1    3    3    0    0  0.10209448455E+00  0.77241468290E-01 -0.41842593133E-01  0.89024734248E+00  0.88000000000E+00 0.  1.
        -11    1    4    4    0    0 -0.74061046581E-01 -0.49324486589E-01  0.21263269234E-01  0.91489514904E-01  0.51100000000E-03 0. -1.
         11    1    4    4    0    0 -0.34114272994E-01 -0.17361069548E-01  0.32114336194E-05  0.38281215877E-01  0.51100000000E-03 0.  1.
</event>
<event>
 8    1  0.1614431E+005  0.1043930E+01  0.7957747E-01            NaN
         13   -1    0    0    0    0  0.00000000000E+00  0.00000000000E+00  0.74505805969E-08  0.10566000000E+00  0.10566000000E+00 0. -1.
     999900   -1    0    0    0    0 -0.00000000000E+00 -0.00000000000E+00 -0.74505805969E-08  0.93827000000E+00  0.93827000000E+00 0. -1.
     999902    2    1    2    0    0 -0.18209955116E-01  0.18928973793E-01 -0.48670440054E-02  0.10172167705E+01  0.10168659506E+01 0.  0.
     999903    2    3    3    0    0 -0.50497815367E-01  0.63577140964E-01 -0.99998601030E-01  0.13037632378E+00  0.20153991792E-01 0.  0.
         14    1    1    2    0    0  0.18209955116E-01 -0.18928973793E-01  0.48670440054E-02  0.26713229522E-01  0.00000000000E+00 0. -1.
     999901    1    3    3    0    0  0.32287860251E-01 -0.44648167172E-01  0.95131557025E-01  0.88684044669E+00  0.88000000000E+00 0.  1.
        -11    1    4    4    0    0 -0.35624982313E-01  0.35478584557E-01 -0.48544259009E-01  0.69890453788E-01  0.51100000000E-03 0.  1.
         11    1    4    4    0    0 -0.14872833054E-01  0.28098556408E-01 -0.51454342021E-01  0.60485869995E-01  0.51100000000E-03 0. -1.
</event>
<event>
 8    1  0.1106168E+005  0.1043930E+01  0.7957747E-01            NaN
         13   -1    0    0    0    0  0.00000000000E+00  0.00000000000E+00  0.74505805969E-08  0.10566000000E+00  0.10566000000E+00 0. -1.
     999900   -1    0    0    0    0 -0.00000000000E+00 -0.00000000000E+00 -0.74505805969E-08  0.93827000000E+00  0.93827000000E+00 0.  1.
     999902    2    1    2    0    0 -0.16136532347E-01  0.54329946166E-02  0.16344713096E-01  0.10203279926E+01  0.10200549778E+01 0.  0.
     999903    2    3    3    0    0  0.92809694473E-02  0.11116021460E+00  0.67954408351E-01  0.13213440161E+00  0.19974202615E-01 0.  0.
         14    1    1    2    0    0  0.16136532347E-01 -0.54329946166E-02 -0.16344713096E-01  0.23602007391E-01  0.00000000000E+00 0.  1.
     999901    1    3    3    0    0 -0.25417501795E-01 -0.10572721999E+00 -0.51609695255E-01  0.88819359100E+00  0.88000000000E+00 0.  1.
        -11    1    4    4    0    0  0.19600844474E-02  0.86323025083E-01  0.44247658259E-01  0.97023826831E-01  0.51100000000E-03 0.  1.
         11    1    4    4    0    0  0.73208849999E-02  0.24837189521E-01  0.23706750092E-01  0.35110574780E-01  0.51100000000E-03 0. -1.
</event>
<event>
 8    1  0.1106168E+005  0.1043930E+01  0.7957747E-01            NaN
         13   -1    0    0    0    0  0.00000000000E+00  0.00000000000E+00  0.74505805969E-08  0.10566000000E+00  0.10566000000E+00 0. -1.
     999900   -1    0    0    0    0 -0.00000000000E+00 -0.00000000000E+00 -0.74505805969E-08  0.93827000000E+00  0.93827000000E+00 0. -1.
     999902    2    1    2    0    0  0.16580344844E-01  0.14545778738E-01  0.45483272722E-02  0.10214094584E+01  0.10211611562E+01 0.  0.
     999903    2    3    3    0    0 -0.10307956396E+00  0.71843510892E-01 -0.30064157220E-01  0.13079194902E+00  0.20391022926E-01 0.  0.
         14    1    1    2    0    0 -0.16580344844E-01 -0.14545778738E-01 -0.45483272722E-02  0.22520541628E-01  0.00000000000E+00 0. -1.
     999901    1    3    3    0    0  0.11965990880E+00 -0.57297732155E-01  0.34612484492E-01  0.89061750935E+00  0.88000000000E+00 0.  1.
        -11    1    4    4    0    0 -0.54521115157E-01  0.28757902662E-01 -0.21626246805E-01  0.65326293598E-01  0.51100000000E-03 0. -1.
         11    1    4    4    0    0 -0.48558448799E-01  0.43085608231E-01 -0.84379104153E-02  0.65465655420E-01  0.51100000000E-03 0.  1.
</event>
<event>
 8    1  0.1106168E+005  0.1043930E+01  0.7957747E-01            NaN
         13   -1    0    0    0    0  0.00000000000E+00  0.00000000000E+00  0.74505805969E-08  0.10566000000E+00  0.10566000000E+00 0. -1.
     999900   -1    0    0    0    0 -0.00000000000E+00 -0.00000000000E+00 -0.74505805969E-08  0.93827000000E+00  0.93827000000E+00 0.  1.
     999902    2    1    2    0    0  0.46856302186E-02 -0.18077121284E-01 -0.15170305788E-01  0.10198701658E+01  0.10195863276E+01 0.  0.
     999903    2    3    3    0    0  0.26769733643E-01 -0.12234963517E+00 -0.40424413546E-01  0.13307919001E+00  0.19745524472E-01 0.  0.
         14    1    1    2    0    0 -0.46856302186E-02  0.18077121284E-01  0.15170305788E-01  0.24059834209E-01  0.00000000000E+00 0. -1.
     999901    1    3    3    0    0 -0.22084103425E-01  0.10427251388E+00  0.25254107758E-01  0.88679097579E+00  0.88000000000E+00 0.  1.
        -11    1    4    4    0    0  0.14908361549E-01 -0.41804364403E-01 -0.64211299244E-02  0.44848145533E-01  0.51100000000E-03 0. -1.
         11    1    4    4    0    0  0.11861372094E-01 -0.80545270765E-01 -0.34003283621E-01  0.88231044472E-01  0.51100000000E-03 0.  1.
</event>
<event>
 8    1  0.1106168E+005  0.1043930E+01  0.7957747E-01            NaN
         13   -1    0    0    0    0  0.00000000000E+00  0.00000000000E+00  0.74505805969E-08  0.10566000000E+00  0.10566000000E+00 0.  1.
     999900   -1    0    0    0    0 -0.00000000000E+00 -0.00000000000E+00 -0.74505805969E-08  0.93827000000E+00  0.93827000000E+00 0. -1.
     999902    2    1    2    0    0 -0.23068602035E-01  0.50770543456E-02 -0.30557455471E-03  0.10203073360E+01  0.10200338375E+01 0.  0.
     999903    2    3    3    0    0  0.64648559861E-01  0.81428107658E-02 -0.10937888366E+00  0.12924017456E+00  0.22215779806E-01 0.  0.
         14    1    1    2    0    0  0.23068602035E-01 -0.50770543456E-02  0.30557455471E-03  0.23622664043E-01  0.00000000000E+00 0.  1.
     999901    1    3    3    0    0 -0.87717161896E-01 -0.30657564202E-02  0.10907330910E+00  0.89106716139E+00  0.88000000000E+00 0.  1.
        -11    1    4    4    0    0  0.56434817289E-01 -0.10662981367E-02 -0.91486953891E-01  0.10749953231E+00  0.51100000000E-03 0.  1.
         11    1    4    4    0    0  0.82137425720E-02  0.92091089025E-02 -0.17891929765E-01  0.21740642252E-01  0.51100000000E-03 0. -1.
</event>
<event>
 8    1  0.1106168E+005  0.1043930E+01  0.7957747E-01            NaN
         13   -1    0    0    0    0  0.00000000000E+00  0.00000000000E+00  0.74505805969E-08  0.10566000000E+00  0.10566000000E+00 0.  1.
     999900   -1    0    0    0    0 -0.00000000000E+00 -0.00000000000E+00 -0.74505805969E-08  0.93827000000E+00  0.93827000000E+00 0.  1.
     999902    2    1    2    0    0  0.14540331778E-01  0.17664174376E-01  0.57623976695E-02  0.10203365786E+01  0.10200637648E+01 0.  0.
     999903    2    3    3    0    0  0.36843342673E-01 -0.89340464567E-01  0.85803767068E-01  0.12996921745E+00  0.13804366489E-01 0.  0.
         14    1    1    2    0    0 -0.14540331778E-01 -0.17664174376E-01 -0.57623976695E-02  0.23593421360E-01  0.00000000000E+00 0. -1.
     999901    1    3    3    0    0 -0.22303010895E-01  0.10700463894E+00 -0.80041369398E-01  0.89036736119E+00  0.88000000000E+00 0.  1.
        -11    1    4    4    0    0  0.37817359350E-01 -0.85148583223E-01  0.80582917250E-01  0.12318401506E+00  0.51100000000E-03 0.  1.
         11    1    4    4    0    0 -0.97401667677E-03 -0.41918813436E-02  0.52208498177E-02  0.67852023923E-02  0.51100000000E-03 0. -1.
</event>
<event>
 8    1  0.1106168E+005  0.1043930E+01  0.7957747E-01            NaN
         13   -1    0    0    0    0  0.00000000000E+00  0.00000000000E+00  0.74505805969E-08  0.10566000000E+00  0.10566000000E+00 0.  1.
     999900   -1    0    0    0    0 -0.00000000000E+00 -0.00000000000E+00 -0.74505805969E-08  0.93827000000E+00  0.93827000000E+00 0. -1.
     999902    2    1    2    0    0 -0.50624913844E-02  0.57287395548E-02  0.24564008203E-01  0.10182037921E+01  0.10178787376E+01 0.  0.
     999903    2    3    3    0    0 -0.33179853194E-01  0.40689765735E-02  0.12608819218E+00  0.13191913080E+00  0.19671442158E-01 0.  0.
         14    1    1    2    0    0  0.50624913844E-02 -0.57287395548E-02 -0.24564008203E-01  0.25726207939E-01  0.00000000000E+00 0. -1.
     999901    1    3    3    0    0  0.28117361809E-01  0.16597629813E-02 -0.10152418398E+00  0.88628466126E+00  0.88000000000E+00 0. -1.
        -11    1    4    4    0    0 -0.11462174356E-02 -0.16404788042E-02  0.42253878329E-03  0.21082327054E-02  0.51100000000E-03 0.  1.
         11    1    4    4    0    0 -0.32033635758E-01  0.57094553777E-02  0.12566565340E+00  0.12981089810E+00  0.51100000000E-03 0. -1.
</event>
<event>
 8    1  0.1106168E+005  0.1043930E+01  0.7957747E-01            NaN
         13   -1    0    0    0    0  0.00000000000E+00  0.00000000000E+00  0.74505805969E-08  0.10566000000E+00  0.10566000000E+00 0. -1.
     999900   -1    0    0    0    0 -0.00000000000E+00 -0.00000000000E+00 -0.74505805969E-08  0.93827000000E+00  0.93827000000E+00 0. -1.
     999902    2    1    2    0    0 -0.16579448010E-01  0.11432243910E-01  0.13726407138E-01  0.10195581197E+01  0.10192667810E+01 0.  0.
     999903    2    3    3    0    0  0.10788376119E+00 -0.14442769593E-01 -0.62630263288E-01  0.12715073072E+00  0.19931355231E-01 0.  0.
         14    1    1    2    0    0  0.16579448010E-01 -0.11432243910E-01 -0.13726407138E-01  0.24371880314E-01  0.00000000000E+00 0.  1.
     999901    1    3    3    0    0 -0.12446320920E+00  0.25875013503E-01  0.76356670426E-01  0.89240738897E+00  0.88000000000E+00 0.  1.
        -11    1    4    4    0    0  0.52437231987E-01  0.18917808882E-02 -0.24571568558E-01  0.57941912600E-01  0.51100000000E-03 0.  1.
         11    1    4    4    0    0  0.55446529199E-01 -0.16334550481E-01 -0.38058694731E-01  0.69208818117E-01  0.51100000000E-03 0. -1.
</event>
<event>
 8    1  0.1106168E+005  0.1043930E+01  0.7957747E-01            NaN
         13   -1    0    0    0    0  0.00000000000E+00  0.00000000000E+00  0.74505805969E-08  0.10566000000E+00  0.10566000000E+00 0.  1.
     999900   -1    0    0    0    0 -0.00000000000E+00 -0.00000000000E+00 -0.74505805969E-08  0.93827000000E+00  0.93827000000E+00 0.  1.
     999902    2    1    2    0    0  0.19838684873E-01  0.13089054416E-01  0.38260145341E-02  0.10198564637E+01  0.10195722983E+01 0.  0.
     999903    2    3    3    0    0 -0.37137021321E-02  0.13005262115E+00  0.74735107005E-02  0.13179762831E+00  0.19679573512E-01 0.  0.
         14    1    1    2    0    0 -0.19838684873E-01 -0.13089054416E-01 -0.38260145341E-02  0.24073536305E-01  0.00000000000E+00 0.  1.
     999901    1    3    3    0    0  0.23552387005E-01 -0.11696356674E+00 -0.36474961664E-02  0.88805883539E+00  0.88000000000E+00 0.  1.
        -11    1    4    4    0    0 -0.23157504592E-02  0.11761006315E+00  0.87930799079E-03  0.11763725583E+00  0.51100000000E-03 0. -1.
         11    1    4    4    0    0 -0.13979516729E-02  0.12442558000E-01  0.65942027097E-02  0.14160372482E-01  0.51100000000E-03 0.  1.
</event>
<event>
 8    1  0.1106168E+005  0.1043930E+01  0.7957747E-01            NaN
         13   -1    0    0    0    0  0.00000000000E+00  0.00000000000E+00  0.74505805969E-08  0.10566000000E+00  0.10566000000E+00 0. -1.
     999900   -1    0    0    0    0 -0.00000000000E+00 -0.00000000000E+00 -0.74505805969E-08  0.93827000000E+00  0.93827000000E+00 0. -1.
     999902    2    1    2    0    0  0.20875527674E-01 -0.43421307652E-02  0.11635135956E-01  0.10196397109E+01  0.10193503431E+01 0.  0.
     999903    2    3    3    0    0 -0.85566256724E-01 -0.94043411269E-01  0.23618879913E-02  0.12865027982E+00  0.19482517553E-01 0.  0.
         14    1    1    2    0    0 -0.20875527674E-01  0.43421307652E-02 -0.11635135956E-01  0.24290289088E-01  0.00000000000E+00 0. -1.
     999901    1    3    3    0    0  0.10644178440E+00  0.89701280503E-01  0.92732479650E-02  0.89098943109E+00  0.88000000000E+00 0.  1.
        -11    1    4    4    0    0 -0.73141207409E-01 -0.70867886914E-01  0.63828131231E-02  0.10204359383E+00  0.51100000000E-03 0.  1.
         11    1    4    4    0    0 -0.12425049315E-01 -0.23175524355E-01 -0.40209251318E-02  0.26606685993E-01  0.51100000000E-03 0. -1.
</event>
<event>
 8    1  0.1106168E+005  0.1043930E+01  0.7957747E-01            NaN
         13   -1    0    0    0    0  0.00000000000E+00  0.00000000000E+00  0.74505805969E-08  0.10566000000E+00  0.10566000000E+00 0.  1.
     999900   -1    0    0    0    0 -0.00000000000E+00 -0.00000000000E+00 -0.74505805969E-08  0.93827000000E+00  0.93827000000E+00 0.  1.
     999902    2    1    2    0    0 -0.22864156132E-01 -0.10882885348E-02 -0.13381581451E-02  0.10210008771E+01  0.10207433793E+01 0.  0.
     999903    2    3    3    0    0  0.82511222141E-01  0.40295259950E-01 -0.89227284300E-01  0.12940620078E+00  0.18778891946E-01 0.  0.
         14    1    1    2    0    0  0.22864156132E-01  0.10882885348E-02  0.13381581451E-02  0.22929122853E-01  0.00000000000E+00 0. -1.
     999901    1    3    3    0    0 -0.10537537827E+00 -0.41383548485E-01  0.87889126155E-01  0.89159467637E+00  0.88000000000E+00 0. -1.
        -11    1    4    4    0    0  0.21402081672E-01  0.56768299318E-02 -0.31415801310E-01  0.38438121584E-01  0.51100000000E-03 0.  1.
         11    1    4    4    0    0  0.61109140470E-01  0.34618430018E-01 -0.57811482991E-01  0.90968079195E-01  0.51100000000E-03 0. -1.
</event>
<event>
 8    1  0.1106168E+005  0.1043930E+01  0.7957747E-01            NaN
         13   -1    0    0    0    0  0.00000000000E+00  0.00000000000E+00  0.74505805969E-08  0.10566000000E+00  0.10566000000E+00 0. -1.
     999900   -1    0    0    0    0 -0.00000000000E+00 -0.00000000000E+00 -0.74505805969E-08  0.93827000000E+00  0.93827000000E+00 0. -1.
     999902    2    1    2    0    0  0.19134265195E-01  0.13429219894E-01 -0.21428724908E-02  0.10204554190E+01  0.10201853783E+01 0.  0.
     999903    2    3    3    0    0  0.81236243871E-01  0.96651581676E-01  0.39109786579E-01  0.13339037112E+00  0.17959959431E-01 0.  0.
         14    1    1    2    0    0 -0.19134265195E-01 -0.13429219894E-01  0.21428724908E-02  0.23474581019E-01  0.00000000000E+00 0.  1.
     999901    1    3    3    0    0 -0.62101978676E-01 -0.83222361781E-01 -0.41252659070E-01  0.88706504786E+00  0.88000000000E+00 0. -1.
        -11    1    4    4    0    0  0.75638285604E-01  0.90376902081E-01  0.40954414259E-01  0.12476642115E+00  0.51100000000E-03 0.  1.
         11    1    4    4    0    0  0.55979582668E-02  0.62746795946E-02 -0.18446276803E-02  0.86239499680E-02  0.51100000000E-03 0. -1.
</event>
<event>
 8    1  0.1106168E+005  0.1043930E+01  0.7957747E-01            NaN
         13   -1    0    0    0    0  0.00000000000E+00  0.00000000000E+00  0.74505805969E-08  0.10566000000E+00  0.10566000000E+00 0. -1.
     999900   -1    0    0    0    0 -0.00000000000E+00 -0.00000000000E+00 -0.74505805969E-08  0.93827000000E+00  0.93827000000E+00 0.  1.
     999902    2    1    2    0    0  0.21772446643E-01 -0.73709408440E-02  0.84372315736E-02  0.10194441453E+01  0.10191500421E+01 0.  0.
     999903    2    3    3    0    0  0.49705289654E-01  0.83370368170E-01  0.85616315929E-01  0.13097870429E+00  0.20100579984E-01 0.  0.
         14    1    1    2    0    0 -0.21772446643E-01  0.73709408440E-02 -0.84372315736E-02  0.24485854659E-01  0.00000000000E+00 0. -1.
     999901    1    3    3    0    0 -0.27932843010E-01 -0.90741309014E-01 -0.77179084356E-01  0.88846544105E+00  0.88000000000E+00 0.  1.
        -11    1    4    4    0    0  0.37519038043E-01  0.75712145550E-01  0.76100920526E-01  0.11371727408E+00  0.51100000000E-03 0. -1.
         11    1    4    4    0    0  0.12186251611E-01  0.76582226204E-02  0.95153954033E-02  0.17261430205E-01  0.51100000000E-03 0.  1.
</event>
<event>
 8    1  0.1106168E+005  0.1043930E+01  0.7957747E-01            NaN
         13   -1    0    0    0    0  0.00000000000E+00  0.00000000000E+00  0.74505805969E-08  0.10566000000E+00  0.10566000000E+00 0.  1.
     999900   -1    0    0    0    0 -0.00000000000E+00 -0.00000000000E+00 -0.74505805969E-08  0.93827000000E+00  0.93827000000E+00 0.  1.
     999902    2    1    2    0    0  0.20921481040E-01 -0.95024751523E-03  0.89936054004E-02  0.10211375390E+01  0.10208831360E+01 0.  0.
     999903    2    3    3    0    0  0.47232201766E-01  0.93444609439E-01 -0.77124230752E-01  0.13152024785E+00  0.19663486717E-01 0.  0.
         14    1    1    2    0    0 -0.20921481040E-01  0.95024751523E-03 -0.89936054004E-02  0.22792460976E-01  0.00000000000E+00 0. -1.
     999901    1    3    3    0    0 -0.26310720727E-01 -0.94394856954E-01  0.86117836152E-01  0.88961729117E+00  0.88000000000E+00 0. -1.
        -11    1    4    4    0    0  0.78673002762E-02  0.28659614488E-01 -0.30145384480E-01  0.42335248230E-01  0.51100000000E-03 0.  1.
         11    1    4    4    0    0  0.39364901490E-01  0.64784994950E-01 -0.46978846272E-01  0.89184999625E-01  0.51100000000E-03 0. -1.
</event>
<event>
 8    1  0.1106168E+005  0.1043930E+01  0.7957747E-01            NaN
         13   -1    0    0    0    0  0.00000000000E+00  0.00000000000E+00  0.74505805969E-08  0.10566000000E+00  0.10566000000E+00 0. -1.
     999900   -1    0    0    0    0 -0.00000000000E+00 -0.00000000000E+00 -0.74505805969E-08  0.93827000000E+00  0.93827000000E+00 0.  1.
     999902    2    1    2    0    0 -0.47544930386E-02  0.21074700579E-01  0.89413302098E-02  0.10205484775E+01  0.10202805983E+01 0.  0.
     999903    2    3    3    0    0 -0.84650050392E-01  0.89144686923E-01  0.48790965512E-01  0.13341555817E+00  0.17514183051E-01 0.  0.
         14    1    1    2    0    0  0.47544930386E-02 -0.21074700579E-01 -0.89413302098E-02  0.23381522501E-01  0.00000000000E+00 0.  1.
     999901    1    3    3    0    0  0.79895557353E-01 -0.68069986345E-01 -0.39849635302E-01  0.88713291933E+00  0.88000000000E+00 0.  1.
        -11    1    4    4    0    0 -0.74829001131E-01  0.72152980149E-01  0.36109733501E-01  0.11004365465E+00  0.51100000000E-03 0. -1.
         11    1    4    4    0    0 -0.98210492605E-02  0.16991706774E-01  0.12681232011E-01  0.23371903517E-01  0.51100000000E-03 0.  1.
</event>
<event>
 8    1  0.1106168E+005  0.1043930E+01  0.7957747E-01            NaN
         13   -1    0    0    0    0  0.00000000000E+00  0.00000000000E+00  0.74505805969E-08  0.10566000000E+00  0.10566000000E+00 0. -1.
     999900   -1    0    0    0    0 -0.00000000000E+00 -0.00000000000E+00 -0.74505805969E-08  0.93827000000E+00  0.93827000000E+00 0. -1.
     999902    2    1    2    0    0 -0.38421905547E-02 -0.16518081918E-01  0.16385760595E-01  0.10203481721E+01  0.10200756294E+01 0.  0.
     999903    2    3    3    0    0 -0.12704498404E+00  0.23028405933E-01  0.78189851382E-03  0.13074919863E+00  0.20591409063E-01 0.  0.
         14    1    1    2    0    0  0.38421905547E-02  0.16518081918E-01 -0.16385760595E-01  0.23581827935E-01  0.00000000000E+00 0.  1.
     999901    1    3    3    0    0  0.12320279349E+00 -0.39546487851E-01  0.15603862081E-01  0.88959897343E+00  0.88000000000E+00 0. -1.
        -11    1    4    4    0    0 -0.94337509404E-01  0.11180327443E-01  0.75770233800E-02  0.95300775477E-01  0.51100000000E-03 0. -1.
         11    1    4    4    0    0 -0.32707474637E-01  0.11848078490E-01 -0.67951248662E-02  0.35448423153E-01  0.51100000000E-03 0.  1.
</event>
<event>
 8    1  0.1106168E+005  0.1043930E+01  0.7957747E-01            NaN
         13   -1    0    0    0    0  0.00000000000E+00  0.00000000000E+00  0.74505805969E-08  0.10566000000E+00  0.10566000000E+00 0.  1.
     999900   -1    0    0    0    0 -0.00000000000E+00 -0.00000000000E+00 -0.74505805969E-08  0.93827000000E+00  0.93827000000E+00 0. -1.
     999902    2    1    2    0    0  0.45292499317E-02 -0.22202211365E-01  0.98436852753E-02  0.10192247286E+01  0.10189252657E+01 0.  0.
     999903    2    3    3    0    0  0.63294670783E-01  0.10684989309E+00  0.22486606406E-01  0.12778338797E+00  0.19995793822E-01 0.  0.
         14    1    1    2    0    0 -0.45292499317E-02  0.22202211365E-01 -0.98436852753E-02  0.24705271386E-01  0.00000000000E+00 0. -1.
     999901    1    3    3    0    0 -0.58765420851E-01 -0.12905210446E+00 -0.12642921131E-01  0.89144134064E+00  0.88000000000E+00 0. -1.
        -11    1    4    4    0    0  0.24505752936E-01  0.43597674686E-01  0.18994843755E-01  0.53500975461E-01  0.51100000000E-03 0.  1.
         11    1    4    4    0    0  0.38788917847E-01  0.63252218406E-01  0.34917626511E-02  0.74282412511E-01  0.51100000000E-03 0. -1.
</event>
<event>
 8    1  0.1106168E+005  0.1043930E+01  0.7957747E-01            NaN
         13   -1    0    0    0    0  0.00000000000E+00  0.00000000000E+00  0.74505805969E-08  0.10566000000E+00  0.10566000000E+00 0.  1.
     999900   -1    0    0    0    0 -0.00000000000E+00 -0.00000000000E+00 -0.74505805969E-08  0.93827000000E+00  0.93827000000E+00 0.  1.
     999902    2    1    2    0    0  0.17200812567E-01  0.12602932160E-01  0.11568080553E-01  0.10196705206E+01  0.10193818952E+01 0.  0.
     999903    2    3    3    0    0 -0.55628178749E-01  0.90675499263E-01  0.73932150669E-01  0.13102623580E+00  0.19630871790E-01 0.  0.
         14    1    1    2    0    0 -0.17200812567E-01 -0.12602932160E-01 -0.11568080553E-01  0.24259479378E-01  0.00000000000E+00 0. -1.
     999901    1    3    3    0    0  0.72828991315E-01 -0.78072567103E-01 -0.62364070116E-01  0.88864428482E+00  0.88000000000E+00 0.  1.
        -11    1    4    4    0    0 -0.24226211730E-01  0.31386364124E-01  0.17443109709E-01  0.43319007203E-01  0.51100000000E-03 0. -1.
         11    1    4    4    0    0 -0.31401967018E-01  0.59289135139E-01  0.56489040961E-01  0.87707228595E-01  0.51100000000E-03 0.  1.
</event>
<event>
 8    1  0.1106168E+005  0.1043930E+01  0.7957747E-01            NaN
         13   -1    0    0    0    0  0.00000000000E+00  0.00000000000E+00  0.74505805969E-08  0.10566000000E+00  0.10566000000E+00 0.  1.
     999900   -1    0    0    0    0 -0.00000000000E+00 -0.00000000000E+00 -0.74505805969E-08  0.93827000000E+00  0.93827000000E+00 0.  1.
     999902    2    1    2    0    0  0.98443121101E-02  0.14912318932E-01 -0.16340711205E-01  0.10197162316E+01  0.10194287059E+01 0.  0.
     999903    2    3    3    0    0  0.10667888690E+00 -0.57703152250E-01  0.40889142531E-01  0.12958972505E+00  0.20286354315E-01 0.  0.
         14    1    1    2    0    0 -0.98443121101E-02 -0.14912318932E-01  0.16340711205E-01  0.24213768388E-01  0.00000000000E+00 0. -1.
     999901    1    3    3    0    0 -0.96834574790E-01  0.72615471182E-01 -0.57229853736E-01  0.89012650656E+00  0.88000000000E+00 0. -1.
        -11    1    4    4    0    0  0.32599882513E-01 -0.11305869624E-01  0.19353239028E-01  0.39564934092E-01  0.51100000000E-03 0.  1.
         11    1    4    4    0    0  0.74079004387E-01 -0.46397282626E-01  0.21535903502E-01  0.90024790956E-01  0.51100000000E-03 0. -1.
</event>
<event>
 8    1  0.1106168E+005  0.1043930E+01  0.7957747E-01            NaN
         13   -1    0    0    0    0  0.00000000000E+00  0.00000000000E+00  0.74505805969E-08  0.10566000000E+00  0.10566000000E+00 0.  1.
     999900   -1    0    0    0    0 -0.00000000000E+00 -0.00000000000E+00 -0.74505805969E-08  0.93827000000E+00  0.93827000000E+00 0.  1.
     999902    2    1    2    0    0  0.21926853459E-01  0.10822592400E-02 -0.80325504726E-02  0.10205530871E+01  0.10202853148E+01 0.  0.
     999903    2    3    3    0    0  0.10436074328E+00 -0.44188010326E-01 -0.67858928533E-01  0.13352211868E+00  0.19482735947E-01 0.  0.
         14    1    1    2    0    0 -0.21926853459E-01 -0.10822592400E-02  0.80325504726E-02  0.23376912858E-01  0.00000000000E+00 0. -1.
     999901    1    3    3    0    0 -0.82433889825E-01  0.45270269566E-01  0.59826378060E-01  0.88703096846E+00  0.88000000000E+00 0. -1.
        -11    1    4    4    0    0  0.85650506346E-01 -0.27704179178E-01 -0.54398358382E-01  0.10518066979E+00  0.51100000000E-03 0.  1.
         11    1    4    4    0    0  0.18710236938E-01 -0.16483831148E-01 -0.13460570151E-01  0.28341448893E-01  0.51100000000E-03 0. -1.
</event>
<event>
 8    1  0.1106168E+005  0.1043930E+01  0.7957747E-01            NaN
         13   -1    0    0    0    0  0.00000000000E+00  0.00000000000E+00  0.74505805969E-08  0.10566000000E+00  0.10566000000E+00 0.  1.
     999900   -1    0    0    0    0 -0.00000000000E+00 -0.00000000000E+00 -0.74505805969E-08  0.93827000000E+00  0.93827000000E+00 0.  1.
     999902    2    1    2    0    0 -0.13434276549E-01 -0.19125975790E-03 -0.16906733152E-01  0.10223347692E+01  0.10221066609E+01 0.  0.
     999903    2    3    3    0    0 -0.43919789547E-01  0.78813604547E-02  0.12137056494E+00  0.13097897894E+00  0.20823427535E-01 0.  0.
         14    1    1    2    0    0  0.13434276549E-01  0.19125975790E-03  0.16906733152E-01  0.21595230783E-01  0.00000000000E+00 0.  1.
     999901    1    3    3    0    0  0.30485512998E-01 -0.80726202126E-02 -0.13827729809E+00  0.89135579028E+00  0.88000000000E+00 0.  1.
        -11    1    4    4    0    0 -0.16311348307E-01  0.69713454290E-03  0.20844154869E-01  0.26481804949E-01  0.51100000000E-03 0.  1.
         11    1    4    4    0    0 -0.27608441239E-01  0.71842259118E-02  0.10052641007E+00  0.10449717399E+00  0.51100000000E-03 0. -1.
</event>
<event>
 8    1  0.1106168E+005  0.1043930E+01  0.7957747E-01            NaN
         13   -1    0    0    0    0  0.00000000000E+00  0.00000000000E+00  0.74505805969E-08  0.10566000000E+00  0.10566000000E+00 0.  1.
     999900   -1    0    0    0    0 -0.00000000000E+00 -0.00000000000E+00 -0.74505805969E-08  0.93827000000E+00  0.93827000000E+00 0. -1.
     999902    2    1    2    0    0 -0.79883440911E-03 -0.14835947445E-01 -0.18496884210E-01  0.10202049458E+01  0.10199290432E+01 0.  0.
     999903    2    3    3    0    0 -0.88378259223E-01 -0.94672568597E-01  0.13210674221E-01  0.13169528854E+00  0.19887562970E-01 0.  0.
         14    1    1    2    0    0  0.79883440911E-03  0.14835947445E-01  0.18496884210E-01  0.23725054236E-01  0.00000000000E+00 0.  1.
     999901    1    3    3    0    0  0.87579424814E-01  0.79836621152E-01 -0.31707558430E-01  0.88850965723E+00  0.88000000000E+00 0.  1.
        -11    1    4    4    0    0 -0.32802693760E-01 -0.46808350912E-01  0.11624952843E-01  0.58330430160E-01  0.51100000000E-03 0.  1.
         11    1    4    4    0    0 -0.55575565463E-01 -0.47864217685E-01  0.15857213781E-02  0.73364858375E-01  0.51100000000E-03 0. -1.
</event>
<event>
 8    1  0.1106168E+005  0.1043930E+01  0.7957747E-01            NaN
         13   -1    0    0    0    0  0.00000000000E+00  0.00000000000E+00  0.74505805969E-08  0.10566000000E+00  0.10566000000E+00 0.  1.
     999900   -1    0    0    0    0 -0.00000000000E+00 -0.00000000000E+00 -0.74505805969E-08  0.93827000000E+00  0.93827000000E+00 0. -1.
     999902    2    1    2    0    0  0.27534240256E-01 -0.71135941583E-02 -0.54427922269E-04  0.10154916356E+01  0.10150933560E+01 0.  0.
     999903    2    3    3    0    0  0.93712770044E-01  0.83589462687E-01  0.16520264042E-01  0.12820286481E+00  0.19843736539E-01 0.  0.
         14    1    1    2    0    0 -0.27534240256E-01  0.71135941583E-02  0.54427922269E-04  0.28438364417E-01  0.00000000000E+00 0. -1.
     999901    1    3    3    0    0 -0.66178529787E-01 -0.90703056846E-01 -0.16574691965E-01  0.88728877077E+00  0.88000000000E+00 0.  1.
        -11    1    4    4    0    0  0.81052280672E-02  0.15952053070E-01  0.43548261507E-02  0.18422495786E-01  0.51100000000E-03 0. -1.
         11    1    4    4    0    0  0.85607541976E-01  0.67637409617E-01  0.12165437892E-01  0.10978036902E+00  0.51100000000E-03 0.  1.
</event>
<event>
 8    1  0.1106168E+005  0.1043930E+01  0.7957747E-01            NaN
         13   -1    0    0    0    0  0.00000000000E+00  0.00000000000E+00  0.74505805969E-08  0.10566000000E+00  0.10566000000E+00 0. -1.
     999900   -1    0    0    0    0 -0.00000000000E+00 -0.00000000000E+00 -0.74505805969E-08  0.93827000000E+00  0.93827000000E+00 0.  1.
     999902    2    1    2    0    0 -0.74343016974E-02  0.22217475159E-01  0.30338627186E-02  0.10203060848E+01  0.10200325570E+01 0.  0.
     999903    2    3    3    0    0 -0.11484737408E+00 -0.54226739701E-01  0.19566396363E-01  0.13033158478E+00  0.21749011314E-01 0.  0.
         14    1    1    2    0    0  0.74343016974E-02 -0.22217475159E-01 -0.30338627186E-02  0.23623915153E-01  0.00000000000E+00 0.  1.
     999901    1    3    3    0    0  0.10741307238E+00  0.76444214860E-01 -0.16532533645E-01  0.88997450007E+00  0.88000000000E+00 0. -1.
        -11    1    4    4    0    0 -0.91981977567E-01 -0.35314446462E-01  0.20499069298E-01  0.10063929297E+00  0.51100000000E-03 0.  1.
         11    1    4    4    0    0 -0.22865396510E-01 -0.18912293239E-01 -0.93267293488E-03  0.29692291810E-01  0.51100000000E-03 0. -1.
</event>
<event>
 8    1  0.1106168E+005  0.1043930E+01  0.7957747E-01            NaN
         13   -1    0    0    0    0  0.00000000000E+00  0.00000000000E+00  0.74505805969E-08  0.10566000000E+00  0.10566000000E+00 0.  1.
     999900   -1    0    0    0    0 -0.00000000000E+00 -0.00000000000E+00 -0.74505805969E-08  0.93827000000E+00  0.93827000000E+00 0.  1.
     999902    2    1    2    0    0  0.12224347803E-02  0.18223252798E-01 -0.14873310709E-01  0.10203758781E+01  0.10201039829E+01 0.  0.
     999903    2    3    3    0    0  0.83877677442E-01  0.79008036412E-01  0.59529578327E-01  0.13129631527E+00  0.20425893298E-01 0.  0.
         14    1    1    2    0    0 -0.12224347803E-02 -0.18223252798E-01  0.14873310709E-01  0.23554121949E-01  0.00000000000E+00 0. -1.
     999901    1    3    3    0    0 -0.82655242661E-01 -0.60784783613E-01 -0.74402889035E-01  0.88907956278E+00  0.88000000000E+00 0.  1.
        -11    1    4    4    0    0  0.44056553887E-01  0.27669030808E-01  0.25153004821E-01  0.57788320435E-01  0.51100000000E-03 0. -1.
         11    1    4    4    0    0  0.39821123555E-01  0.51339005604E-01  0.34376573506E-01  0.73507994835E-01  0.51100000000E-03 0.  1.
</event>
<event>
 8    1  0.1106168E+005  0.1043930E+01  0.7957747E-01            NaN
         13   -1    0    0    0    0  0.00000000000E+00  0.00000000000E+00  0.74505805969E-08  0.10566000000E+00  0.10566000000E+00 0. -1.
     999900   -1    0    0    0    0 -0.00000000000E+00 -0.00000000000E+00 -0.74505805969E-08  0.93827000000E+00  0.93827000000E+00 0.  1.
     999902    2    1    2    0    0 -0.23790071306E-01  0.37350687604E-02 -0.30002381011E-03  0.10198466397E+01  0.10195622395E+01 0.  0.
     999903    2    3    3    0    0 -0.50225158662E-01 -0.86321685441E-01  0.82486053076E-01  0.13099200173E+00  0.19518084591E-01 0.  0.
         14    1    1    2    0    0  0.23790071306E-01 -0.37350687604E-02  0.30002381011E-03  0.24083360348E-01  0.00000000000E+00 0. -1.
     999901    1    3    3    0    0  0.26435087356E-01  0.90056754202E-01 -0.82786076887E-01  0.88885463792E+00  0.88000000000E+00 0.  1.
        -11    1    4    4    0    0 -0.29050131016E-01 -0.66757634901E-01  0.56187162322E-01  0.91966027751E-01  0.51100000000E-03 0. -1.
         11    1    4    4    0    0 -0.21175027647E-01 -0.19564050541E-01  0.26298890755E-01  0.39025973983E-01  0.51100000000E-03 0.  1.
</event>
<event>
 8    1  0.1106168E+005  0.1043930E+01  0.7957747E-01            NaN
         13   -1    0    0    0    0  0.00000000000E+00  0.00000000000E+00  0.74505805969E-08  0.10566000000E+00  0.10566000000E+00 0. -1.
     999900   -1    0    0    0    0 -0.00000000000E+00 -0.00000000000E+00 -0.74505805969E-08  0.93827000000E+00  0.93827000000E+00 0.  1.
     999902    2    1    2    0    0 -0.22381162225E-01  0.75922384292E-02 -0.23168299774E-02  0.10201828695E+01  0.10199064472E+01 0.  0.
     999903    2    3    3    0    0 -0.12949043255E+00 -0.17432200455E-01  0.16527906585E-01  0.13313510164E+00  0.19496919155E-01 0.  0.
         14    1    1    2    0    0  0.22381162225E-01 -0.75922384292E-02  0.23168299774E-02  0.23747130522E-01  0.00000000000E+00 0.  1.
     999901    1    3    3    0    0  0.10710927033E+00  0.25024438885E-01 -0.18844736562E-01  0.88704776784E+00  0.88000000000E+00 0.  1.
        -11    1    4    4    0    0 -0.68042414772E-01  0.30499210054E-04  0.50746627878E-02  0.68233309033E-01  0.51100000000E-03 0. -1.
         11    1    4    4    0    0 -0.61448017782E-01 -0.17462699666E-01  0.11453243797E-01  0.64901792605E-01  0.51100000000E-03 0.  1.
</event>
<event>
 8    1  0.1106168E+005  0.1043930E+01  0.7957747E-01            NaN
         13   -1    0    0    0    0  0.00000000000E+00  0.00000000000E+00  0.74505805969E-08  0.10566000000E+00  0.10566000000E+00 0. -1.
     999900   -1    0    0    0    0 -0.00000000000E+00 -0.00000000000E+00 -0.74505805969E-08  0.93827000000E+00  0.93827000000E+00 0. -1.
     999902    2    1    2    0    0 -0.10072337096E-01  0.20694711948E-01 -0.47031417892E-02  0.10204386693E+01  0.10201682386E+01 0.  0.
     999903    2    3    3    0    0 -0.30928482261E-01 -0.69116831544E-01  0.10260446952E+00  0.12913848662E+00  0.20380484367E-01 0.  0.
         14    1    1    2    0    0  0.10072337096E-01 -0.20694711948E-01  0.47031417892E-02  0.23491330739E-01  0.00000000000E+00 0. -1.
     999901    1    3    3    0    0  0.20856145166E-01  0.89811543492E-01 -0.10730761131E+00  0.89130018264E+00  0.88000000000E+00 0. -1.
        -11    1    4    4    0    0 -0.31069758784E-01 -0.56056643382E-01  0.92876008043E-01  0.11284454426E+00  0.51100000000E-03 0. -1.
         11    1    4    4    0    0  0.14127652234E-03 -0.13060188163E-01  0.97284614753E-02  0.16293942358E-01  0.51100000000E-03 0.  1.
</event>
<event>
 8    1  0.1106168E+005  0.1043930E+01  0.7957747E-01            NaN
         13   -1    0    0    0    0  0.00000000000E+00  0.00000000000E+00  0.74505805969E-08  0.10566000000E+00  0.10566000000E+00 0.  1.
     999900   -1    0    0    0    0 -0.00000000000E+00 -0.00000000000E+00 -0.74505805969E-08  0.93827000000E+00  0.93827000000E+00 0.  1.
     999902    2    1    2    0    0 -0.74624051217E-02  0.17270648812E-01  0.45004269792E-03  0.10251107190E+01  0.10249379595E+01 0.  0.
     999903    2    3    3    0    0 -0.30617184707E-01 -0.81742846411E-01  0.99274224895E-01  0.13376003879E+00  0.20422323782E-01 0.  0.
         14    1    1    2    0    0  0.74624051217E-02 -0.17270648812E-01 -0.45004269792E-03  0.18819281044E-01  0.00000000000E+00 0.  1.
     999901    1    3    3    0    0  0.23154779585E-01  0.99013495223E-01 -0.98824182197E-01  0.89135068017E+00  0.88000000000E+00 0.  1.
        -11    1    4    4    0    0 -0.18980130432E-01 -0.42921162733E-01  0.67720965252E-01  0.82394549682E-01  0.51100000000E-03 0.  1.
         11    1    4    4    0    0 -0.11637054275E-01 -0.38821683678E-01  0.31553259643E-01  0.51365489104E-01  0.51100000000E-03 0. -1.
</event>
<event>
 8    1  0.1106168E+005  0.1043930E+01  0.7957747E-01            NaN
         13   -1    0    0    0    0  0.00000000000E+00  0.00000000000E+00  0.74505805969E-08  0.10566000000E+00  0.10566000000E+00 0. -1.
     999900   -1    0    0    0    0 -0.00000000000E+00 -0.00000000000E+00 -0.74505805969E-08  0.93827000000E+00  0.93827000000E+00 0. -1.
     999902    2    1    2    0    0 -0.16620161761E-01 -0.12411721262E-01  0.11660234732E-01  0.10201341668E+01  0.10198565961E+01 0.  0.
     999903    2    3    3    0    0 -0.22781253635E-01 -0.12688383938E+00 -0.21092710517E-01  0.13209442657E+00  0.19635194994E-01 0.  0.
         14    1    1    2    0    0  0.16620161761E-01  0.12411721262E-01 -0.11660234732E-01  0.23795833157E-01  0.00000000000E+00 0.  1.
     999901    1    3    3    0    0  0.61610918739E-02  0.11447211811E+00  0.32752945249E-01  0.88803974027E+00  0.88000000000E+00 0.  1.
        -11    1    4    4    0    0 -0.28012043263E-02 -0.70802689156E-01 -0.11937308205E-01  0.71858388414E-01  0.51100000000E-03 0. -1.
         11    1    4    4    0    0 -0.19980049308E-01 -0.56081150220E-01 -0.91554023120E-02  0.60236038157E-01  0.51100000000E-03 0.  1.
</event>
<event>
 8    1  0.1106168E+005  0.1043930E+01  0.7957747E-01            NaN
         13   -1    0    0    0    0  0.00000000000E+00  0.00000000000E+00  0.74505805969E-08  0.10566000000E+00  0.10566000000E+00 0.  1.
     999900   -1    0    0    0    0 -0.00000000000E+00 -0.00000000000E+00 -0.74505805969E-08  0.93827000000E+00  0.93827000000E+00 0. -1.
     999902    2    1    2    0    0  0.26520978372E-02  0.16777991627E-01  0.16307875144E-01  0.10203825709E+01  0.10201108320E+01 0.  0.
     999903    2    3    3    0    0  0.72684900928E-01  0.87663549176E-01  0.66612875806E-01  0.13333130469E+00  0.19286495526E-01 0.  0.
         14    1    1    2    0    0 -0.26520978372E-02 -0.16777991627E-01 -0.16307875144E-01  0.23547429110E-01  0.00000000000E+00 0. -1.
     999901    1    3    3    0    0 -0.70032803091E-01 -0.70885557549E-01 -0.50305000661E-01  0.88705126620E+00  0.88000000000E+00 0. -1.
        -11    1    4    4    0    0  0.40534188514E-01  0.37725691669E-01  0.39624010947E-01  0.68092375600E-01  0.51100000000E-03 0. -1.
         11    1    4    4    0    0  0.32150712414E-01  0.49937857508E-01  0.26988864859E-01  0.65238929088E-01  0.51100000000E-03 0.  1.
</event>
<event>
 8    1  0.1106168E+005  0.1043930E+01  0.7957747E-01            NaN
         13   -1    0    0    0    0  0.00000000000E+00  0.00000000000E+00  0.74505805969E-08  0.10566000000E+00  0.10566000000E+00 0. -1.
     999900   -1    0    0    0    0 -0.00000000000E+00 -0.00000000000E+00 -0.74505805969E-08  0.93827000000E+00  0.93827000000E+00 0.  1.
     999902    2    1    2    0    0 -0.21400112538E-01  0.14516884029E-02  0.80514962230E-02  0.10210193298E+01  0.10207622510E+01 0.  0.
     999903    2    3    3    0    0 -0.93911651530E-01 -0.41843162610E-01 -0.81197297931E-01  0.13248249061E+00  0.19706866214E-01 0.  0.
         14    1    1    2    0    0  0.21400112538E-01 -0.14516884029E-02 -0.80514962230E-02  0.22910670163E-01  0.00000000000E+00 0. -1.
     999901    1    3    3    0    0  0.72511538992E-01  0.43294851013E-01  0.89248794154E-01  0.88853683923E+00  0.88000000000E+00 0. -1.
        -11    1    4    4    0    0 -0.46318416574E-01 -0.10533756699E-01 -0.32769416402E-01  0.57710064255E-01  0.51100000000E-03 0. -1.
         11    1    4    4    0    0 -0.47593234956E-01 -0.31309405911E-01 -0.48427881529E-01  0.74772426352E-01  0.51100000000E-03 0.  1.
</event>
<event>
 8    1  0.1106168E+005  0.1043930E+01  0.7957747E-01            NaN
         13   -1    0    0    0    0  0.00000000000E+00  0.00000000000E+00  0.74505805969E-08  0.10566000000E+00  0.10566000000E+00 0.  1.
     999900   -1    0    0    0    0 -0.00000000000E+00 -0.00000000000E+00 -0.74505805969E-08  0.93827000000E+00  0.93827000000E+00 0. -1.
     999902    2    1    2    0    0 -0.14159212587E-01 -0.76148920550E-02 -0.94983667439E-02  0.10252567878E+01  0.10250867242E+01 0.  0.
     999903    2    3    3    0    0 -0.12106439507E+00 -0.57899431690E-01  0.24111026590E-01  0.13672606563E+00  0.10185454046E-01 0.  0.
         14    1    1    2    0    0  0.14159212587E-01  0.76148920550E-02  0.94983667439E-02  0.18673212174E-01  0.00000000000E+00 0. -1.
     999901    1    3    3    0    0  0.10690518249E+00  0.50284539635E-01 -0.33609393334E-01  0.88853072220E+00  0.88000000000E+00 0. -1.
        -11    1    4    4    0    0 -0.67486439790E-01 -0.28856917092E-01  0.17225190565E-01  0.75393033700E-01  0.51100000000E-03 0. -1.
         11    1    4    4    0    0 -0.53577955284E-01 -0.29042514598E-01  0.68858360252E-02  0.61333031928E-01  0.51100000000E-03 0.  1.
</event>
<event>
 8    1  0.1305125E+005  0.1043930E+01  0.7957747E-01            NaN
         13   -1    0    0    0    0  0.00000000000E+00  0.00000000000E+00  0.74505805969E-08  0.10566000000E+00  0.10566000000E+00 0.  1.
     999900   -1    0    0    0    0 -0.00000000000E+00 -0.00000000000E+00 -0.74505805969E-08  0.93827000000E+00  0.93827000000E+00 0.  1.
     999902    2    1    2    0    0  0.12788202562E-02 -0.23316327703E-01  0.20016542256E-01  0.10131737245E+01  0.10127067925E+01 0.  0.
     999903    2    3    3    0    0  0.32844611646E-01 -0.49873107460E-01 -0.10685880019E+00  0.12311810025E+00  0.13159333961E-01 0.  0.
         14    1    1    2    0    0 -0.12788202562E-02  0.23316327703E-01 -0.20016542256E-01  0.30756275501E-01  0.00000000000E+00 0. -1.
     999901    1    3    3    0    0 -0.31565791390E-01  0.26556779757E-01  0.12687534244E+00  0.89005562425E+00  0.88000000000E+00 0. -1.
        -11    1    4    4    0    0  0.24504331182E-01 -0.25475351015E-01 -0.60728940670E-01  0.70268919957E-01  0.51100000000E-03 0.  1.
         11    1    4    4    0    0  0.83402804636E-02 -0.24397756445E-01 -0.46129859516E-01  0.52849180293E-01  0.51100000000E-03 0. -1.
</event>
<event>
 8    1  0.1106168E+005  0.1043930E+01  0.7957747E-01            NaN
         13   -1    0    0    0    0  0.00000000000E+00  0.00000000000E+00  0.74505805969E-08  0.10566000000E+00  0.10566000000E+00 0.  1.
     999900   -1    0    0    0    0 -0.00000000000E+00 -0.00000000000E+00 -0.74505805969E-08  0.93827000000E+00  0.93827000000E+00 0.  1.
     999902    2    1    2    0    0  0.11262255950E-01 -0.67423750108E-02 -0.20431187500E-01  0.10196456130E+01  0.10193563874E+01 0.  0.
     999903    2    3    3    0    0 -0.76384428427E-01 -0.44825397493E-01  0.89659425201E-01  0.12765222686E+00  0.20307174336E-01 0.  0.
         14    1    1    2    0    0 -0.11262255950E-01  0.67423750108E-02  0.20431187500E-01  0.24284387012E-01  0.00000000000E+00 0.  1.
     999901    1    3    3    0    0  0.87646684377E-01  0.38083022482E-01 -0.11009061270E+00  0.89199338612E+00  0.88000000000E+00 0.  1.
        -11    1    4    4    0    0 -0.59154345061E-01 -0.24117104070E-01  0.64699916220E-01  0.90924207603E-01  0.51100000000E-03 0.  1.
         11    1    4    4    0    0 -0.17230083366E-01 -0.20708293423E-01  0.24959508981E-01  0.36728019262E-01  0.51100000000E-03 0. -1.
</event>
<event>
 8    1  0.1106168E+005  0.1043930E+01  0.7957747E-01            NaN
         13   -1    0    0    0    0  0.00000000000E+00  0.00000000000E+00  0.74505805969E-08  0.10566000000E+00  0.10566000000E+00 0. -1.
     999900   -1    0    0    0    0 -0.00000000000E+00 -0.00000000000E+00 -0.74505805969E-08  0.93827000000E+00  0.93827000000E+00 0. -1.
     999902    2    1    2    0    0 -0.22726905546E-01  0.61703780746E-02  0.48357726045E-02  0.10198889830E+01  0.10196055939E+01 0.  0.
     999903    2    3    3    0    0 -0.10311719674E+00 -0.20470343063E-01 -0.77435536248E-01  0.13200335118E+00  0.19401835996E-01 0.  0.
         14    1    1    2    0    0  0.22726905546E-01 -0.61703780746E-02 -0.48357726045E-02  0.24041016991E-01  0.00000000000E+00 0. -1.
     999901    1    3    3    0    0  0.80390291198E-01  0.26640721138E-01  0.82271308852E-01  0.88788563183E+00  0.88000000000E+00 0.  1.
        -11    1    4    4    0    0 -0.18073271275E-01  0.16971688191E-02 -0.19992199046E-01  0.27008751550E-01  0.51100000000E-03 0. -1.
         11    1    4    4    0    0 -0.85043925469E-01 -0.22167511882E-01 -0.57443337202E-01  0.10499459963E+00  0.51100000000E-03 0.  1.
</event>
<event>
 8    1  0.1106168E+005  0.1043930E+01  0.7957747E-01            NaN
         13   -1    0    0    0    0  0.00000000000E+00  0.00000000000E+00  0.74505805969E-08  0.10566000000E+00  0.10566000000E+00 0.  1.
     999900   -1    0    0    0    0 -0.00000000000E+00 -0.00000000000E+00 -0.74505805969E-08  0.93827000000E+00  0.93827000000E+00 0.  1.
     999902    2    1    2    0    0  0.18769568688E-01 -0.74739035694E-02  0.14336798455E-01  0.10191570362E+01  0.10188559097E+01 0.  0.
     999903    2    3    3    0    0  0.11895390831E+00 -0.65435961536E-02 -0.50925855061E-01  0.13107090229E+00  0.19831484083E-01 0.  0.
         14    1    1    2    0    0 -0.18769568688E-01  0.74739035694E-02 -0.14336798455E-01  0.24772963756E-01  0.00000000000E+00 0. -1.
     999901    1    3    3    0    0 -0.10018433962E+00 -0.93030741583E-03  0.65262653516E-01  0.88808613395E+00  0.88000000000E+00 0.  1.
        -11    1    4    4    0    0  0.50812438223E-01 -0.12579904796E-01 -0.21093179487E-01  0.56438827279E-01  0.51100000000E-03 0.  1.
         11    1    4    4    0    0  0.68141470086E-01  0.60363086421E-02 -0.29832675574E-01  0.74632075011E-01  0.51100000000E-03 0. -1.
</event>
<event>
 8    1  0.1106168E+005  0.1043930E+01  0.7957747E-01            NaN
         13   -1    0    0    0    0  0.00000000000E+00  0.00000000000E+00  0.74505805969E-08  0.10566000000E+00  0.10566000000E+00 0. -1.
     999900   -1    0    0    0    0 -0.00000000000E+00 -0.00000000000E+00 -0.74505805969E-08  0.93827000000E+00  0.93827000000E+00 0. -1.
     999902    2    1    2    0    0 -0.54918836081E-02 -0.51039194644E-02 -0.22519827405E-01  0.10201949330E+01  0.10199187948E+01 0.  0.
     999903    2    3    3    0    0  0.12681265096E+00 -0.18557209360E-01 -0.37955304051E-02  0.13000614393E+00  0.21479593733E-01 0.  0.
         14    1    1    2    0    0  0.54918836081E-02  0.51039194644E-02  0.22519827405E-01  0.23735067007E-01  0.00000000000E+00 0. -1.
     999901    1    3    3    0    0 -0.13230453456E+00  0.13453289896E-01 -0.18724297000E-01  0.89018878906E+00  0.88000000000E+00 0.  1.
        -11    1    4    4    0    0  0.53031946140E-01 -0.17972935310E-01  0.16430105481E-02  0.56021195272E-01  0.51100000000E-03 0.  1.
         11    1    4    4    0    0  0.73780704815E-01 -0.58427404999E-03 -0.54385409533E-02  0.73984948658E-01  0.51100000000E-03 0. -1.
</event>
<event>
 8    1  0.1106168E+005  0.1043930E+01  0.7957747E-01            NaN
         13   -1    0    0    0    0  0.00000000000E+00  0.00000000000E+00  0.74505805969E-08  0.10566000000E+00  0.10566000000E+00 0. -1.
     999900   -1    0    0    0    0 -0.00000000000E+00 -0.00000000000E+00 -0.74505805969E-08  0.93827000000E+00  0.93827000000E+00 0.  1.
     999902    2    1    2    0    0 -0.18189491934E-01 -0.12877453216E-01  0.74903944261E-02  0.10204184618E+01  0.10201475603E+01 0.  0.
     999903    2    3    3    0    0 -0.79417892101E-01 -0.85878992785E-01  0.61602424824E-01  0.13362296478E+00  0.19437977898E-01 0.  0.
         14    1    1    2    0    0  0.18189491934E-01  0.12877453216E-01 -0.74903944261E-02  0.23511538164E-01  0.00000000000E+00 0.  1.
     999901    1    3    3    0    0  0.61228400167E-01  0.73001539569E-01 -0.54112030398E-01  0.88679549706E+00  0.88000000000E+00 0.  1.
        -11    1    4    4    0    0 -0.47933018461E-02 -0.57703826947E-02 -0.87192395297E-03  0.75693085160E-02  0.51100000000E-03 0.  1.
         11    1    4    4    0    0 -0.74624590255E-01 -0.80108610090E-01  0.62474348777E-01  0.12605365626E+00  0.51100000000E-03 0. -1.
</event>
<event>
 8    1  0.1106168E+005  0.1043930E+01  0.7957747E-01            NaN
         13   -1    0    0    0    0  0.00000000000E+00  0.00000000000E+00  0.74505805969E-08  0.10566000000E+00  0.10566000000E+00 0. -1.
     999900   -1    0    0    0    0 -0.00000000000E+00 -0.00000000000E+00 -0.74505805969E-08  0.93827000000E+00  0.93827000000E+00 0. -1.
     999902    2    1    2    0    0  0.13415543646E-01 -0.18890618195E-01 -0.11830788754E-03  0.10207600569E+01  0.10204970590E+01 0.  0.
     999903    2    3    3    0    0  0.43732129295E-01  0.11968822482E+00  0.10230811184E-01  0.12933967605E+00  0.19654821575E-01 0.  0.
         14    1    1    2    0    0 -0.13415543646E-01  0.18890618195E-01  0.11830788754E-03  0.23169943114E-01  0.00000000000E+00 0. -1.
     999901    1    3    3    0    0 -0.30316585648E-01 -0.13857884302E+00 -0.10349119071E-01  0.89142038083E+00  0.88000000000E+00 0.  1.
        -11    1    4    4    0    0  0.12009488838E-01  0.61028163037E-01  0.66154655798E-02  0.62551498876E-01  0.51100000000E-03 0.  1.
         11    1    4    4    0    0  0.31722640457E-01  0.58660061783E-01  0.36153456037E-02  0.66788177178E-01  0.51100000000E-03 0. -1.
</event>
<event>
 8    1  0.1106168E+005  0.1043930E+01  0.7957747E-01            NaN
         13   -1    0    0    0    0  0.00000000000E+00  0.00000000000E+00  0.74505805969E-08  0.10566000000E+00  0.10566000000E+00 0. -1.
     999900   -1    0    0    0    0 -0.00000000000E+00 -0.00000000000E+00 -0.74505805969E-08  0.93827000000E+00  0.93827000000E+00 0. -1.
     999902    2    1    2    0    0 -0.16199837008E-01 -0.90306812571E-02  0.14775058072E-01  0.10202173396E+01  0.10199417286E+01 0.  0.
     999903    2    3    3    0    0 -0.19844547183E-02 -0.58524968949E-01  0.11761243540E+00  0.13273365647E+00  0.18879315381E-01 0.  0.
         14    1    1    2    0    0  0.16199837008E-01  0.90306812571E-02 -0.14775058072E-01  0.23712660418E-01  0.00000000000E+00 0.  1.
     999901    1    3    3    0    0 -0.14215382290E-01  0.49494287692E-01 -0.10283737733E+00  0.88748368311E+00  0.88000000000E+00 0. -1.
        -11    1    4    4    0    0 -0.58246255290E-02 -0.52992531818E-01  0.92861784592E-01  0.10707804093E+00  0.51100000000E-03 0.  1.
         11    1    4    4    0    0  0.38401708107E-02 -0.55324371303E-02  0.24750650808E-01  0.25655615543E-01  0.51100000000E-03 0. -1.
</event>
<event>
 8    1  0.1106168E+005  0.1043930E+01  0.7957747E-01            NaN
         13   -1    0    0    0    0  0.00000000000E+00  0.00000000000E+00  0.74505805969E-08  0.10566000000E+00  0.10566000000E+00 0. -1.
     999900   -1    0    0    0    0 -0.00000000000E+00 -0.00000000000E+00 -0.74505805969E-08  0.93827000000E+00  0.93827000000E+00 0.  1.
     999902    2    1    2    0    0 -0.41271952969E-02 -0.17576960300E-01  0.12175416123E-01  0.10221533145E+01  0.10219213151E+01 0.  0.
     999903    2    3    3    0    0 -0.50052139843E-01 -0.46928591159E-01  0.11418397997E+00  0.13458564615E+00  0.19178255836E-01 0.  0.
         14    1    1    2    0    0  0.41271952969E-02  0.17576960300E-01 -0.12175416123E-01  0.21776685518E-01  0.00000000000E+00 0.  1.
     999901    1    3    3    0    0  0.45924944547E-01  0.29351630859E-01 -0.10200856385E+00  0.88756766833E+00  0.88000000000E+00 0.  1.
        -11    1    4    4    0    0 -0.29034928084E-01 -0.38597998557E-01  0.83576100307E-01  0.96530089636E-01  0.51100000000E-03 0. -1.
         11    1    4    4    0    0 -0.21017211759E-01 -0.83305926019E-02  0.30607879664E-01  0.38055556516E-01  0.51100000000E-03 0.  1.
</event>
<event>
 8    1  0.1106168E+005  0.1043930E+01  0.7957747E-01            NaN
         13   -1    0    0    0    0  0.00000000000E+00  0.00000000000E+00  0.74505805969E-08  0.10566000000E+00  0.10566000000E+00 0.  1.
     999900   -1    0    0    0    0 -0.00000000000E+00 -0.00000000000E+00 -0.74505805969E-08  0.93827000000E+00  0.93827000000E+00 0. -1.
     999902    2    1    2    0    0 -0.19251255475E-01  0.18265159701E-01 -0.16427555264E-01  0.10127195616E+01  0.10122385188E+01 0.  0.
     999903    2    3    3    0    0  0.10802111209E+00 -0.16625471148E-01 -0.50938991899E-01  0.12221035277E+00  0.19890260954E-01 0.  0.
         14    1    1    2    0    0  0.19251255475E-01 -0.18265159701E-01  0.16427555264E-01  0.31210438449E-01  0.00000000000E+00 0.  1.
     999901    1    3    3    0    0 -0.12727236756E+00  0.34890630848E-01  0.34511436635E-01  0.89050920878E+00  0.88000000000E+00 0. -1.
        -11    1    4    4    0    0  0.63940961279E-01 -0.19053138407E-01 -0.26896421909E-01  0.71938496265E-01  0.51100000000E-03 0. -1.
         11    1    4    4    0    0  0.44080150808E-01  0.24276672592E-02 -0.24042569990E-01  0.50271856504E-01  0.51100000000E-03 0.  1.
</event>
<event>
 8    1  0.1106168E+005  0.1043930E+01  0.7957747E-01            NaN
         13   -1    0    0    0    0  0.00000000000E+00  0.00000000000E+00  0.74505805969E-08  0.10566000000E+00  0.10566000000E+00 0.  1.
     999900   -1    0    0    0    0 -0.00000000000E+00 -0.00000000000E+00 -0.74505805969E-08  0.93827000000E+00  0.93827000000E+00 0. -1.
     999902    2    1    2    0    0 -0.22546314233E-02  0.22995442748E-01 -0.91461185679E-03  0.10208061970E+01  0.10205442575E+01 0.  0.
     999903    2    3    3    0    0  0.70200438670E-01 -0.18323673143E-01 -0.10657306977E+00  0.13056987094E+00  0.20659462942E-01 0.  0.
         14    1    1    2    0    0  0.22546314233E-02 -0.22995442748E-01  0.91461185679E-03  0.23123802994E-01  0.00000000000E+00 0. -1.
     999901    1    3    3    0    0 -0.72455070094E-01  0.41319115892E-01  0.10565845792E+00  0.89023632607E+00  0.88000000000E+00 0.  1.
        -11    1    4    4    0    0  0.26074429757E-01 -0.17289564240E-01 -0.44981323849E-01  0.54794028279E-01  0.51100000000E-03 0.  1.
         11    1    4    4    0    0  0.44126008914E-01 -0.10341089029E-02 -0.61591745924E-01  0.75775842660E-01  0.51100000000E-03 0. -1.
</event>
<event>
 8    1  0.1106168E+005  0.1043930E+01  0.7957747E-01            NaN
         13   -1    0    0    0    0  0.00000000000E+00  0.00000000000E+00  0.74505805969E-08  0.10566000000E+00  0.10566000000E+00 0. -1.
     999900   -1    0    0    0    0 -0.00000000000E+00 -0.00000000000E+00 -0.74505805969E-08  0.93827000000E+00  0.93827000000E+00 0.  1.
     999902    2    1    2    0    0 -0.89616613577E-02 -0.14512047630E-01 -0.15828525993E-01  0.10206608544E+01  0.10203955736E+01 0.  0.
     999903    2    3    3    0    0  0.99992723703E-01 -0.67575665640E-01 -0.47591436204E-01  0.13178758559E+00  0.23194989457E-01 0.  0.
         14    1    1    2    0    0  0.89616613577E-02  0.14512047630E-01  0.15828525993E-01  0.23269145576E-01  0.00000000000E+00 0. -1.
     999901    1    3    3    0    0 -0.10895438506E+00  0.53063618010E-01  0.31762910211E-01  0.88887326883E+00  0.88000000000E+00 0. -1.
        -11    1    4    4    0    0  0.80506234152E-01 -0.64489405281E-01 -0.39466139071E-01  0.11044444026E+00  0.51100000000E-03 0.  1.
         11    1    4    4    0    0  0.19486489551E-01 -0.30862603589E-02 -0.81252971336E-02  0.21343145329E-01  0.51100000000E-03 0. -1.
</event>
<event>
 8    1  0.1106168E+005  0.1043930E+01  0.7957747E-01            NaN
         13   -1    0    0    0    0  0.00000000000E+00  0.00000000000E+00  0.74505805969E-08  0.10566000000E+00  0.10566000000E+00 0. -1.
     999900   -1    0    0    0    0 -0.00000000000E+00 -0.00000000000E+00 -0.74505805969E-08  0.93827000000E+00  0.93827000000E+00 0. -1.
     999902    2    1    2    0    0  0.10272189530E-01 -0.29589759659E-01  0.13061366571E-01  0.10099937207E+01  0.10094234220E+01 0.  0.
     999903    2    3    3    0    0  0.31944318872E-01  0.68943631931E-01  0.91786781519E-01  0.12073773879E+00  0.19471117437E-01 0.  0.
         14    1    1    2    0    0 -0.10272189530E-01  0.29589759659E-01 -0.13061366571E-01  0.33936279276E-01  0.00000000000E+00 0.  1.
     999901    1    3    3    0    0 -0.21672129342E-01 -0.98533391590E-01 -0.78725414948E-01  0.88925598193E+00  0.88000000000E+00 0.  1.
        -11    1    4    4    0    0  0.23579540974E-01  0.30772811182E-01  0.53094331437E-01  0.65743667469E-01  0.51100000000E-03 0.  1.
         11    1    4    4    0    0  0.83647778972E-02  0.38170820749E-01  0.38692450082E-01  0.54994071320E-01  0.51100000000E-03 0. -1.
</event>
<event>
 8    1  0.1106168E+005  0.1043930E+01  0.7957747E-01            NaN
         13   -1    0    0    0    0  0.00000000000E+00  0.00000000000E+00  0.74505805969E-08  0.10566000000E+00  0.10566000000E+00 0. -1.
     999900   -1    0    0    0    0 -0.00000000000E+00 -0.00000000000E+00 -0.74505805969E-08  0.93827000000E+00  0.93827000000E+00 0.  1.
     999902    2    1    2    0    0  0.61887354931E-02 -0.13328689353E-01 -0.17874877784E-01  0.10207898690E+01  0.10205275552E+01 0.  0.
     999903    2    3    3    0    0 -0.44671231587E-01  0.47594996655E-01  0.10835516880E+00  0.12824717734E+00  0.21111448383E-01 0.  0.
         14    1    1    2    0    0 -0.61887354931E-02  0.13328689353E-01  0.17874877784E-01  0.23140130999E-01  0.00000000000E+00 0. -1.
     999901    1    3    3    0    0  0.50859967080E-01 -0.60923686009E-01 -0.12623004658E+00  0.89254269166E+00  0.88000000000E+00 0. -1.
        -11    1    4    4    0    0 -0.29419575935E-01  0.37248615916E-01  0.92337392902E-01  0.10382401497E+00  0.51100000000E-03 0.  1.
         11    1    4    4    0    0 -0.15251655653E-01  0.10346380740E-01  0.16017775898E-01  0.24423162373E-01  0.51100000000E-03 0. -1.
</event>
<event>
 8    1  0.1106168E+005  0.1043930E+01  0.7957747E-01            NaN
         13   -1    0    0    0    0  0.00000000000E+00  0.00000000000E+00  0.74505805969E-08  0.10566000000E+00  0.10566000000E+00 0. -1.
     999900   -1    0    0    0    0 -0.00000000000E+00 -0.00000000000E+00 -0.74505805969E-08  0.93827000000E+00  0.93827000000E+00 0. -1.
     999902    2    1    2    0    0 -0.15739180574E-01 -0.13877201970E-01  0.98069960605E-02  0.10207680547E+01  0.10205052404E+01 0.  0.
     999903    2    3    3    0    0 -0.14535276125E-02 -0.11744881129E+00 -0.56276883443E-01  0.13211838395E+00  0.22177550657E-01 0.  0.
         14    1    1    2    0    0  0.15739180574E-01  0.13877201970E-01 -0.98069960605E-02  0.23161945329E-01  0.00000000000E+00 0.  1.
     999901    1    3    3    0    0 -0.14285652962E-01  0.10357160932E+00  0.66083879503E-01  0.88864967072E+00  0.88000000000E+00 0. -1.
        -11    1    4    4    0    0 -0.96517710100E-02 -0.80142575700E-01 -0.44326909333E-01  0.92093024358E-01  0.51100000000E-03 0.  1.
         11    1    4    4    0    0  0.81982433975E-02 -0.37306235588E-01 -0.11949974110E-01  0.40025359595E-01  0.51100000000E-03 0. -1.
</event>
<event>
 8    1  0.1106168E+005  0.1043930E+01  0.7957747E-01            NaN
         13   -1    0    0    0    0  0.00000000000E+00  0.00000000000E+00  0.74505805969E-08  0.10566000000E+00  0.10566000000E+00 0. -1.
     999900   -1    0    0    0    0 -0.00000000000E+00 -0.00000000000E+00 -0.74505805969E-08  0.93827000000E+00  0.93827000000E+00 0.  1.
     999902    2    1    2    0    0  0.15042678321E-01  0.48925225646E-02 -0.20078245617E-01  0.10183691922E+01  0.10180483568E+01 0.  0.
     999903    2    3    3    0    0  0.26849734242E-01  0.26775871962E-01  0.11954807759E+00  0.12701415762E+00  0.20074805877E-01 0.  0.
         14    1    1    2    0    0 -0.15042678321E-01 -0.48925225646E-02  0.20078245617E-01  0.25560807796E-01  0.00000000000E+00 0. -1.
     999901    1    3    3    0    0 -0.11807055921E-01 -0.21883349397E-01 -0.13962632321E+00  0.89135503459E+00  0.88000000000E+00 0.  1.
        -11    1    4    4    0    0  0.23718158389E-01  0.10040132929E-01  0.67440170828E-01  0.72192749420E-01  0.51100000000E-03 0.  1.
         11    1    4    4    0    0  0.31315758533E-02  0.16735739033E-01  0.52107906765E-01  0.54821408197E-01  0.51100000000E-03 0. -1.
</event>
<event>
 8    1  0.1106168E+005  0.1043930E+01  0.7957747E-01            NaN
         13   -1    0    0    0    0  0.00000000000E+00  0.00000000000E+00  0.74505805969E-08  0.10566000000E+00  0.10566000000E+00 0. -1.
     999900   -1    0    0    0    0 -0.00000000000E+00 -0.00000000000E+00 -0.74505805969E-08  0.93827000000E+00  0.93827000000E+00 0. -1.
     999902    2    1    2    0    0  0.20726824879E-01 -0.49732642429E-03  0.77905327171E-02  0.10217818397E+01  0.10215417696E+01 0.  0.
     999903    2    3    3    0    0  0.12968587021E+00  0.26276715558E-01  0.14536187613E-01  0.13463223186E+00  0.20140665187E-01 0.  0.
         14    1    1    2    0    0 -0.20726824879E-01  0.49732642429E-03 -0.77905327171E-02  0.22148160266E-01  0.00000000000E+00 0. -1.
     999901    1    3    3    0    0 -0.10895904533E+00 -0.26774041983E-01 -0.67456548956E-02  0.88714960787E+00  0.88000000000E+00 0.  1.
        -11    1    4    4    0    0  0.57535085746E-01  0.15261268292E-02  0.69772749118E-02  0.57978949983E-01  0.51100000000E-03 0. -1.
         11    1    4    4    0    0  0.72150784463E-01  0.24750588729E-01  0.75589127008E-02  0.76653281882E-01  0.51100000000E-03 0.  1.
</event>
<event>
 8    1  0.1106168E+005  0.1043930E+01  0.7957747E-01            NaN
         13   -1    0    0    0    0  0.00000000000E+00  0.00000000000E+00  0.74505805969E-08  0.10566000000E+00  0.10566000000E+00 0. -1.
     999900   -1    0    0    0    0 -0.00000000000E+00 -0.00000000000E+00 -0.74505805969E-08  0.93827000000E+00  0.93827000000E+00 0.  1.
     999902    2    1    2    0    0 -0.73244925525E-02  0.15850562302E-01  0.18261454874E-01  0.10186640298E+01  0.10183506451E+01 0.  0.
     999903    2    3    3    0    0  0.62052441475E-01 -0.10297126290E+00 -0.33246249421E-01  0.12648421119E+00  0.20960823085E-01 0.  0.
         14    1    1    2    0    0  0.73244925525E-02 -0.15850562302E-01 -0.18261454874E-01  0.25265970208E-01  0.00000000000E+00 0.  1.
     999901    1    3    3    0    0 -0.69376934027E-01  0.11882182520E+00  0.51507704295E-01  0.89217981860E+00  0.88000000000E+00 0. -1.
        -11    1    4    4    0    0  0.26445878594E-01 -0.25790204389E-01 -0.12359507446E-01  0.38955586022E-01  0.51100000000E-03 0. -1.
         11    1    4    4    0    0  0.35606562881E-01 -0.77181058507E-01 -0.20886741975E-01  0.87528625168E-01  0.51100000000E-03 0.  1.
</event>
<event>
 8    1  0.1106168E+005  0.1043930E+01  0.7957747E-01            NaN
         13   -1    0    0    0    0  0.00000000000E+00  0.00000000000E+00  0.74505805969E-08  0.10566000000E+00  0.10566000000E+00 0. -1.
     999900   -1    0    0    0    0 -0.00000000000E+00 -0.00000000000E+00 -0.74505805969E-08  0.93827000000E+00  0.93827000000E+00 0.  1.
     999902    2    1    2    0    0 -0.99282998031E-02 -0.10547417562E-01  0.17342365894E-01  0.10213340533E+01  0.10210840668E+01 0.  0.
     999903    2    3    3    0    0 -0.76306706389E-01 -0.30262009975E-01  0.10443561570E+00  0.13432785702E+00  0.19966788831E-01 0.  0.
         14    1    1    2    0    0  0.99282998031E-02  0.10547417562E-01 -0.17342365894E-01  0.22595946738E-01  0.00000000000E+00 0.  1.
     999901    1    3    3    0    0  0.66378406586E-01  0.19714592412E-01 -0.87093249807E-01  0.88700619624E+00  0.88000000000E+00 0.  1.
        -11    1    4    4    0    0 -0.52688027279E-01 -0.11060888414E-01  0.71079163537E-01  0.89167707614E-01  0.51100000000E-03 0.  1.
         11    1    4    4    0    0 -0.23618679111E-01 -0.19201121561E-01  0.33356452163E-01  0.45160149403E-01  0.51100000000E-03 0. -1.
</event>
<event>
 8    1  0.1106168E+005  0.1043930E+01  0.7957747E-01            NaN
         13   -1    0    0    0    0  0.00000000000E+00  0.00000000000E+00  0.74505805969E-08  0.10566000000E+00  0.10566000000E+00 0. -1.
     999900   -1    0    0    0    0 -0.00000000000E+00 -0.00000000000E+00 -0.74505805969E-08  0.93827000000E+00  0.93827000000E+00 0. -1.
     999902    2    1    2    0    0  0.12028935379E-01 -0.77459944540E-02 -0.19018772262E-01  0.10201306426E+01  0.10198529887E+01 0.  0.
     999903    2    3    3    0    0 -0.12059526247E+00 -0.37119492835E-01 -0.16167847201E-01  0.12970371796E+00  0.25309703498E-01 0.  0.
         14    1    1    2    0    0 -0.12028935379E-01  0.77459944540E-02  0.19018772262E-01  0.23799357445E-01  0.00000000000E+00 0. -1.
     999901    1    3    3    0    0  0.13262419785E+00  0.29373498381E-01 -0.28509250607E-02  0.89042692459E+00  0.88000000000E+00 0.  1.
        -11    1    4    4    0    0 -0.51278841664E-01 -0.25473782186E-01 -0.15850532714E-01  0.59413245069E-01  0.51100000000E-03 0. -1.
         11    1    4    4    0    0 -0.69316420809E-01 -0.11645710649E-01 -0.31731448672E-03  0.70290472895E-01  0.51100000000E-03 0.  1.
</event>
<event>
 8    1  0.1106168E+005  0.1043930E+01  0.7957747E-01            NaN
         13   -1    0    0    0    0  0.00000000000E+00  0.00000000000E+00  0.74505805969E-08  0.10566000000E+00  0.10566000000E+00 0.  1.
     999900   -1    0    0    0    0 -0.00000000000E+00 -0.00000000000E+00 -0.74505805969E-08  0.93827000000E+00  0.93827000000E+00 0. -1.
     999902    2    1    2    0    0  0.19960794317E-01 -0.12785210762E-02  0.84797783283E-02  0.10222050244E+01  0.10219741373E+01 0.  0.
     999903    2    3    3    0    0 -0.71394529725E-01 -0.10730178972E+00 -0.11719622023E-01  0.13091677441E+00  0.19773702995E-01 0.  0.
         14    1    1    2    0    0 -0.19960794317E-01  0.12785210762E-02 -0.84797783283E-02  0.21724975636E-01  0.00000000000E+00 0. -1.
     999901    1    3    3    0    0  0.91355324042E-01  0.10602326865E+00  0.20199400351E-01  0.89128824995E+00  0.88000000000E+00 0.  1.
        -11    1    4    4    0    0 -0.14534015516E-01 -0.20764250860E-01 -0.10289473453E-01  0.27359205138E-01  0.51100000000E-03 0. -1.
         11    1    4    4    0    0 -0.56860514209E-01 -0.86537538862E-01 -0.14301485700E-02  0.10355756928E+00  0.51100000000E-03 0.  1.
</event>
<event>
 8    1  0.1106168E+005  0.1043930E+01  0.7957747E-01            NaN
         13   -1    0    0    0    0  0.00000000000E+00  0.00000000000E+00  0.74505805969E-08  0.10566000000E+00  0.10566000000E+00 0.  1.
     999900   -1    0    0    0    0 -0.00000000000E+00 -0.00000000000E+00 -0.74505805969E-08  0.93827000000E+00  0.93827000000E+00 0.  1.
     999902    2    1    2    0    0  0.16778523873E-01  0.16856155022E-01 -0.51909367022E-02  0.10195867330E+01  0.10192960862E+01 0.  0.
     999903    2    3    3    0    0 -0.84594620306E-01 -0.92715437516E-01  0.26258941745E-03  0.12699937636E+00  0.19400270698E-01 0.  0.
         14    1    1    2    0    0 -0.16778523873E-01 -0.16856155022E-01  0.51909367022E-02  0.24343267023E-01  0.00000000000E+00 0.  1.
     999901    1    3    3    0    0  0.10137314418E+00  0.10957159254E+00 -0.54535261196E-02  0.89258735662E+00  0.88000000000E+00 0.  1.
        -11    1    4    4    0    0 -0.50574218250E-01 -0.49779752644E-01  0.89682306387E-02  0.71529473693E-01  0.51100000000E-03 0.  1.
         11    1    4    4    0    0 -0.34020402056E-01 -0.42935684872E-01 -0.87056412213E-02  0.55469902664E-01  0.51100000000E-03 0. -1.
</event>
<event>
 8    1  0.1106168E+005  0.1043930E+01  0.7957747E-01            NaN
         13   -1    0    0    0    0  0.00000000000E+00  0.00000000000E+00  0.74505805969E-08  0.10566000000E+00  0.10566000000E+00 0. -1.
     999900   -1    0    0    0    0 -0.00000000000E+00 -0.00000000000E+00 -0.74505805969E-08  0.93827000000E+00  0.93827000000E+00 0.  1.
     999902    2    1    2    0    0  0.12049317436E-01 -0.13420851117E-01 -0.16358509011E-01  0.10195803365E+01  0.10192895352E+01 0.  0.
     999903    2    3    3    0    0  0.10791582393E+00 -0.46051043671E-01  0.54566644632E-01  0.13093783586E+00  0.20016854790E-01 0.  0.
         14    1    1    2    0    0 -0.12049317436E-01  0.13420851117E-01  0.16358509011E-01  0.24349663498E-01  0.00000000000E+00 0. -1.
     999901    1    3    3    0    0 -0.95866506491E-01  0.32630192554E-01 -0.70925153643E-01  0.88864250064E+00  0.88000000000E+00 0. -1.
        -11    1    4    4    0    0  0.78714110538E-01 -0.32890714738E-01  0.49126725113E-01  0.98444941744E-01  0.51100000000E-03 0.  1.
         11    1    4    4    0    0  0.29201713389E-01 -0.13160328933E-01  0.54399195191E-02  0.32492894114E-01  0.51100000000E-03 0. -1.
</event>
<event>
 8    1  0.1106168E+005  0.1043930E+01  0.7957747E-01            NaN
         13   -1    0    0    0    0  0.00000000000E+00  0.00000000000E+00  0.74505805969E-08  0.10566000000E+00  0.10566000000E+00 0. -1.
     999900   -1    0    0    0    0 -0.00000000000E+00 -0.00000000000E+00 -0.74505805969E-08  0.93827000000E+00  0.93827000000E+00 0.  1.
     999902    2    1    2    0    0  0.13694852954E-01  0.11891689720E-01  0.55096316895E-02  0.10249743327E+01  0.10247990366E+01 0.  0.
     999903    2    3    3    0    0  0.12871352826E+00  0.15382187116E-01 -0.37848303828E-01  0.13642417101E+00  0.19372049360E-01 0.  0.
         14    1    1    2    0    0 -0.13694852954E-01 -0.11891689720E-01 -0.55096316895E-02  0.18955667311E-01  0.00000000000E+00 0.  1.
     999901    1    3    3    0    0 -0.11501867531E+00 -0.34904973957E-02  0.43357935517E-01  0.88855016168E+00  0.88000000000E+00 0. -1.
        -11    1    4    4    0    0  0.68120025602E-01 -0.15925317016E-02 -0.19630920951E-01  0.70911975178E-01  0.51100000000E-03 0.  1.
         11    1    4    4    0    0  0.60593502658E-01  0.16974718818E-01 -0.18217382877E-01  0.65512195836E-01  0.51100000000E-03 0. -1.
</event>
<event>
 8    1  0.1106168E+005  0.1043930E+01  0.7957747E-01            NaN
         13   -1    0    0    0    0  0.00000000000E+00  0.00000000000E+00  0.74505805969E-08  0.10566000000E+00  0.10566000000E+00 0.  1.
     999900   -1    0    0    0    0 -0.00000000000E+00 -0.00000000000E+00 -0.74505805969E-08  0.93827000000E+00  0.93827000000E+00 0.  1.
     999902    2    1    2    0    0  0.24641564182E-01  0.39316041677E-02 -0.16254035586E-02  0.10189238781E+01  0.10186169855E+01 0.  0.
     999903    2    3    3    0    0  0.80707991170E-01  0.10092116591E+00 -0.15794702204E-01  0.13170846549E+00  0.19969619343E-01 0.  0.
         14    1    1    2    0    0 -0.24641564182E-01 -0.39316041677E-02  0.16254035586E-02  0.25006121918E-01  0.00000000000E+00 0. -1.
     999901    1    3    3    0    0 -0.56066426988E-01 -0.96989561738E-01  0.14169298646E-01  0.88721541259E+00  0.88000000000E+00 0.  1.
        -11    1    4    4    0    0  0.29277866909E-01  0.31055080075E-01  0.35207119574E-02  0.42828355360E-01  0.51100000000E-03 0. -1.
         11    1    4    4    0    0  0.51430124261E-01  0.69866085831E-01 -0.19315414162E-01  0.88880110127E-01  0.51100000000E-03 0.  1.
</event>
<event>
 8    1  0.1106168E+005  0.1043930E+01  0.7957747E-01            NaN
         13   -1    0    0    0    0  0.00000000000E+00  0.00000000000E+00  0.74505805969E-08  0.10566000000E+00  0.10566000000E+00 0. -1.
     999900   -1    0    0    0    0 -0.00000000000E+00 -0.00000000000E+00 -0.74505805969E-08  0.93827000000E+00  0.93827000000E+00 0. -1.
     999902    2    1    2    0    0 -0.97505639507E-02 -0.20762148820E-01 -0.73836623515E-02  0.10198331373E+01  0.10195484143E+01 0.  0.
     999903    2    3    3    0    0 -0.81366131579E-01  0.33835512673E-01 -0.95322729249E-01  0.13087702274E+00  0.16645812829E-01 0.  0.
         14    1    1    2    0    0  0.97505639507E-02  0.20762148820E-01  0.73836623515E-02  0.24096862674E-01  0.00000000000E+00 0. -1.
     999901    1    3    3    0    0  0.71615567628E-01 -0.54597661493E-01  0.87939066898E-01  0.88895611458E+00  0.88000000000E+00 0. -1.
        -11    1    4    4    0    0 -0.22307374322E-01  0.16272119332E-01 -0.35711267894E-01  0.45143732591E-01  0.51100000000E-03 0.  1.
         11    1    4    4    0    0 -0.59058757257E-01  0.17563393341E-01 -0.59611461356E-01  0.85733290153E-01  0.51100000000E-03 0. -1.
</event>
<event>
 8    1  0.1106168E+005  0.1043930E+01  0.7957747E-01            NaN
         13   -1    0    0    0    0  0.00000000000E+00  0.00000000000E+00  0.74505805969E-08  0.10566000000E+00  0.10566000000E+00 0.  1.
     999900   -1    0    0    0    0 -0.00000000000E+00 -0.00000000000E+00 -0.74505805969E-08  0.93827000000E+00  0.93827000000E+00 0.  1.
     999902    2    1    2    0    0  0.10164966614E-01 -0.21487326061E-01  0.14308367497E-02  0.10201165790E+01  0.10198385929E+01 0.  0.
     999903    2    3    3    0    0 -0.40659190957E-02  0.69648421280E-01  0.10683065714E+00  0.12904005886E+00  0.19264298608E-01 0.  0.
         14    1    1    2    0    0 -0.10164966614E-01  0.21487326061E-01 -0.14308367497E-02  0.23813421034E-01  0.00000000000E+00 0.  1.
     999901    1    3    3    0    0  0.14230885710E-01 -0.91135747341E-01 -0.10539982039E+00  0.89107652011E+00  0.88000000000E+00 0.  1.
        -11    1    4    4    0    0 -0.80305344994E-02  0.31380224483E-01  0.62067464409E-01  0.70013136140E-01  0.51100000000E-03 0. -1.
         11    1    4    4    0    0  0.39646154037E-02  0.38268196796E-01  0.44763192728E-01  0.59026922718E-01  0.51100000000E-03 0.  1.
</event>
<event>
 8    1  0.1106168E+005  0.1043930E+01  0.7957747E-01            NaN
         13   -1    0    0    0    0  0.00000000000E+00  0.00000000000E+00  0.74505805969E-08  0.10566000000E+00  0.10566000000E+00 0.  1.
     999900   -1    0    0    0    0 -0.00000000000E+00 -0.00000000000E+00 -0.74505805969E-08  0.93827000000E+00  0.93827000000E+00 0. -1.
     999902    2    1    2    0    0 -0.12580408841E-01  0.17793348793E-01 -0.95503315063E-02  0.10201375899E+01  0.10198601000E+01 0.  0.
     999903    2    3    3    0    0  0.92028536805E-01 -0.65394901823E-01 -0.58634064391E-01  0.12869352018E+00  0.19450549061E-01 0.  0.
         14    1    1    2    0    0  0.12580408841E-01 -0.17793348793E-01  0.95503315063E-02  0.23792410129E-01  0.00000000000E+00 0.  1.
     999901    1    3    3    0    0 -0.10460894565E+00  0.83188250616E-01  0.49083732885E-01  0.89144406969E+00  0.88000000000E+00 0. -1.
        -11    1    4    4    0    0  0.64489443479E-01 -0.36207605841E-01 -0.43490774331E-01  0.85799694719E-01  0.51100000000E-03 0.  1.
         11    1    4    4    0    0  0.27539093326E-01 -0.29187295982E-01 -0.15143290060E-01  0.42893825463E-01  0.51100000000E-03 0. -1.
</event>
<event>
 8    1  0.1106168E+005  0.1043930E+01  0.7957747E-01            NaN
         13   -1    0    0    0    0  0.00000000000E+00  0.00000000000E+00  0.74505805969E-08  0.10566000000E+00  0.10566000000E+00 0. -1.
     999900   -1    0    0    0    0 -0.00000000000E+00 -0.00000000000E+00 -0.74505805969E-08  0.93827000000E+00  0.93827000000E+00 0. -1.
     999902    2    1    2    0    0  0.19355684227E-01  0.68839695120E-02  0.11672006488E-01  0.10203023195E+01  0.10200287035E+01 0.  0.
     999903    2    3    3    0    0  0.12628647332E+00  0.36468801496E-01  0.22526163987E-02  0.13328587052E+00  0.21949992526E-01 0.  0.
         14    1    1    2    0    0 -0.19355684227E-01 -0.68839695120E-02 -0.11672006488E-01  0.23627680454E-01  0.00000000000E+00 0.  1.
     999901    1    3    3    0    0 -0.10693078910E+00 -0.29584831984E-01  0.94193900895E-02  0.88701644903E+00  0.88000000000E+00 0. -1.
        -11    1    4    4    0    0  0.82097046423E-01  0.13476931673E-01  0.53879002465E-02  0.83371717679E-01  0.51100000000E-03 0. -1.
         11    1    4    4    0    0  0.44189426899E-01  0.22991869823E-01 -0.31352838478E-02  0.49914152838E-01  0.51100000000E-03 0.  1.
</event>
<event>
 8    1  0.1106168E+005  0.1043930E+01  0.7957747E-01            NaN
         13   -1    0    0    0    0  0.00000000000E+00  0.00000000000E+00  0.74505805969E-08  0.10566000000E+00  0.10566000000E+00 0. -1.
     999900   -1    0    0    0    0 -0.00000000000E+00 -0.00000000000E+00 -0.74505805969E-08  0.93827000000E+00  0.93827000000E+00 0.  1.
     999902    2    1    2    0    0  0.19874219906E-01  0.78936846421E-02  0.12521147853E-01  0.10191494831E+01  0.10188481707E+01 0.  0.
     999903    2    3    3    0    0  0.33049593256E-01  0.12929675941E-01  0.12536817595E+00  0.13183138714E+00  0.20071944626E-01 0.  0.
         14    1    1    2    0    0 -0.19874219906E-01 -0.78936846421E-02 -0.12521147853E-01  0.24780516896E-01  0.00000000000E+00 0. -1.
     999901    1    3    3    0    0 -0.13175373350E-01 -0.50359912988E-02 -0.11284702809E+00  0.88731809596E+00  0.88000000000E+00 0.  1.
        -11    1    4    4    0    0  0.11762594717E-02  0.81040692038E-02  0.32748141692E-01  0.33760352920E-01  0.51100000000E-03 0.  1.
         11    1    4    4    0    0  0.31873333784E-01  0.48256067371E-02  0.92620034256E-01  0.98071034222E-01  0.51100000000E-03 0. -1.
</event>
<event>
 8    1  0.1106168E+005  0.1043930E+01  0.7957747E-01            NaN
         13   -1    0    0    0    0  0.00000000000E+00  0.00000000000E+00  0.74505805969E-08  0.10566000000E+00  0.10566000000E+00 0. -1.
     999900   -1    0    0    0    0 -0.00000000000E+00 -0.00000000000E+00 -0.74505805969E-08  0.93827000000E+00  0.93827000000E+00 0. -1.
     999902    2    1    2    0    0 -0.11896439428E-01 -0.16382952618E-01  0.80196890943E-02  0.10221529061E+01  0.10219208979E+01 0.  0.
     999903    2    3    3    0    0 -0.12657548807E+00 -0.55563953838E-02  0.39023801516E-01  0.13410462272E+00  0.20222884129E-01 0.  0.
         14    1    1    2    0    0  0.11896439428E-01  0.16382952618E-01 -0.80196890943E-02  0.21777093946E-01  0.00000000000E+00 0.  1.
     999901    1    3    3    0    0  0.11467904864E+00 -0.10826557234E-01 -0.31004112422E-01  0.88804828333E+00  0.88000000000E+00 0. -1.
        -11    1    4    4    0    0 -0.43733846387E-01 -0.96974900780E-03  0.23619997571E-01  0.49716749081E-01  0.51100000000E-03 0.  1.
         11    1    4    4    0    0 -0.82841641679E-01 -0.45866463760E-02  0.15403803945E-01  0.84387873644E-01  0.51100000000E-03 0. -1.
</event>
<event>
 8    1  0.1106168E+005  0.1043930E+01  0.7957747E-01            NaN
         13   -1    0    0    0    0  0.00000000000E+00  0.00000000000E+00  0.74505805969E-08  0.10566000000E+00  0.10566000000E+00 0. -1.
     999900   -1    0    0    0    0 -0.00000000000E+00 -0.00000000000E+00 -0.74505805969E-08  0.93827000000E+00  0.93827000000E+00 0. -1.
     999902    2    1    2    0    0 -0.53139851046E-02 -0.20978182846E-01  0.11464482347E-01  0.10194400643E+01  0.10191458619E+01 0.  0.
     999903    2    3    3    0    0 -0.74804551356E-02 -0.10093660487E+00 -0.80574472073E-01  0.13103181810E+00  0.20807123634E-01 0.  0.
         14    1    1    2    0    0  0.53139851046E-02  0.20978182846E-01 -0.11464482347E-01  0.24489935661E-01  0.00000000000E+00 0.  1.
     999901    1    3    3    0    0  0.21664700309E-02  0.79958422026E-01  0.92038954420E-01  0.88840824623E+00  0.88000000000E+00 0.  1.
        -11    1    4    4    0    0 -0.13610425517E-02 -0.84339180565E-01 -0.73812408399E-01  0.11208694201E+00  0.51100000000E-03 0. -1.
         11    1    4    4    0    0 -0.61194125839E-02 -0.16597424307E-01 -0.67620636739E-02  0.18944876092E-01  0.51100000000E-03 0.  1.
</event>
<event>
 8    1  0.1106168E+005  0.1043930E+01  0.7957747E-01            NaN
         13   -1    0    0    0    0  0.00000000000E+00  0.00000000000E+00  0.74505805969E-08  0.10566000000E+00  0.10566000000E+00 0. -1.
     999900   -1    0    0    0    0 -0.00000000000E+00 -0.00000000000E+00 -0.74505805969E-08  0.93827000000E+00  0.93827000000E+00 0.  1.
     999902    2    1    2    0    0 -0.22145598303E-01  0.63044886804E-02 -0.25129396331E-02  0.10207677685E+01  0.10205049477E+01 0.  0.
     999903    2    3    3    0    0  0.66219004553E-01  0.47254992395E-01  0.98911499661E-01  0.12960439198E+00  0.19895295553E-01 0.  0.
         14    1    1    2    0    0  0.22145598303E-01 -0.63044886804E-02  0.25129396331E-02  0.23162231484E-01  0.00000000000E+00 0.  1.
     999901    1    3    3    0    0 -0.88364602856E-01 -0.40950503715E-01 -0.10142443929E+00  0.89116337654E+00  0.88000000000E+00 0.  1.
        -11    1    4    4    0    0  0.46955606314E-01  0.21740646723E-01  0.62751179313E-01  0.81335455432E-01  0.51100000000E-03 0.  1.
         11    1    4    4    0    0  0.19263398240E-01  0.25514345672E-01  0.36160320348E-01  0.48268936548E-01  0.51100000000E-03 0. -1.
</event>
<event>
 7    1  0.1106168E+005  0.1043930E+01  0.7957747E-01            NaN
         13   -1    0    0    0    0  0.00000000000E+00  0.00000000000E+00  0.74505805969E-08  0.10566000000E+00  0.10566000000E+00 0. -1.
     999900   -1    0    0    0    0 -0.00000000000E+00 -0.00000000000E+00 -0.74505805969E-08  0.93827000000E+00  0.93827000000E+00 0. -1.
     999902    2    1    2    0    0 -0.70739997091E-04 -0.15259575823E-01 -0.19692164434E-01  0.10190173326E+01  0.10187127579E+01 0.  0.
         14    1    1    2    0    0  0.70739997091E-04  0.15259575823E-01  0.19692164434E-01  0.24912667431E-01  0.00000000000E+00 0. -1.
     999901    1    3    3    0    0  0.96861840614E-01  0.29159637309E-01 -0.68803581744E-01  0.88846296123E+00  0.88000000000E+00 0. -1.
        -11    1    3    3    0    0 -0.54411673196E-02 -0.25668806319E-01  0.30553869585E-02  0.26421400986E-01  0.51100000000E-03 0.  1.
         11    1    3    3    0    0 -0.91491413292E-01 -0.18750406813E-01  0.46056030352E-01  0.10413297035E+00  0.51100000000E-03 0. -1.
</event>
<event>
 8    1  0.1106168E+005  0.1043930E+01  0.7957747E-01            NaN
         13   -1    0    0    0    0  0.00000000000E+00  0.00000000000E+00  0.74505805969E-08  0.10566000000E+00  0.10566000000E+00 0. -1.
     999900   -1    0    0    0    0 -0.00000000000E+00 -0.00000000000E+00 -0.74505805969E-08  0.93827000000E+00  0.93827000000E+00 0.  1.
     999902    2    1    2    0    0 -0.22573164028E-01 -0.57921408066E-02 -0.70655033102E-02  0.10195780398E+01  0.10192871829E+01 0.  0.
     999903    2    3    3    0    0  0.10894430653E+00  0.62581721364E-02 -0.63278096921E-01  0.12794924326E+00  0.21421126428E-01 0.  0.
         14    1    1    2    0    0  0.22573164028E-01  0.57921408066E-02  0.70655033102E-02  0.24351960216E-01  0.00000000000E+00 0. -1.
     999901    1    3    3    0    0 -0.13151747056E+00 -0.12050312943E-01  0.56212593610E-01  0.89162879652E+00  0.88000000000E+00 0. -1.
        -11    1    4    4    0    0  0.40477345780E-01  0.89557665291E-02 -0.33209669630E-01  0.53120283823E-01  0.51100000000E-03 0. -1.
         11    1    4    4    0    0  0.68466960752E-01 -0.26975943927E-02 -0.30068427291E-01  0.74828959440E-01  0.51100000000E-03 0.  1.
</event>
<event>
 8    1  0.1106168E+005  0.1043930E+01  0.7957747E-01            NaN
         13   -1    0    0    0    0  0.00000000000E+00  0.00000000000E+00  0.74505805969E-08  0.10566000000E+00  0.10566000000E+00 0. -1.
     999900   -1    0    0    0    0 -0.00000000000E+00 -0.00000000000E+00 -0.74505805969E-08  0.93827000000E+00  0.93827000000E+00 0. -1.
     999902    2    1    2    0    0  0.11057350997E-01 -0.12771463118E-01 -0.16717605766E-01  0.10201633506E+01  0.10198864683E+01 0.  0.
     999903    2    3    3    0    0 -0.37490359393E-01 -0.12451669778E+00 -0.10921495655E-02  0.13163195974E+00  0.20392277041E-01 0.  0.
         14    1    1    2    0    0 -0.11057350997E-01  0.12771463118E-01  0.16717605766E-01  0.23766649402E-01  0.00000000000E+00 0. -1.
     999901    1    3    3    0    0  0.48547710390E-01  0.11174523466E+00 -0.15625456200E-01  0.88853139085E+00  0.88000000000E+00 0. -1.
        -11    1    4    4    0    0 -0.35686574940E-01 -0.91764542909E-01 -0.50389434864E-02  0.98589629468E-01  0.51100000000E-03 0. -1.
         11    1    4    4    0    0 -0.18037844526E-02 -0.32752154866E-01  0.39467939209E-02  0.33042330275E-01  0.51100000000E-03 0.  1.
</event>
<event>
 8    1  0.1106168E+005  0.1043930E+01  0.7957747E-01            NaN
         13   -1    0    0    0    0  0.00000000000E+00  0.00000000000E+00  0.74505805969E-08  0.10566000000E+00  0.10566000000E+00 0. -1.
     999900   -1    0    0    0    0 -0.00000000000E+00 -0.00000000000E+00 -0.74505805969E-08  0.93827000000E+00  0.93827000000E+00 0. -1.
     999902    2    1    2    0    0 -0.17433474386E-01 -0.79691374556E-02  0.14017272460E-01  0.10201830611E+01  0.10199066433E+01 0.  0.
     999903    2    3    3    0    0  0.15851996398E-03  0.23810912022E-02 -0.12717248501E+00  0.12869489340E+00  0.19591832983E-01 0.  0.
         14    1    1    2    0    0  0.17433474386E-01  0.79691374556E-02 -0.14017272460E-01  0.23746938922E-01  0.00000000000E+00 0. -1.
     999901    1    3    3    0    0 -0.17591994350E-01 -0.10350228658E-01  0.14118975747E+00  0.89148816768E+00  0.88000000000E+00 0.  1.
        -11    1    4    4    0    0 -0.50051023974E-02  0.43254054994E-02 -0.15194985149E-01  0.16580376275E-01  0.51100000000E-03 0.  1.
         11    1    4    4    0    0  0.51636223614E-02 -0.19443142972E-02 -0.11197749986E+00  0.11211451712E+00  0.51100000000E-03 0. -1.
</event>
<event>
 8    1  0.1106168E+005  0.1043930E+01  0.7957747E-01            NaN
         13   -1    0    0    0    0  0.00000000000E+00  0.00000000000E+00  0.74505805969E-08  0.10566000000E+00  0.10566000000E+00 0. -1.
     999900   -1    0    0    0    0 -0.00000000000E+00 -0.00000000000E+00 -0.74505805969E-08  0.93827000000E+00  0.93827000000E+00 0.  1.
     999902    2    1    2    0    0  0.26064363900E-01  0.13681871411E-01  0.17814326272E-02  0.10144390154E+01  0.10140102553E+01 0.  0.
     999903    2    3    3    0    0  0.31873962740E-01  0.10061039294E+00  0.68795451822E-01  0.12760126357E+00  0.20269869379E-01 0.  0.
         14    1    1    2    0    0 -0.26064363900E-01 -0.13681871411E-01 -0.17814326272E-02  0.29490984606E-01  0.00000000000E+00 0. -1.
     999901    1    3    3    0    0 -0.58095988405E-02 -0.86928521529E-01 -0.67014019195E-01  0.88683775183E+00  0.88000000000E+00 0.  1.
        -11    1    4    4    0    0  0.31046008644E-01  0.98571278095E-01  0.62178446994E-01  0.12060917009E+00  0.51100000000E-03 0.  1.
         11    1    4    4    0    0  0.82795409685E-03  0.20391148453E-02  0.66170048280E-02  0.69920934799E-02  0.51100000000E-03 0. -1.
</event>
<event>
 8    1  0.1106168E+005  0.1043930E+01  0.7957747E-01            NaN
         13   -1    0    0    0    0  0.00000000000E+00  0.00000000000E+00  0.74505805969E-08  0.10566000000E+00  0.10566000000E+00 0. -1.
     999900   -1    0    0    0    0 -0.00000000000E+00 -0.00000000000E+00 -0.74505805969E-08  0.93827000000E+00  0.93827000000E+00 0.  1.
     999902    2    1    2    0    0  0.21007180472E-01 -0.83253276543E-02  0.11252853541E-02  0.10213052574E+01  0.10210546262E+01 0.  0.
     999903    2    3    3    0    0 -0.10040790433E+00  0.51449930229E-01  0.59314192432E-01  0.12906053019E+00  0.20238687154E-01 0.  0.
         14    1    1    2    0    0 -0.21007180472E-01  0.83253276543E-02 -0.11252853541E-02  0.22624742630E-01  0.00000000000E+00 0. -1.
     999901    1    3    3    0    0  0.12141508480E+00 -0.59775257883E-01 -0.58188907078E-01  0.89224472718E+00  0.88000000000E+00 0. -1.
        -11    1    4    4    0    0 -0.80660856103E-01  0.35441947876E-01  0.53160040532E-01  0.10290071140E+00  0.51100000000E-03 0. -1.
         11    1    4    4    0    0 -0.19747048223E-01  0.16007982352E-01  0.61541519002E-02  0.26159818790E-01  0.51100000000E-03 0.  1.
</event>
<event>
 8    1  0.1106168E+005  0.1043930E+01  0.7957747E-01            NaN
         13   -1    0    0    0    0  0.00000000000E+00  0.00000000000E+00  0.74505805969E-08  0.10566000000E+00  0.10566000000E+00 0.  1.
     999900   -1    0    0    0    0 -0.00000000000E+00 -0.00000000000E+00 -0.74505805969E-08  0.93827000000E+00  0.93827000000E+00 0.  1.
     999902    2    1    2    0    0  0.14376400906E-01 -0.12738930798E-01  0.36055989078E-02  0.10243861620E+01  0.10241997106E+01 0.  0.
     999903    2    3    3    0    0  0.23714050016E-01  0.12266063493E+00  0.40609989864E-01  0.13321302558E+00  0.22103198405E-01 0.  0.
         14    1    1    2    0    0 -0.14376400906E-01  0.12738930798E-01 -0.36055989078E-02  0.19543838016E-01  0.00000000000E+00 0. -1.
     999901    1    3    3    0    0 -0.93376491091E-02 -0.13539956573E+00 -0.37004390956E-01  0.89117313640E+00  0.88000000000E+00 0. -1.
        -11    1    4    4    0    0  0.26964260188E-01  0.11688252913E+00  0.36448119347E-01  0.12536874997E+00  0.51100000000E-03 0. -1.
         11    1    4    4    0    0 -0.32502101721E-02  0.57781057969E-02  0.41618705163E-02  0.78442756171E-02  0.51100000000E-03 0.  1.
</event>
<event>
 8    1  0.1106168E+005  0.1043930E+01  0.7957747E-01            NaN
         13   -1    0    0    0    0  0.00000000000E+00  0.00000000000E+00  0.74505805969E-08  0.10566000000E+00  0.10566000000E+00 0.  1.
     999900   -1    0    0    0    0 -0.00000000000E+00 -0.00000000000E+00 -0.74505805969E-08  0.93827000000E+00  0.93827000000E+00 0.  1.
     999902    2    1    2    0    0  0.12186572010E-01 -0.20377000858E-01 -0.36352308969E-02  0.10199102247E+01  0.10196273422E+01 0.  0.
     999903    2    3    3    0    0 -0.46453577977E-02  0.10338465779E+00  0.72438236492E-01  0.12784103768E+00  0.19648562095E-01 0.  0.
         14    1    1    2    0    0 -0.12186572010E-01  0.20377000858E-01  0.36352308969E-02  0.24019775291E-01  0.00000000000E+00 0.  1.
     999901    1    3    3    0    0  0.16831929808E-01 -0.12376165865E+00 -0.76073467389E-01  0.89206918703E+00  0.88000000000E+00 0.  1.
        -11    1    4    4    0    0  0.46646733198E-02  0.54661015732E-01  0.46188951281E-01  0.71716568236E-01  0.51100000000E-03 0.  1.
         11    1    4    4    0    0 -0.93100311175E-02  0.48723642059E-01  0.26249285211E-01  0.56124469441E-01  0.51100000000E-03 0. -1.
</event>
<event>
 8    1  0.1106168E+005  0.1043930E+01  0.7957747E-01            NaN
         13   -1    0    0    0    0  0.00000000000E+00  0.00000000000E+00  0.74505805969E-08  0.10566000000E+00  0.10566000000E+00 0.  1.
     999900   -1    0    0    0    0 -0.00000000000E+00 -0.00000000000E+00 -0.74505805969E-08  0.93827000000E+00  0.93827000000E+00 0. -1.
     999902    2    1    2    0    0  0.21669882199E-01  0.55764696761E-02  0.62183397250E-02  0.10207061210E+01  0.10204418831E+01 0.  0.
     999903    2    3    3    0    0 -0.16844872126E-01  0.11003737173E+00  0.67229743165E-01  0.13159540924E+00  0.20138035451E-01 0.  0.
         14    1    1    2    0    0 -0.21669882199E-01 -0.55764696761E-02 -0.62183397250E-02  0.23223879036E-01  0.00000000000E+00 0. -1.
     999901    1    3    3    0    0  0.38514754325E-01 -0.10446090205E+00 -0.61011403440E-01  0.88911071173E+00  0.88000000000E+00 0. -1.
        -11    1    4    4    0    0 -0.91345947195E-02  0.15734144267E-01  0.74021966613E-02  0.19648352423E-01  0.51100000000E-03 0. -1.
         11    1    4    4    0    0 -0.77102774069E-02  0.94303227463E-01  0.59827546504E-01  0.11194705681E+00  0.51100000000E-03 0.  1.
</event>
<event>
 8    1  0.1106168E+005  0.1043930E+01  0.7957747E-01            NaN
         13   -1    0    0    0    0  0.00000000000E+00  0.00000000000E+00  0.74505805969E-08  0.10566000000E+00  0.10566000000E+00 0. -1.
     999900   -1    0    0    0    0 -0.00000000000E+00 -0.00000000000E+00 -0.74505805969E-08  0.93827000000E+00  0.93827000000E+00 0.  1.
     999902    2    1    2    0    0 -0.16328817959E-01  0.11293139463E-01 -0.12946691064E-01  0.10202280569E+01  0.10199526980E+01 0.  0.
     999903    2    3    3    0    0 -0.12787837294E+00 -0.26103398783E-01 -0.95020409920E-02  0.13239154615E+00  0.20074038383E-01 0.  0.
         14    1    1    2    0    0  0.16328817959E-01 -0.11293139463E-01  0.12946691064E-01  0.23701943051E-01  0.00000000000E+00 0. -1.
     999901    1    3    3    0    0  0.11154955498E+00  0.37396538246E-01 -0.34446500723E-02  0.88783651080E+00  0.88000000000E+00 0. -1.
        -11    1    4    4    0    0 -0.45762052440E-01 -0.14606912230E-01  0.46869411145E-02  0.48267544649E-01  0.51100000000E-03 0.  1.
         11    1    4    4    0    0 -0.82116320496E-01 -0.11496486553E-01 -0.14188982106E-01  0.84124001504E-01  0.51100000000E-03 0. -1.
</event>
<event>
 8    1  0.1106168E+005  0.1043930E+01  0.7957747E-01            NaN
         13   -1    0    0    0    0  0.00000000000E+00  0.00000000000E+00  0.74505805969E-08  0.10566000000E+00  0.10566000000E+00 0.  1.
     999900   -1    0    0    0    0 -0.00000000000E+00 -0.00000000000E+00 -0.74505805969E-08  0.93827000000E+00  0.93827000000E+00 0. -1.
     999902    2    1    2    0    0  0.16040545785E-01 -0.11021042726E-01 -0.13135530164E-01  0.10204501226E+01  0.10201799586E+01 0.  0.
     999903    2    3    3    0    0 -0.81328551673E-02  0.11671163374E+00  0.49649612782E-01  0.12868672113E+00  0.20185127265E-01 0.  0.
         14    1    1    2    0    0 -0.16040545785E-01  0.11021042726E-01  0.13135530164E-01  0.23479877438E-01  0.00000000000E+00 0.  1.
     999901    1    3    3    0    0  0.24173400952E-01 -0.12773267647E+00 -0.62785142946E-01  0.89176340143E+00  0.88000000000E+00 0.  1.
        -11    1    4    4    0    0 -0.12451450686E-01  0.87904479661E-01  0.30740570496E-01  0.93954669730E-01  0.51100000000E-03 0. -1.
         11    1    4    4    0    0  0.43185955191E-02  0.28807154082E-01  0.18909042286E-01  0.34732051404E-01  0.51100000000E-03 0.  1.
</event>
<event>
 8    1  0.1106168E+005  0.1043930E+01  0.7957747E-01            NaN
         13   -1    0    0    0    0  0.00000000000E+00  0.00000000000E+00  0.74505805969E-08  0.10566000000E+00  0.10566000000E+00 0.  1.
     999900   -1    0    0    0    0 -0.00000000000E+00 -0.00000000000E+00 -0.74505805969E-08  0.93827000000E+00  0.93827000000E+00 0.  1.
     999902    2    1    2    0    0 -0.45503128800E-02 -0.22643992454E-01  0.32433472291E-03  0.10208310620E+01  0.10205696920E+01 0.  0.
     999903    2    3    3    0    0  0.71634052821E-02 -0.21496557334E-01 -0.12787500824E+00  0.13146409654E+00  0.20429747803E-01 0.  0.
         14    1    1    2    0    0  0.45503128800E-02  0.22643992454E-01 -0.32433472291E-03  0.23098937953E-01  0.00000000000E+00 0.  1.
     999901    1    3    3    0    0 -0.11713718162E-01 -0.11474351194E-02  0.12819934296E+00  0.88936696551E+00  0.88000000000E+00 0. -1.
        -11    1    4    4    0    0  0.23551138589E-02 -0.58050146786E-02 -0.67192881227E-02  0.92007994535E-02  0.51100000000E-03 0.  1.
         11    1    4    4    0    0  0.48082914232E-02 -0.15691542656E-01 -0.12115572011E+00  0.12226329709E+00  0.51100000000E-03 0. -1.
</event>
<event>
 8    1  0.1106168E+005  0.1043930E+01  0.7957747E-01            NaN
         13   -1    0    0    0    0  0.00000000000E+00  0.00000000000E+00  0.74505805969E-08  0.10566000000E+00  0.10566000000E+00 0. -1.
     999900   -1    0    0    0    0 -0.00000000000E+00 -0.00000000000E+00 -0.74505805969E-08  0.93827000000E+00  0.93827000000E+00 0.  1.
     999902    2    1    2    0    0  0.18984200070E-01 -0.13916992497E-01 -0.45680563957E-02  0.10199518918E+01  0.10196700015E+01 0.  0.
     999903    2    3    3    0    0  0.12136130646E+00  0.29990445082E-01 -0.38343283988E-01  0.13228658272E+00  0.20038439035E-01 0.  0.
         14    1    1    2    0    0 -0.18984200070E-01  0.13916992497E-01  0.45680563957E-02  0.23978108176E-01  0.00000000000E+00 0. -1.
     999901    1    3    3    0    0 -0.10237710639E+00 -0.43907437578E-01  0.33775227592E-01  0.88766530910E+00  0.88000000000E+00 0. -1.
        -11    1    4    4    0    0  0.85094874163E-01  0.19517523034E-01 -0.36078650528E-01  0.94466933152E-01  0.51100000000E-03 0.  1.
         11    1    4    4    0    0  0.36266432297E-01  0.10472922047E-01 -0.22646334601E-02  0.37819649568E-01  0.51100000000E-03 0. -1.
</event>
<event>
 8    1  0.1106168E+005  0.1043930E+01  0.7957747E-01            NaN
         13   -1    0    0    0    0  0.00000000000E+00  0.00000000000E+00  0.74505805969E-08  0.10566000000E+00  0.10566000000E+00 0. -1.
     999900   -1    0    0    0    0 -0.00000000000E+00 -0.00000000000E+00 -0.74505805969E-08  0.93827000000E+00  0.93827000000E+00 0.  1.
     999902    2    1    2    0    0 -0.12086481943E-01 -0.71638490173E-02  0.18816021487E-01  0.10204471032E+01  0.10201768690E+01 0.  0.
     999903    2    3    3    0    0  0.82687924802E-01  0.30086024334E-01 -0.90655873236E-01  0.12783641706E+00  0.19524354188E-01 0.  0.
         14    1    1    2    0    0  0.12086481943E-01  0.71638490173E-02 -0.18816021487E-01  0.23482896821E-01  0.00000000000E+00 0.  1.
     999901    1    3    3    0    0 -0.94774406745E-01 -0.37249873351E-01  0.10947189472E+00  0.89261068612E+00  0.88000000000E+00 0. -1.
        -11    1    4    4    0    0  0.19511361183E-01  0.15674001271E-02 -0.29445994062E-01  0.35362093344E-01  0.51100000000E-03 0.  1.
         11    1    4    4    0    0  0.63176563619E-01  0.28518624207E-01 -0.61209879173E-01  0.92474323716E-01  0.51100000000E-03 0. -1.
</event>
<event>
 8    1  0.1106168E+005  0.1043930E+01  0.7957747E-01            NaN
         13   -1    0    0    0    0  0.00000000000E+00  0.00000000000E+00  0.74505805969E-08  0.10566000000E+00  0.10566000000E+00 0.  1.
     999900   -1    0    0    0    0 -0.00000000000E+00 -0.00000000000E+00 -0.74505805969E-08  0.93827000000E+00  0.93827000000E+00 0. -1.
     999902    2    1    2    0    0 -0.25214927233E-02  0.22631258257E-01 -0.17129279967E-02  0.10210943722E+01  0.10208389937E+01 0.  0.
     999903    2    3    3    0    0 -0.26660498347E-01  0.93398335968E-01 -0.89456377545E-01  0.13357559276E+00  0.20148552386E-01 0.  0.
         14    1    1    2    0    0  0.25214927233E-02 -0.22631258257E-01  0.17129279967E-02  0.22835627825E-01  0.00000000000E+00 0.  1.
     999901    1    3    3    0    0  0.24139005624E-01 -0.70767077711E-01  0.87743449548E-01  0.88751877942E+00  0.88000000000E+00 0.  1.
        -11    1    4    4    0    0 -0.99240293186E-02  0.24251170620E-01 -0.13418122278E-01  0.29443382292E-01  0.51100000000E-03 0.  1.
         11    1    4    4    0    0 -0.16736469028E-01  0.69147165348E-01 -0.76038255267E-01  0.10413221046E+00  0.51100000000E-03 0. -1.
</event>
<event>
 8    1  0.1106168E+005  0.1043930E+01  0.7957747E-01            NaN
         13   -1    0    0    0    0  0.00000000000E+00  0.00000000000E+00  0.74505805969E-08  0.10566000000E+00  0.10566000000E+00 0.  1.
     999900   -1    0    0    0    0 -0.00000000000E+00 -0.00000000000E+00 -0.74505805969E-08  0.93827000000E+00  0.93827000000E+00 0. -1.
     999902    2    1    2    0    0 -0.12028751180E-01  0.17364075849E-01 -0.11134642619E-01  0.10200515107E+01  0.10197719854E+01 0.  0.
     999903    2    3    3    0    0  0.46675946862E-01 -0.58052727444E-01  0.10180501301E+00  0.12770107415E+00  0.19863043209E-01 0.  0.
         14    1    1    2    0    0  0.12028751180E-01 -0.17364075849E-01  0.11134642619E-01  0.23878489301E-01  0.00000000000E+00 0.  1.
     999901    1    3    3    0    0 -0.58704698042E-01  0.75416803293E-01 -0.11293965563E+00  0.89235043655E+00  0.88000000000E+00 0. -1.
        -11    1    4    4    0    0  0.36279208220E-01 -0.30054652271E-01  0.65570950875E-01  0.80742019989E-01  0.51100000000E-03 0.  1.
         11    1    4    4    0    0  0.10396738642E-01 -0.27998075173E-01  0.36234062139E-01  0.46959054163E-01  0.51100000000E-03 0. -1.
</event>
<event>
 8    1  0.1106168E+005  0.1043930E+01  0.7957747E-01            NaN
         13   -1    0    0    0    0  0.00000000000E+00  0.00000000000E+00  0.74505805969E-08  0.10566000000E+00  0.10566000000E+00 0. -1.
     999900   -1    0    0    0    0 -0.00000000000E+00 -0.00000000000E+00 -0.74505805969E-08  0.93827000000E+00  0.93827000000E+00 0.  1.
     999902    2    1    2    0    0 -0.19677438383E-01 -0.94156375563E-02 -0.86512180876E-02  0.10204630150E+01  0.10201931511E+01 0.  0.
     999903    2    3    3    0    0 -0.33106377784E-01 -0.44776412100E-01  0.11683008024E+00  0.13075729002E+00  0.18634428139E-01 0.  0.
         14    1    1    2    0    0  0.19677438383E-01  0.94156375563E-02  0.86512180876E-02  0.23466985028E-01  0.00000000000E+00 0. -1.
     999901    1    3    3    0    0  0.13428939402E-01  0.35360774544E-01 -0.12548129833E+00  0.88970572496E+00  0.88000000000E+00 0.  1.
        -11    1    4    4    0    0 -0.12583942934E-01 -0.59148144120E-02  0.38532325815E-01  0.40967571359E-01  0.51100000000E-03 0.  1.
         11    1    4    4    0    0 -0.20522434850E-01 -0.38861597688E-01  0.78297754428E-01  0.89789718657E-01  0.51100000000E-03 0. -1.
</event>
<event>
 8    1  0.1106168E+005  0.1043930E+01  0.7957747E-01            NaN
         13   -1    0    0    0    0  0.00000000000E+00  0.00000000000E+00  0.74505805969E-08  0.10566000000E+00  0.10566000000E+00 0.  1.
     999900   -1    0    0    0    0 -0.00000000000E+00 -0.00000000000E+00 -0.74505805969E-08  0.93827000000E+00  0.93827000000E+00 0. -1.
     999902    2    1    2    0    0 -0.12216404947E-02 -0.18280835913E-01 -0.14511559048E-01  0.10205576507E+01  0.10202899841E+01 0.  0.
     999903    2    3    3    0    0  0.18518802195E-01  0.96581546985E-01 -0.83205996027E-01  0.13021952515E+00  0.19051133901E-01 0.  0.
         14    1    1    2    0    0  0.12216404947E-02  0.18280835913E-01  0.14511559048E-01  0.23372349330E-01  0.00000000000E+00 0.  1.
     999901    1    3    3    0    0 -0.19740442690E-01 -0.11486238290E+00  0.68694436979E-01  0.89033812552E+00  0.88000000000E+00 0.  1.
        -11    1    4    4    0    0 -0.22583998208E-04  0.47079068315E-01 -0.34862137428E-01  0.58583862373E-01  0.51100000000E-03 0. -1.
         11    1    4    4    0    0  0.18541386193E-01  0.49502478669E-01 -0.48343858599E-01  0.71635662777E-01  0.51100000000E-03 0.  1.
</event>
<event>
 8    1  0.1106168E+005  0.1043930E+01  0.7957747E-01            NaN
         13   -1    0    0    0    0  0.00000000000E+00  0.00000000000E+00  0.74505805969E-08  0.10566000000E+00  0.10566000000E+00 0. -1.
     999900   -1    0    0    0    0 -0.00000000000E+00 -0.00000000000E+00 -0.74505805969E-08  0.93827000000E+00  0.93827000000E+00 0. -1.
     999902    2    1    2    0    0  0.78718447885E-02 -0.12165456392E-01 -0.18808079703E-01  0.10201874616E+01  0.10199111474E+01 0.  0.
     999903    2    3    3    0    0  0.22429545524E-01 -0.61328868039E-01 -0.11494289920E+00  0.13346830014E+00  0.18373962525E-01 0.  0.
         14    1    1    2    0    0 -0.78718447885E-02  0.12165456392E-01  0.18808079703E-01  0.23742538443E-01  0.00000000000E+00 0.  1.
     999901    1    3    3    0    0 -0.14557700736E-01  0.49163411647E-01  0.96134819501E-01  0.88671916141E+00  0.88000000000E+00 0.  1.
        -11    1    4    4    0    0  0.15931502117E-01 -0.29681774052E-01 -0.43194789326E-01  0.54780210080E-01  0.51100000000E-03 0. -1.
         11    1    4    4    0    0  0.64980434078E-02 -0.31647093987E-01 -0.71748109878E-01  0.78688090064E-01  0.51100000000E-03 0.  1.
</event>
<event>
 8    1  0.1106168E+005  0.1043930E+01  0.7957747E-01            NaN
         13   -1    0    0    0    0  0.00000000000E+00  0.00000000000E+00  0.74505805969E-08  0.10566000000E+00  0.10566000000E+00 0. -1.
     999900   -1    0    0    0    0 -0.00000000000E+00 -0.00000000000E+00 -0.74505805969E-08  0.93827000000E+00  0.93827000000E+00 0.  1.
     999902    2    1    2    0    0 -0.39967810997E-02  0.16269170851E-02  0.33196083227E-01  0.10104546201E+01  0.10098999645E+01 0.  0.
     999903    2    3    3    0    0 -0.11934354510E+00 -0.14595746933E-01 -0.45969431213E-02  0.12197481524E+00  0.20020141901E-01 0.  0.
         14    1    1    2    0    0  0.39967810997E-02 -0.16269170851E-02 -0.33196083227E-01  0.33475379908E-01  0.00000000000E+00 0.  1.
     999901    1    3    3    0    0  0.11534676400E+00  0.16222664018E-01  0.37793026349E-01  0.88847980485E+00  0.88000000000E+00 0. -1.
        -11    1    4    4    0    0 -0.63743181384E-01 -0.71797821220E-02 -0.12411717398E-01  0.65338000383E-01  0.51100000000E-03 0. -1.
         11    1    4    4    0    0 -0.55600363712E-01 -0.74159648109E-02  0.78147742763E-02  0.56636814856E-01  0.51100000000E-03 0.  1.
</event>
<event>
 8    1  0.1106168E+005  0.1043930E+01  0.7957747E-01            NaN
         13   -1    0    0    0    0  0.00000000000E+00  0.00000000000E+00  0.74505805969E-08  0.10566000000E+00  0.10566000000E+00 0. -1.
     999900   -1    0    0    0    0 -0.00000000000E+00 -0.00000000000E+00 -0.74505805969E-08  0.93827000000E+00  0.93827000000E+00 0.  1.
     999902    2    1    2    0    0 -0.15146326072E-01  0.10568166584E-01  0.11162532047E-01  0.10223499291E+01  0.10221221444E+01 0.  0.
     999903    2    3    3    0    0 -0.25168628755E-01 -0.39498637638E-01 -0.12083588908E+00  0.13104150065E+00  0.19415472078E-01 0.  0.
         14    1    1    2    0    0  0.15146326072E-01 -0.10568166584E-01 -0.11162532047E-01  0.21580070901E-01  0.00000000000E+00 0.  1.
     999901    1    3    3    0    0  0.10022302683E-01  0.50066804222E-01  0.13199842112E+00  0.89130842844E+00  0.88000000000E+00 0. -1.
        -11    1    4    4    0    0 -0.13991588449E-01 -0.25879454037E-01 -0.97207926398E-01  0.10156354053E+00  0.51100000000E-03 0.  1.
         11    1    4    4    0    0 -0.11177040306E-01 -0.13619183601E-01 -0.23627962680E-01  0.29477960129E-01  0.51100000000E-03 0. -1.
</event>
<event>
 8    1  0.1106168E+005  0.1043930E+01  0.7957747E-01            NaN
         13   -1    0    0    0    0  0.00000000000E+00  0.00000000000E+00  0.74505805969E-08  0.10566000000E+00  0.10566000000E+00 0. -1.
     999900   -1    0    0    0    0 -0.00000000000E+00 -0.00000000000E+00 -0.74505805969E-08  0.93827000000E+00  0.93827000000E+00 0. -1.
     999902    2    1    2    0    0  0.11701611106E-01 -0.13607524859E-01 -0.14571264365E-01  0.10208126000E+01  0.10205508073E+01 0.  0.
     999903    2    3    3    0    0 -0.12416554433E+00 -0.10791679756E-03 -0.33346181640E-01  0.13008558190E+00  0.19829189183E-01 0.  0.
         14    1    1    2    0    0 -0.11701611106E-01  0.13607524859E-01  0.14571264365E-01  0.23117399950E-01  0.00000000000E+00 0.  1.
     999901    1    3    3    0    0  0.13586715543E+00 -0.13499608062E-01  0.18774917275E-01  0.89072701815E+00  0.88000000000E+00 0. -1.
        -11    1    4    4    0    0 -0.82602833783E-01 -0.34281276707E-02 -0.31084547929E-01  0.88326046267E-01  0.51100000000E-03 0. -1.
         11    1    4    4    0    0 -0.41562710546E-01  0.33202108731E-02 -0.22616337112E-02  0.41759535632E-01  0.51100000000E-03 0.  1.
</event>
<event>
 8    1  0.1106168E+005  0.1043930E+01  0.7957747E-01            NaN
         13   -1    0    0    0    0  0.00000000000E+00  0.00000000000E+00  0.74505805969E-08  0.10566000000E+00  0.10566000000E+00 0. -1.
     999900   -1    0    0    0    0 -0.00000000000E+00 -0.00000000000E+00 -0.74505805969E-08  0.93827000000E+00  0.93827000000E+00 0. -1.
     999902    2    1    2    0    0 -0.19854528279E-01  0.83008527283E-02 -0.10122824846E-01  0.10201481155E+01  0.10198708739E+01 0.  0.
     999903    2    3    3    0    0 -0.10738621178E+00  0.20530037333E-01  0.71138499336E-01  0.13199567845E+00  0.20221081278E-01 0.  0.
         14    1    1    2    0    0  0.19854528279E-01 -0.83008527283E-02  0.10122824846E-01  0.23781884536E-01  0.00000000000E+00 0.  1.
     999901    1    3    3    0    0  0.87531683498E-01 -0.12229184605E-01 -0.81261324182E-01  0.88815243702E+00  0.88000000000E+00 0. -1.
        -11    1    4    4    0    0 -0.33032695818E-01  0.15409730089E-01  0.19690983639E-01  0.41432049576E-01  0.51100000000E-03 0.  1.
         11    1    4    4    0    0 -0.74353515959E-01  0.51203072437E-02  0.51447515697E-01  0.90563628870E-01  0.51100000000E-03 0. -1.
</event>
<event>
 8    1  0.1106168E+005  0.1043930E+01  0.7957747E-01            NaN
         13   -1    0    0    0    0  0.00000000000E+00  0.00000000000E+00  0.74505805969E-08  0.10566000000E+00  0.10566000000E+00 0.  1.
     999900   -1    0    0    0    0 -0.00000000000E+00 -0.00000000000E+00 -0.74505805969E-08  0.93827000000E+00  0.93827000000E+00 0.  1.
     999902    2    1    2    0    0 -0.19466747760E-01 -0.10421217232E-02  0.18091497170E-01  0.10173340876E+01  0.10169863830E+01 0.  0.
     999903    2    3    3    0    0  0.34684155351E-01 -0.10890662216E+00  0.54748172798E-01  0.12833983418E+00  0.20251114272E-01 0.  0.
         14    1    1    2    0    0  0.19466747760E-01  0.10421217232E-02 -0.18091497170E-01  0.26595912390E-01  0.00000000000E+00 0. -1.
     999901    1    3    3    0    0 -0.54150903111E-01  0.10786450044E+00 -0.36656675628E-01  0.88899425343E+00  0.88000000000E+00 0. -1.
        -11    1    4    4    0    0  0.20869880133E-01 -0.90767536023E-01  0.46384183133E-01  0.10404831118E+00  0.51100000000E-03 0.  1.
         11    1    4    4    0    0  0.13814275217E-01 -0.18139086140E-01  0.83639896654E-02  0.24291523005E-01  0.51100000000E-03 0. -1.
</event>
<event>
 8    1  0.1106168E+005  0.1043930E+01  0.7957747E-01            NaN
         13   -1    0    0    0    0  0.00000000000E+00  0.00000000000E+00  0.74505805969E-08  0.10566000000E+00  0.10566000000E+00 0.  1.
     999900   -1    0    0    0    0 -0.00000000000E+00 -0.00000000000E+00 -0.74505805969E-08  0.93827000000E+00  0.93827000000E+00 0.  1.
     999902    2    1    2    0    0 -0.85579761423E-02  0.18862726482E-01 -0.10317230874E-01  0.10207894153E+01  0.10205270912E+01 0.  0.
     999903    2    3    3    0    0 -0.50421302064E-01  0.60769749328E-01 -0.10586749680E+00  0.13363746107E+00  0.20390536714E-01 0.  0.
         14    1    1    2    0    0  0.85579761423E-02 -0.18862726482E-01  0.10317230874E-01  0.23140584670E-01  0.00000000000E+00 0. -1.
     999901    1    3    3    0    0  0.41863325921E-01 -0.41907022846E-01  0.95550265930E-01  0.88715195426E+00  0.88000000000E+00 0. -1.
        -11    1    4    4    0    0 -0.23803412419E-01  0.14140892870E-01 -0.40160246182E-01  0.48781900212E-01  0.51100000000E-03 0. -1.
         11    1    4    4    0    0 -0.26617889645E-01  0.46628856459E-01 -0.65707250622E-01  0.84855560861E-01  0.51100000000E-03 0.  1.
</event>
<event>
 8    1  0.1106168E+005  0.1043930E+01  0.7957747E-01            NaN
         13   -1    0    0    0    0  0.00000000000E+00  0.00000000000E+00  0.74505805969E-08  0.10566000000E+00  0.10566000000E+00 0.  1.
     999900   -1    0    0    0    0 -0.00000000000E+00 -0.00000000000E+00 -0.74505805969E-08  0.93827000000E+00  0.93827000000E+00 0.  1.
     999902    2    1    2    0    0 -0.22906247847E-01  0.19352909006E-02  0.50800470947E-02  0.10203875188E+01  0.10201158955E+01 0.  0.
     999903    2    3    3    0    0  0.83702838106E-01  0.93585846868E-01  0.27816834722E-01  0.12893797840E+00  0.93139754555E-02 0.  0.
         14    1    1    2    0    0  0.22906247847E-01 -0.19352909006E-02 -0.50800470947E-02  0.23542481173E-01  0.00000000000E+00 0. -1.
     999901    1    3    3    0    0 -0.10660908595E+00 -0.91650555967E-01 -0.22736787628E-01  0.89144954043E+00  0.88000000000E+00 0.  1.
        -11    1    4    4    0    0  0.37072181145E-01  0.48201635033E-01  0.12344908652E-01  0.62051608564E-01  0.51100000000E-03 0. -1.
         11    1    4    4    0    0  0.46630656961E-01  0.45384211835E-01  0.15471926070E-01  0.66886369836E-01  0.51100000000E-03 0.  1.
</event>
<event>
 8    1  0.1106168E+005  0.1043930E+01  0.7957747E-01            NaN
         13   -1    0    0    0    0  0.00000000000E+00  0.00000000000E+00  0.74505805969E-08  0.10566000000E+00  0.10566000000E+00 0. -1.
     999900   -1    0    0    0    0 -0.00000000000E+00 -0.00000000000E+00 -0.74505805969E-08  0.93827000000E+00  0.93827000000E+00 0. -1.
     999902    2    1    2    0    0  0.46198547176E-02  0.19655331612E-01 -0.98213094052E-02  0.10214770885E+01  0.10212302919E+01 0.  0.
     999903    2    3    3    0    0  0.10464533009E+00 -0.13966088980E-01 -0.77770359851E-01  0.13257182404E+00  0.19528515226E-01 0.  0.
         14    1    1    2    0    0 -0.46198547176E-02 -0.19655331612E-01  0.98213094052E-02  0.22452911545E-01  0.00000000000E+00 0.  1.
     999901    1    3    3    0    0 -0.10002547537E+00  0.33621420592E-01  0.67949050445E-01  0.88890526441E+00  0.88000000000E+00 0.  1.
        -11    1    4    4    0    0  0.91314555351E-01 -0.13089217472E-01 -0.75065094590E-01  0.11893151466E+00  0.51100000000E-03 0.  1.
         11    1    4    4    0    0  0.13330774741E-01 -0.87687150791E-03 -0.27052652602E-02  0.13640309379E-01  0.51100000000E-03 0. -1.
</event>
<event>
 8    1  0.1106168E+005  0.1043930E+01  0.7957747E-01            NaN
         13   -1    0    0    0    0  0.00000000000E+00  0.00000000000E+00  0.74505805969E-08  0.10566000000E+00  0.10566000000E+00 0.  1.
     999900   -1    0    0    0    0 -0.00000000000E+00 -0.00000000000E+00 -0.74505805969E-08  0.93827000000E+00  0.93827000000E+00 0. -1.
     999902    2    1    2    0    0 -0.30101292365E-02  0.17827851852E-01 -0.14693582476E-01  0.10206320485E+01  0.10203661028E+01 0.  0.
     999903    2    3    3    0    0  0.10521213293E+00 -0.66123306496E-01 -0.32028364652E-01  0.12986813491E+00  0.19950732972E-01 0.  0.
         14    1    1    2    0    0  0.30101292365E-02 -0.17827851852E-01  0.14693582476E-01  0.23297951534E-01  0.00000000000E+00 0. -1.
     999901    1    3    3    0    0 -0.10822226217E+00  0.83951158348E-01  0.17334782176E-01  0.89076391355E+00  0.88000000000E+00 0.  1.
        -11    1    4    4    0    0  0.14651044072E-01 -0.12398991127E-01  0.17605142590E-02  0.19280783304E-01  0.51100000000E-03 0. -1.
         11    1    4    4    0    0  0.90561088857E-01 -0.53724315369E-01 -0.33788878911E-01  0.11058735161E+00  0.51100000000E-03 0.  1.
</event>
<event>
 8    1  0.1106168E+005  0.1043930E+01  0.7957747E-01            NaN
         13   -1    0    0    0    0  0.00000000000E+00  0.00000000000E+00  0.74505805969E-08  0.10566000000E+00  0.10566000000E+00 0.  1.
     999900   -1    0    0    0    0 -0.00000000000E+00 -0.00000000000E+00 -0.74505805969E-08  0.93827000000E+00  0.93827000000E+00 0. -1.
     999902    2    1    2    0    0  0.22241636228E-01  0.74438393078E-02  0.48623705693E-02  0.10199770508E+01  0.10196957588E+01 0.  0.
     999903    2    3    3    0    0  0.58354647244E-01 -0.51675694105E-01  0.10422148126E+00  0.13168008379E+00  0.20047071968E-01 0.  0.
         14    1    1    2    0    0 -0.22241636228E-01 -0.74438393078E-02 -0.48623705693E-02  0.23952949156E-01  0.00000000000E+00 0. -1.
     999901    1    3    3    0    0 -0.36113011017E-01  0.59119533412E-01 -0.99359110694E-01  0.88829696705E+00  0.88000000000E+00 0. -1.
        -11    1    4    4    0    0  0.17121347325E-01 -0.20233225095E-01  0.21894034221E-01  0.34382172524E-01  0.51100000000E-03 0.  1.
         11    1    4    4    0    0  0.41233299920E-01 -0.31442469009E-01  0.82327447042E-01  0.97297911268E-01  0.51100000000E-03 0. -1.
</event>
<event>
 8    1  0.1106168E+005  0.1043930E+01  0.7957747E-01            NaN
         13   -1    0    0    0    0  0.00000000000E+00  0.00000000000E+00  0.74505805969E-08  0.10566000000E+00  0.10566000000E+00 0. -1.
     999900   -1    0    0    0    0 -0.00000000000E+00 -0.00000000000E+00 -0.74505805969E-08  0.93827000000E+00  0.93827000000E+00 0. -1.
     999902    2    1    2    0    0  0.20134387709E-01 -0.11914065518E-01  0.12920267515E-02  0.10204990833E+01  0.10202300579E+01 0.  0.
     999903    2    3    3    0    0 -0.11139347582E+00 -0.39058856694E-02 -0.60785677917E-01  0.12852523206E+00  0.20001855890E-01 0.  0.
         14    1    1    2    0    0 -0.20134387709E-01  0.11914065518E-01 -0.12920267515E-02  0.23430916728E-01  0.00000000000E+00 0. -1.
     999901    1    3    3    0    0  0.13152786353E+00 -0.80081798484E-02  0.62077704668E-01  0.89197385121E+00  0.88000000000E+00 0. -1.
        -11    1    4    4    0    0 -0.41423158315E-01  0.53000990408E-02 -0.14888282264E-01  0.44338371242E-01  0.51100000000E-03 0. -1.
         11    1    4    4    0    0 -0.69970317502E-01 -0.92059847102E-02 -0.45897395653E-01  0.84186860818E-01  0.51100000000E-03 0.  1.
</event>
<event>
 8    1  0.1106168E+005  0.1043930E+01  0.7957747E-01            NaN
         13   -1    0    0    0    0  0.00000000000E+00  0.00000000000E+00  0.74505805969E-08  0.10566000000E+00  0.10566000000E+00 0. -1.
     999900   -1    0    0    0    0 -0.00000000000E+00 -0.00000000000E+00 -0.74505805969E-08  0.93827000000E+00  0.93827000000E+00 0.  1.
     999902    2    1    2    0    0  0.38105423244E-02  0.41977791524E-03  0.22941747836E-01  0.10206701582E+01  0.10204050919E+01 0.  0.
     999903    2    3    3    0    0 -0.21989558578E-02  0.14638944388E-01  0.13158002578E+00  0.13385531046E+00  0.19616494435E-01 0.  0.
         14    1    1    2    0    0 -0.38105423244E-02 -0.41977791524E-03 -0.22941747836E-01  0.23259841789E-01  0.00000000000E+00 0.  1.
     999901    1    3    3    0    0  0.60094981823E-02 -0.14219166473E-01 -0.10863827794E+00  0.88681484775E+00  0.88000000000E+00 0.  1.
        -11    1    4    4    0    0 -0.10107849856E-01  0.48798840591E-02  0.45753039442E-01  0.47112457337E-01  0.51100000000E-03 0. -1.
         11    1    4    4    0    0  0.79088939977E-02  0.97590603289E-02  0.85826986336E-01  0.86742853119E-01  0.51100000000E-03 0.  1.
</event>
<event>
 8    1  0.1106168E+005  0.1043930E+01  0.7957747E-01            NaN
         13   -1    0    0    0    0  0.00000000000E+00  0.00000000000E+00  0.74505805969E-08  0.10566000000E+00  0.10566000000E+00 0.  1.
     999900   -1    0    0    0    0 -0.00000000000E+00 -0.00000000000E+00 -0.74505805969E-08  0.93827000000E+00  0.93827000000E+00 0.  1.
     999902    2    1    2    0    0 -0.90951901569E-02  0.20599355424E-01 -0.78059479933E-02  0.10200974854E+01  0.10198190482E+01 0.  0.
     999903    2    3    3    0    0 -0.11579148964E+00  0.54914800085E-01  0.26241059820E-01  0.13233577818E+00  0.20021504078E-01 0.  0.
         14    1    1    2    0    0  0.90951901569E-02 -0.20599355424E-01  0.78059479933E-02  0.23832514596E-01  0.00000000000E+00 0.  1.
     999901    1    3    3    0    0  0.10669629948E+00 -0.34315444661E-01 -0.34047007813E-01  0.88776170722E+00  0.88000000000E+00 0.  1.
        -11    1    4    4    0    0 -0.87327273003E-01  0.33703671646E-01  0.13291246046E-01  0.94545800727E-01  0.51100000000E-03 0. -1.
         11    1    4    4    0    0 -0.28464216637E-01  0.21211128439E-01  0.12949813774E-01  0.37789977457E-01  0.51100000000E-03 0.  1.
</event>
<event>
 8    1  0.1106168E+005  0.1043930E+01  0.7957747E-01            NaN
         13   -1    0    0    0    0  0.00000000000E+00  0.00000000000E+00  0.74505805969E-08  0.10566000000E+00  0.10566000000E+00 0. -1.
     999900   -1    0    0    0    0 -0.00000000000E+00 -0.00000000000E+00 -0.74505805969E-08  0.93827000000E+00  0.93827000000E+00 0. -1.
     999902    2    1    2    0    0 -0.20951953968E-02 -0.17535620887E-01  0.17728805992E-01  0.10189060434E+01  0.10185987074E+01 0.  0.
     999903    2    3    3    0    0 -0.82478147623E-01  0.32239307049E-01  0.94119346608E-01  0.13055111590E+00  0.18523625530E-01 0.  0.
         14    1    1    2    0    0  0.20951953968E-02  0.17535620887E-01 -0.17728805992E-01  0.25023956632E-01  0.00000000000E+00 0.  1.
     999901    1    3    3    0    0  0.80382952226E-01 -0.49774927936E-01 -0.76390540616E-01  0.88835492747E+00  0.88000000000E+00 0. -1.
        -11    1    4    4    0    0 -0.29865744093E-01  0.26493533173E-02  0.28117170871E-01  0.41107397899E-01  0.51100000000E-03 0. -1.
         11    1    4    4    0    0 -0.52612403530E-01  0.29589953732E-01  0.66002175736E-01  0.89443718002E-01  0.51100000000E-03 0.  1.
</event>
<event>
 8    1  0.1106168E+005  0.1043930E+01  0.7957747E-01            NaN
         13   -1    0    0    0    0  0.00000000000E+00  0.00000000000E+00  0.74505805969E-08  0.10566000000E+00  0.10566000000E+00 0. -1.
     999900   -1    0    0    0    0 -0.00000000000E+00 -0.00000000000E+00 -0.74505805969E-08  0.93827000000E+00  0.93827000000E+00 0.  1.
     999902    2    1    2    0    0  0.23801325237E-01  0.11266491754E-01 -0.56842916471E-04  0.10175967482E+01  0.10172559667E+01 0.  0.
     999903    2    3    3    0    0 -0.25698687160E-02  0.27838255119E-01  0.12382501874E+00  0.12837417827E+00  0.19123851838E-01 0.  0.
         14    1    1    2    0    0 -0.23801325237E-01 -0.11266491754E-01  0.56842916471E-04  0.26333251804E-01  0.00000000000E+00 0.  1.
     999901    1    3    3    0    0  0.26371193953E-01 -0.16571763365E-01 -0.12388186165E+00  0.88922256992E+00  0.88000000000E+00 0.  1.
        -11    1    4    4    0    0  0.69347934054E-02  0.21059658659E-01  0.79730983736E-01  0.82758029646E-01  0.51100000000E-03 0. -1.
         11    1    4    4    0    0 -0.95046621214E-02  0.67785964600E-02  0.44094035001E-01  0.45616148629E-01  0.51100000000E-03 0.  1.
</event>
<event>
 8    1  0.1106168E+005  0.1043930E+01  0.7957747E-01            NaN
         13   -1    0    0    0    0  0.00000000000E+00  0.00000000000E+00  0.74505805969E-08  0.10566000000E+00  0.10566000000E+00 0.  1.
     999900   -1    0    0    0    0 -0.00000000000E+00 -0.00000000000E+00 -0.74505805969E-08  0.93827000000E+00  0.93827000000E+00 0.  1.
     999902    2    1    2    0    0 -0.64085723435E-02 -0.24237593358E-01  0.15436178334E-02  0.10188120087E+01  0.10185023297E+01 0.  0.
     999903    2    3    3    0    0 -0.52068784750E-01  0.40603575821E-02  0.11699831266E+00  0.12964643605E+00  0.19797685841E-01 0.  0.
         14    1    1    2    0    0  0.64085723435E-02  0.24237593358E-01 -0.15436178334E-02  0.25117991307E-01  0.00000000000E+00 0.  1.
     999901    1    3    3    0    0  0.45660212407E-01 -0.28297950940E-01 -0.11545469483E+00  0.88916557265E+00  0.88000000000E+00 0.  1.
        -11    1    4    4    0    0 -0.84379594997E-02  0.54221652517E-02  0.10410132860E-01  0.14464820209E-01  0.51100000000E-03 0. -1.
         11    1    4    4    0    0 -0.43630825251E-01 -0.13618076696E-02  0.10658817980E+00  0.11518161584E+00  0.51100000000E-03 0.  1.
</event>
<event>
 8    1  0.1106168E+005  0.1043930E+01  0.7957747E-01            NaN
         13   -1    0    0    0    0  0.00000000000E+00  0.00000000000E+00  0.74505805969E-08  0.10566000000E+00  0.10566000000E+00 0.  1.
     999900   -1    0    0    0    0 -0.00000000000E+00 -0.00000000000E+00 -0.74505805969E-08  0.93827000000E+00  0.93827000000E+00 0. -1.
     999902    2    1    2    0    0 -0.13641185302E-01 -0.11832965538E-01 -0.15753782976E-01  0.10199658040E+01  0.10196842446E+01 0.  0.
     999903    2    3    3    0    0 -0.18680452005E-01  0.40274502569E-01 -0.12272782671E+00  0.13194326577E+00  0.19388426671E-01 0.  0.
         14    1    1    2    0    0  0.13641185302E-01  0.11832965538E-01  0.15753782976E-01  0.23964195959E-01  0.00000000000E+00 0.  1.
     999901    1    3    3    0    0  0.50392667028E-02 -0.52107468107E-01  0.10697404374E+00  0.88802253827E+00  0.88000000000E+00 0.  1.
        -11    1    4    4    0    0 -0.20216573202E-02  0.85335815550E-02 -0.51044450649E-01  0.51794846998E-01  0.51100000000E-03 0.  1.
         11    1    4    4    0    0 -0.16658794685E-01  0.31740921014E-01 -0.71683376063E-01  0.80148418774E-01  0.51100000000E-03 0. -1.
</event>
<event>
 8    1  0.1106168E+005  0.1043930E+01  0.7957747E-01            NaN
         13   -1    0    0    0    0  0.00000000000E+00  0.00000000000E+00  0.74505805969E-08  0.10566000000E+00  0.10566000000E+00 0. -1.
     999900   -1    0    0    0    0 -0.00000000000E+00 -0.00000000000E+00 -0.74505805969E-08  0.93827000000E+00  0.93827000000E+00 0.  1.
     999902    2    1    2    0    0  0.18787299122E-01 -0.14749236100E-01  0.18718538271E-02  0.10199715691E+01  0.10196901468E+01 0.  0.
     999903    2    3    3    0    0  0.58943828535E-01 -0.40464910997E-01 -0.10885086134E+00  0.13175236056E+00  0.19959723301E-01 0.  0.
         14    1    1    2    0    0 -0.18787299122E-01  0.14749236100E-01 -0.18718538271E-02  0.23958430887E-01  0.00000000000E+00 0.  1.
     999901    1    3    3    0    0 -0.40156529414E-01  0.25715674897E-01  0.11072271517E+00  0.88821920855E+00  0.88000000000E+00 0. -1.
        -11    1    4    4    0    0  0.35430489564E-01 -0.31808855646E-01 -0.57849631933E-01  0.74926390037E-01  0.51100000000E-03 0. -1.
         11    1    4    4    0    0  0.23513338971E-01 -0.86560553509E-02 -0.51001229406E-01  0.56825970522E-01  0.51100000000E-03 0.  1.
</event>
<event>
 8    1  0.1106168E+005  0.1043930E+01  0.7957747E-01            NaN
         13   -1    0    0    0    0  0.00000000000E+00  0.00000000000E+00  0.74505805969E-08  0.10566000000E+00  0.10566000000E+00 0. -1.
     999900   -1    0    0    0    0 -0.00000000000E+00 -0.00000000000E+00 -0.74505805969E-08  0.93827000000E+00  0.93827000000E+00 0.  1.
     999902    2    1    2    0    0 -0.13371649946E-01 -0.20564120987E-01  0.33823218876E-02  0.10191686552E+01  0.10188678146E+01 0.  0.
     999903    2    3    3    0    0 -0.10694393082E+00  0.69767160742E-01  0.99717562793E-02  0.12958508250E+00  0.19707780843E-01 0.  0.
         14    1    1    2    0    0  0.13371649946E-01  0.20564120987E-01 -0.33823218876E-02  0.24761344786E-01  0.00000000000E+00 0. -1.
     999901    1    3    3    0    0  0.93572280869E-01 -0.90331281729E-01 -0.65894343917E-02  0.88958357272E+00  0.88000000000E+00 0. -1.
        -11    1    4    4    0    0 -0.57512542049E-01  0.29473075449E-01 -0.21733761276E-02  0.64663276705E-01  0.51100000000E-03 0. -1.
         11    1    4    4    0    0 -0.49431388766E-01  0.40294085293E-01  0.12145132407E-01  0.64921805790E-01  0.51100000000E-03 0.  1.
</event>
<event>
 8    1  0.1106168E+005  0.1043930E+01  0.7957747E-01            NaN
         13   -1    0    0    0    0  0.00000000000E+00  0.00000000000E+00  0.74505805969E-08  0.10566000000E+00  0.10566000000E+00 0.  1.
     999900   -1    0    0    0    0 -0.00000000000E+00 -0.00000000000E+00 -0.74505805969E-08  0.93827000000E+00  0.93827000000E+00 0. -1.
     999902    2    1    2    0    0  0.12996896532E-01  0.70559873596E-02 -0.19305741162E-01  0.10196109145E+01  0.10193208519E+01 0.  0.
     999903    2    3    3    0    0 -0.94995128875E-01 -0.69570181198E-02 -0.86488246589E-01  0.13035722129E+00  0.20983653964E-01 0.  0.
         14    1    1    2    0    0 -0.12996896532E-01 -0.70559873596E-02  0.19305741162E-01  0.24319085486E-01  0.00000000000E+00 0.  1.
     999901    1    3    3    0    0  0.10799202541E+00  0.14013005479E-01  0.67182505427E-01  0.88925369322E+00  0.88000000000E+00 0.  1.
        -11    1    4    4    0    0 -0.59684941345E-01 -0.10541617529E-01 -0.43481708244E-01  0.74594490388E-01  0.51100000000E-03 0.  1.
         11    1    4    4    0    0 -0.35310187530E-01  0.35845994091E-02 -0.43006538345E-01  0.55762730903E-01  0.51100000000E-03 0. -1.
</event>
<event>
 8    1  0.1106168E+005  0.1043930E+01  0.7957747E-01            NaN
         13   -1    0    0    0    0  0.00000000000E+00  0.00000000000E+00  0.74505805969E-08  0.10566000000E+00  0.10566000000E+00 0. -1.
     999900   -1    0    0    0    0 -0.00000000000E+00 -0.00000000000E+00 -0.74505805969E-08  0.93827000000E+00  0.93827000000E+00 0.  1.
     999902    2    1    2    0    0  0.21597236783E-01 -0.97333177269E-02  0.30340739938E-02  0.10200472925E+01  0.10197676673E+01 0.  0.
     999903    2    3    3    0    0  0.10110856821E+00 -0.82480304229E-01 -0.18240920294E-01  0.13321765769E+00  0.19704567883E-01 0.  0.
         14    1    1    2    0    0 -0.21597236783E-01  0.97333177269E-02 -0.30340739938E-02  0.23882707460E-01  0.00000000000E+00 0.  1.
     999901    1    3    3    0    0 -0.79511331427E-01  0.72746986502E-01  0.21274994287E-01  0.88682963485E+00  0.88000000000E+00 0. -1.
        -11    1    4    4    0    0  0.37007895659E-01 -0.19063140763E-01 -0.88108441750E-02  0.42554433058E-01  0.51100000000E-03 0. -1.
         11    1    4    4    0    0  0.64100672551E-01 -0.63417163466E-01 -0.94300761186E-02  0.90663224629E-01  0.51100000000E-03 0.  1.
</event>
<event>
 8    1  0.1106168E+005  0.1043930E+01  0.7957747E-01            NaN
         13   -1    0    0    0    0  0.00000000000E+00  0.00000000000E+00  0.74505805969E-08  0.10566000000E+00  0.10566000000E+00 0.  1.
     999900   -1    0    0    0    0 -0.00000000000E+00 -0.00000000000E+00 -0.74505805969E-08  0.93827000000E+00  0.93827000000E+00 0. -1.
     999902    2    1    2    0    0 -0.18755140804E-01  0.15393216464E-01 -0.15300266140E-01  0.10152454299E+01  0.10148401245E+01 0.  0.
     999903    2    3    3    0    0 -0.12167696761E+00  0.11738834456E-01 -0.35962940209E-01  0.12899873563E+00  0.20106119583E-01 0.  0.
         14    1    1    2    0    0  0.18755140804E-01 -0.15393216464E-01  0.15300266140E-01  0.28684570132E-01  0.00000000000E+00 0. -1.
     999901    1    3    3    0    0  0.10292182681E+00  0.36543820086E-02  0.20662674069E-01  0.88624669423E+00  0.88000000000E+00 0.  1.
        -11    1    4    4    0    0 -0.17238944088E-01  0.30065180777E-02  0.18006848453E-02  0.17598975287E-01  0.51100000000E-03 0.  1.
         11    1    4    4    0    0 -0.10443802353E+00  0.87323163781E-02 -0.37763625054E-01  0.11139976035E+00  0.51100000000E-03 0. -1.
</event>
<event>
 8    1  0.1106168E+005  0.1043930E+01  0.7957747E-01            NaN
         13   -1    0    0    0    0  0.00000000000E+00  0.00000000000E+00  0.74505805969E-08  0.10566000000E+00  0.10566000000E+00 0.  1.
     999900   -1    0    0    0    0 -0.00000000000E+00 -0.00000000000E+00 -0.74505805969E-08  0.93827000000E+00  0.93827000000E+00 0. -1.
     999902    2    1    2    0    0 -0.21935987825E-01  0.10102494604E-01 -0.20472555931E-01  0.10122697172E+01  0.10117744842E+01 0.  0.
     999903    2    3    3    0    0  0.81645423355E-01 -0.74870140161E-01 -0.45535305467E-01  0.12177682067E+00  0.22014017483E-01 0.  0.
         14    1    1    2    0    0  0.21935987825E-01 -0.10102494604E-01  0.20472555931E-01  0.31660282776E-01  0.00000000000E+00 0.  1.
     999901    1    3    3    0    0 -0.10358141118E+00  0.84972634765E-01  0.25062749536E-01  0.89049289656E+00  0.88000000000E+00 0.  1.
        -11    1    4    4    0    0  0.72575815582E-01 -0.72301569560E-01 -0.46057161095E-01  0.11232225593E+00  0.51100000000E-03 0.  1.
         11    1    4    4    0    0  0.90696077731E-02 -0.25685706001E-02  0.52185562804E-03  0.94545647379E-02  0.51100000000E-03 0. -1.
</event>
<event>
 8    1  0.1106168E+005  0.1043930E+01  0.7957747E-01            NaN
         13   -1    0    0    0    0  0.00000000000E+00  0.00000000000E+00  0.74505805969E-08  0.10566000000E+00  0.10566000000E+00 0. -1.
     999900   -1    0    0    0    0 -0.00000000000E+00 -0.00000000000E+00 -0.74505805969E-08  0.93827000000E+00  0.93827000000E+00 0. -1.
     999902    2    1    2    0    0 -0.12142174287E-01  0.74252605018E-03 -0.20236192366E-01  0.10203188327E+01  0.10200456034E+01 0.  0.
     999903    2    3    3    0    0 -0.92329251510E-01 -0.19931369070E-01  0.87023167455E-01  0.12994702968E+00  0.19780007332E-01 0.  0.
         14    1    1    2    0    0  0.12142174287E-01 -0.74252605018E-03  0.20236192366E-01  0.23611167333E-01  0.00000000000E+00 0. -1.
     999901    1    3    3    0    0  0.80187077224E-01  0.20673895121E-01 -0.10725935982E+00  0.89037180299E+00  0.88000000000E+00 0. -1.
        -11    1    4    4    0    0 -0.56540060963E-01 -0.68801724929E-02  0.40893389612E-01  0.70118797068E-01  0.51100000000E-03 0.  1.
         11    1    4    4    0    0 -0.35789190548E-01 -0.13051196578E-01  0.46129777843E-01  0.59828232608E-01  0.51100000000E-03 0. -1.
</event>
<event>
 8    1  0.1106168E+005  0.1043930E+01  0.7957747E-01            NaN
         13   -1    0    0    0    0  0.00000000000E+00  0.00000000000E+00  0.74505805969E-08  0.10566000000E+00  0.10566000000E+00 0.  1.
     999900   -1    0    0    0    0 -0.00000000000E+00 -0.00000000000E+00 -0.74505805969E-08  0.93827000000E+00  0.93827000000E+00 0.  1.
     999902    2    1    2    0    0  0.13620277725E-01 -0.14985563806E-01  0.11458524159E-01  0.10206624934E+01  0.10203972504E+01 0.  0.
     999903    2    3    3    0    0  0.54082649242E-01  0.61308309445E-01 -0.98509956803E-01  0.12962319829E+00  0.20354856675E-01 0.  0.
         14    1    1    2    0    0 -0.13620277725E-01  0.14985563806E-01 -0.11458524159E-01  0.23267506609E-01  0.00000000000E+00 0.  1.
     999901    1    3    3    0    0 -0.40462371517E-01 -0.76293873251E-01  0.10996848096E+00  0.89103929510E+00  0.88000000000E+00 0. -1.
        -11    1    4    4    0    0  0.56996709663E-03 -0.12068919622E-02 -0.43092076685E-02  0.45400266992E-02  0.51100000000E-03 0.  1.
         11    1    4    4    0    0  0.53512682145E-01  0.62515201407E-01 -0.94200749135E-01  0.12508317159E+00  0.51100000000E-03 0. -1.
</event>
<event>
 8    1  0.1106168E+005  0.1043930E+01  0.7957747E-01            NaN
         13   -1    0    0    0    0  0.00000000000E+00  0.00000000000E+00  0.74505805969E-08  0.10566000000E+00  0.10566000000E+00 0. -1.
     999900   -1    0    0    0    0 -0.00000000000E+00 -0.00000000000E+00 -0.74505805969E-08  0.93827000000E+00  0.93827000000E+00 0.  1.
     999902    2    1    2    0    0 -0.24543585746E-01 -0.17750489902E-01  0.62603650183E-02  0.10130000847E+01  0.10125277832E+01 0.  0.
     999903    2    3    3    0    0  0.47172621779E-01 -0.27153140123E-02 -0.11096915005E+00  0.12220716251E+00  0.19692870068E-01 0.  0.
         14    1    1    2    0    0  0.24543585746E-01  0.17750489902E-01 -0.62603650183E-02  0.30929915345E-01  0.00000000000E+00 0. -1.
     999901    1    3    3    0    0 -0.71716207525E-01 -0.15035175890E-01  0.11722951507E+00  0.89079292214E+00  0.88000000000E+00 0. -1.
        -11    1    4    4    0    0  0.10060641096E-01 -0.75765992154E-02 -0.17903509484E-01  0.21895618918E-01  0.51100000000E-03 0. -1.
         11    1    4    4    0    0  0.37111980683E-01  0.48612852031E-02 -0.93065640564E-01  0.10031154360E+00  0.51100000000E-03 0.  1.
</event>
<event>
 8    1  0.1106168E+005  0.1043930E+01  0.7957747E-01            NaN
         13   -1    0    0    0    0  0.00000000000E+00  0.00000000000E+00  0.74505805969E-08  0.10566000000E+00  0.10566000000E+00 0.  1.
     999900   -1    0    0    0    0 -0.00000000000E+00 -0.00000000000E+00 -0.74505805969E-08  0.93827000000E+00  0.93827000000E+00 0. -1.
     999902    2    1    2    0    0  0.10686451432E-01  0.18805589860E-01  0.11333142769E-01  0.10195109382E+01  0.10192184567E+01 0.  0.
     999903    2    3    3    0    0  0.52853014839E-01 -0.11521508206E+00 -0.71480089459E-02  0.12817423833E+00  0.17595028438E-01 0.  0.
         14    1    1    2    0    0 -0.10686451432E-01 -0.18805589860E-01 -0.11333142769E-01  0.24419061801E-01  0.00000000000E+00 0. -1.
     999901    1    3    3    0    0 -0.42166563406E-01  0.13402067192E+00  0.18481151715E-01  0.89133669987E+00  0.88000000000E+00 0. -1.
        -11    1    4    4    0    0  0.29675921082E-01 -0.83326854291E-01 -0.26594883533E-02  0.88494965605E-01  0.51100000000E-03 0. -1.
         11    1    4    4    0    0  0.23177093756E-01 -0.31888227774E-01 -0.44885205926E-02  0.39679272721E-01  0.51100000000E-03 0.  1.
</event>
<event>
 8    1  0.1106168E+005  0.1043930E+01  0.7957747E-01            NaN
         13   -1    0    0    0    0  0.00000000000E+00  0.00000000000E+00  0.74505805969E-08  0.10566000000E+00  0.10566000000E+00 0.  1.
     999900   -1    0    0    0    0 -0.00000000000E+00 -0.00000000000E+00 -0.74505805969E-08  0.93827000000E+00  0.93827000000E+00 0.  1.
     999902    2    1    2    0    0 -0.17137153100E-01  0.53788055165E-02  0.15313024524E-01  0.10203269857E+01  0.10200539473E+01 0.  0.
     999903    2    3    3    0    0  0.10464553597E+00  0.71615111098E-01 -0.11546725521E-01  0.12906960550E+00  0.21124011413E-01 0.  0.
         14    1    1    2    0    0  0.17137153100E-01 -0.53788055165E-02 -0.15313024524E-01  0.23603014325E-01  0.00000000000E+00 0. -1.
     999901    1    3    3    0    0 -0.12178268907E+00 -0.66236305581E-01  0.26859750045E-01  0.89125738017E+00  0.88000000000E+00 0.  1.
        -11    1    4    4    0    0  0.85181614170E-01  0.57433852633E-01 -0.17599396825E-01  0.10423317471E+00  0.51100000000E-03 0. -1.
         11    1    4    4    0    0  0.19463921803E-01  0.14181258464E-01  0.60526713044E-02  0.24836430792E-01  0.51100000000E-03 0.  1.
</event>
<event>
 8    1  0.1106168E+005  0.1043930E+01  0.7957747E-01            NaN
         13   -1    0    0    0    0  0.00000000000E+00  0.00000000000E+00  0.74505805969E-08  0.10566000000E+00  0.10566000000E+00 0.  1.
     999900   -1    0    0    0    0 -0.00000000000E+00 -0.00000000000E+00 -0.74505805969E-08  0.93827000000E+00  0.93827000000E+00 0. -1.
     999902    2    1    2    0    0  0.22158088025E-01 -0.54190807804E-02  0.82030600748E-02  0.10196887646E+01  0.10194005783E+01 0.  0.
     999903    2    3    3    0    0 -0.82505139761E-01 -0.53050316196E-01  0.81530920570E-01  0.12918323343E+00  0.20483716816E-01 0.  0.
         14    1    1    2    0    0 -0.22158088025E-01  0.54190807804E-02 -0.82030600748E-02  0.24241235447E-01  0.00000000000E+00 0. -1.
     999901    1    3    3    0    0  0.10466322779E+00  0.47631235416E-01 -0.73327860496E-01  0.89050553112E+00  0.88000000000E+00 0.  1.
        -11    1    4    4    0    0 -0.55661132794E-01 -0.32241990068E-01  0.64840354440E-01  0.91335865422E-01  0.51100000000E-03 0.  1.
         11    1    4    4    0    0 -0.26844006967E-01 -0.20808326128E-01  0.16690566130E-01  0.37847368006E-01  0.51100000000E-03 0. -1.
</event>
<event>
 8    1  0.1106168E+005  0.1043930E+01  0.7957747E-01            NaN
         13   -1    0    0    0    0  0.00000000000E+00  0.00000000000E+00  0.74505805969E-08  0.10566000000E+00  0.10566000000E+00 0. -1.
     999900   -1    0    0    0    0 -0.00000000000E+00 -0.00000000000E+00 -0.74505805969E-08  0.93827000000E+00  0.93827000000E+00 0.  1.
     999902    2    1    2    0    0  0.22761633343E-01 -0.13014861535E-02 -0.52641944697E-02  0.10205313342E+01  0.10202630575E+01 0.  0.
     999903    2    3    3    0    0  0.62804332591E-01  0.46072593911E-01  0.10416505150E+00  0.13158674587E+00  0.19941053943E-01 0.  0.
         14    1    1    2    0    0 -0.22761633343E-01  0.13014861535E-02  0.52641944697E-02  0.23398665818E-01  0.00000000000E+00 0.  1.
     999901    1    3    3    0    0 -0.40042699248E-01 -0.47374080064E-01 -0.10942924597E+00  0.88894458832E+00  0.88000000000E+00 0.  1.
        -11    1    4    4    0    0  0.44073753913E-01  0.27223366943E-01  0.54100946404E-01  0.74905146782E-01  0.51100000000E-03 0. -1.
         11    1    4    4    0    0  0.18730578678E-01  0.18849226968E-01  0.50064105093E-01  0.56681599083E-01  0.51100000000E-03 0.  1.
</event>
<event>
 8    1  0.1106168E+005  0.1043930E+01  0.7957747E-01            NaN
         13   -1    0    0    0    0  0.00000000000E+00  0.00000000000E+00  0.74505805969E-08  0.10566000000E+00  0.10566000000E+00 0. -1.
     999900   -1    0    0    0    0 -0.00000000000E+00 -0.00000000000E+00 -0.74505805969E-08  0.93827000000E+00  0.93827000000E+00 0.  1.
     999902    2    1    2    0    0  0.17947491255E-01  0.50238401033E-02 -0.14250374170E-01  0.10204688710E+01  0.10201991433E+01 0.  0.
     999903    2    3    3    0    0 -0.17400830299E-01 -0.27099856918E-03  0.12572418683E+00  0.12868951659E+00  0.21249898592E-01 0.  0.
         14    1    1    2    0    0 -0.17947491255E-01 -0.50238401033E-02  0.14250374170E-01  0.23461129038E-01  0.00000000000E+00 0. -1.
     999901    1    3    3    0    0  0.35348321554E-01  0.52948386725E-02 -0.13997456100E+00  0.89177935437E+00  0.88000000000E+00 0.  1.
        -11    1    4    4    0    0 -0.71356352934E-02 -0.95307080149E-03  0.10760783266E+00  0.10784958232E+00  0.51100000000E-03 0.  1.
         11    1    4    4    0    0 -0.10265195006E-01  0.68207223232E-03  0.18116354172E-01  0.20839934274E-01  0.51100000000E-03 0. -1.
</event>
<event>
 8    1  0.1106168E+005  0.1043930E+01  0.7957747E-01            NaN
         13   -1    0    0    0    0  0.00000000000E+00  0.00000000000E+00  0.74505805969E-08  0.10566000000E+00  0.10566000000E+00 0.  1.
     999900   -1    0    0    0    0 -0.00000000000E+00 -0.00000000000E+00 -0.74505805969E-08  0.93827000000E+00  0.93827000000E+00 0. -1.
     999902    2    1    2    0    0 -0.21206046413E-01  0.96669909148E-02 -0.44953722953E-02  0.10201948891E+01  0.10199187498E+01 0.  0.
     999903    2    3    3    0    0  0.16710840290E-01  0.10823037184E+00 -0.69835305193E-01  0.13147573368E+00  0.20391986754E-01 0.  0.
         14    1    1    2    0    0  0.21206046413E-01 -0.96669909148E-02  0.44953722953E-02  0.23735110910E-01  0.00000000000E+00 0.  1.
     999901    1    3    3    0    0 -0.37916886704E-01 -0.98563380927E-01  0.65339932898E-01  0.88871915541E+00  0.88000000000E+00 0.  1.
        -11    1    4    4    0    0  0.64965918820E-02  0.91663324858E-01 -0.58794063140E-01  0.10909341782E+00  0.51100000000E-03 0.  1.
         11    1    4    4    0    0  0.10214248408E-01  0.16567046984E-01 -0.11041242053E-01  0.22382315863E-01  0.51100000000E-03 0. -1.
</event>
<event>
 8    1  0.1106168E+005  0.1043930E+01  0.7957747E-01            NaN
         13   -1    0    0    0    0  0.00000000000E+00  0.00000000000E+00  0.74505805969E-08  0.10566000000E+00  0.10566000000E+00 0. -1.
     999900   -1    0    0    0    0 -0.00000000000E+00 -0.00000000000E+00 -0.74505805969E-08  0.93827000000E+00  0.93827000000E+00 0. -1.
     999902    2    1    2    0    0 -0.28688122490E-02 -0.20173758673E-01  0.11517272713E-01  0.10205236292E+01  0.10202551738E+01 0.  0.
     999903    2    3    3    0    0 -0.54869179147E-01 -0.11044315465E+00 -0.43208850089E-01  0.13269056465E+00  0.23053502815E-01 0.  0.
         14    1    1    2    0    0  0.28688122490E-02  0.20173758673E-01 -0.11517272713E-01  0.23406370788E-01  0.00000000000E+00 0.  1.
     999901    1    3    3    0    0  0.52000366898E-01  0.90269395979E-01  0.54726122802E-01  0.88783306456E+00  0.88000000000E+00 0.  1.
        -11    1    4    4    0    0 -0.32366518140E-01 -0.58736074664E-01 -0.35166584483E-01  0.75726268551E-01  0.51100000000E-03 0.  1.
         11    1    4    4    0    0 -0.22502661007E-01 -0.51707079988E-01 -0.80422656065E-02  0.56964296102E-01  0.51100000000E-03 0. -1.
</event>
<event>
 8    1  0.1106168E+005  0.1043930E+01  0.7957747E-01            NaN
         13   -1    0    0    0    0  0.00000000000E+00  0.00000000000E+00  0.74505805969E-08  0.10566000000E+00  0.10566000000E+00 0. -1.
     999900   -1    0    0    0    0 -0.00000000000E+00 -0.00000000000E+00 -0.74505805969E-08  0.93827000000E+00  0.93827000000E+00 0.  1.
     999902    2    1    2    0    0  0.12156206318E-01  0.16519391410E-01  0.12100203849E-01  0.10201165883E+01  0.10198386025E+01 0.  0.
     999903    2    3    3    0    0 -0.78793321416E-02 -0.10630897703E+00 -0.62942443008E-01  0.12819751698E+00  0.33304200287E-01 0.  0.
         14    1    1    2    0    0 -0.12156206318E-01 -0.16519391410E-01 -0.12100203849E-01  0.23813411721E-01  0.00000000000E+00 0.  1.
     999901    1    3    3    0    0  0.20035538460E-01  0.12282836844E+00  0.75042646857E-01  0.89191907130E+00  0.88000000000E+00 0. -1.
        -11    1    4    4    0    0  0.47728456891E-02 -0.38372432888E-01 -0.39358176450E-01  0.55177448620E-01  0.51100000000E-03 0. -1.
         11    1    4    4    0    0 -0.12652177831E-01 -0.67936544141E-01 -0.23584266558E-01  0.73020068363E-01  0.51100000000E-03 0.  1.
</event>
<event>
 8    1  0.1106168E+005  0.1043930E+01  0.7957747E-01            NaN
         13   -1    0    0    0    0  0.00000000000E+00  0.00000000000E+00  0.74505805969E-08  0.10566000000E+00  0.10566000000E+00 0.  1.
     999900   -1    0    0    0    0 -0.00000000000E+00 -0.00000000000E+00 -0.74505805969E-08  0.93827000000E+00  0.93827000000E+00 0. -1.
     999902    2    1    2    0    0  0.76232062529E-02  0.98970008868E-02  0.17750979491E-01  0.10222237527E+01  0.10219932678E+01 0.  0.
     999903    2    3    3    0    0 -0.11446708085E+00  0.25844488644E-01 -0.54062342802E-01  0.13075445212E+00  0.20083317640E-01 0.  0.
         14    1    1    2    0    0 -0.76232062529E-02 -0.98970008868E-02 -0.17750979491E-01  0.21706247327E-01  0.00000000000E+00 0. -1.
     999901    1    3    3    0    0  0.12209028711E+00 -0.15947487757E-01  0.71813322293E-01  0.89146930055E+00  0.88000000000E+00 0.  1.
        -11    1    4    4    0    0 -0.45279941482E-01  0.10703424235E-02 -0.16381131984E-01  0.48166599834E-01  0.51100000000E-03 0.  1.
         11    1    4    4    0    0 -0.69187139371E-01  0.24774146221E-01 -0.37681210818E-01  0.82587852285E-01  0.51100000000E-03 0. -1.
</event>
<event>
 8    1  0.1106168E+005  0.1043930E+01  0.7957747E-01            NaN
         13   -1    0    0    0    0  0.00000000000E+00  0.00000000000E+00  0.74505805969E-08  0.10566000000E+00  0.10566000000E+00 0. -1.
     999900   -1    0    0    0    0 -0.00000000000E+00 -0.00000000000E+00 -0.74505805969E-08  0.93827000000E+00  0.93827000000E+00 0.  1.
     999902    2    1    2    0    0 -0.14621603656E-01  0.18414991638E-01 -0.48700526971E-02  0.10199170738E+01  0.10196343545E+01 0.  0.
     999903    2    3    3    0    0 -0.16602365183E-01 -0.90144111089E-01 -0.88781178073E-01  0.12928242417E+00  0.20742428121E-01 0.  0.
         14    1    1    2    0    0  0.14621603656E-01 -0.18414991638E-01  0.48700526971E-02  0.24012926181E-01  0.00000000000E+00 0. -1.
     999901    1    3    3    0    0  0.19807615265E-02  0.10855910273E+00  0.83911125376E-01  0.89063464965E+00  0.88000000000E+00 0.  1.
        -11    1    4    4    0    0 -0.58518907913E-02 -0.51206876723E-01 -0.62835124618E-01  0.81270553439E-01  0.51100000000E-03 0.  1.
         11    1    4    4    0    0 -0.10750474392E-01 -0.38937234367E-01 -0.25946053455E-01  0.48011870726E-01  0.51100000000E-03 0. -1.
</event>
<event>
 8    1  0.1106168E+005  0.1043930E+01  0.7957747E-01            NaN
         13   -1    0    0    0    0  0.00000000000E+00  0.00000000000E+00  0.74505805969E-08  0.10566000000E+00  0.10566000000E+00 0. -1.
     999900   -1    0    0    0    0 -0.00000000000E+00 -0.00000000000E+00 -0.74505805969E-08  0.93827000000E+00  0.93827000000E+00 0.  1.
     999902    2    1    2    0    0 -0.63300138520E-02  0.16776889756E-01 -0.17090956305E-01  0.10191583652E+01  0.10188572713E+01 0.  0.
     999903    2    3    3    0    0 -0.97361915758E-01  0.30297319830E-01  0.76900101203E-01  0.12938090529E+00  0.20700793720E-01 0.  0.
         14    1    1    2    0    0  0.63300138520E-02 -0.16776889756E-01  0.17090956305E-01  0.24771634840E-01  0.00000000000E+00 0. -1.
     999901    1    3    3    0    0  0.91031901906E-01 -0.13520430074E-01 -0.93991057508E-01  0.88977745987E+00  0.88000000000E+00 0.  1.
        -11    1    4    4    0    0 -0.67730459609E-01  0.30788806248E-01  0.54399012932E-01  0.92167670460E-01  0.51100000000E-03 0.  1.
         11    1    4    4    0    0 -0.29631456149E-01 -0.49148641843E-03  0.22501088271E-01  0.37213234834E-01  0.51100000000E-03 0. -1.
</event>
<event>
 8    1  0.1106168E+005  0.1043930E+01  0.7957747E-01            NaN
         13   -1    0    0    0    0  0.00000000000E+00  0.00000000000E+00  0.74505805969E-08  0.10566000000E+00  0.10566000000E+00 0. -1.
     999900   -1    0    0    0    0 -0.00000000000E+00 -0.00000000000E+00 -0.74505805969E-08  0.93827000000E+00  0.93827000000E+00 0.  1.
     999902    2    1    2    0    0 -0.11397102289E-01  0.52220313625E-02 -0.19608691622E-01  0.10206563166E+01  0.10203909311E+01 0.  0.
     999903    2    3    3    0    0 -0.18877879670E-01 -0.23588576635E-01  0.12332734915E+00  0.12862676276E+00  0.20552706932E-01 0.  0.
         14    1    1    2    0    0  0.11397102289E-01 -0.52220313625E-02  0.19608691622E-01  0.23273683405E-01  0.00000000000E+00 0. -1.
     999901    1    3    3    0    0  0.74807773818E-02  0.28810607998E-01 -0.14293604077E+00  0.89202955383E+00  0.88000000000E+00 0.  1.
        -11    1    4    4    0    0 -0.87615414069E-02 -0.24580698860E-01  0.95264588843E-01  0.98775393559E-01  0.51100000000E-03 0.  1.
         11    1    4    4    0    0 -0.10116338263E-01  0.99212222470E-03  0.28062760303E-01  0.29851369201E-01  0.51100000000E-03 0. -1.
</event>
<event>
 8    1  0.1106168E+005  0.1043930E+01  0.7957747E-01            NaN
         13   -1    0    0    0    0  0.00000000000E+00  0.00000000000E+00  0.74505805969E-08  0.10566000000E+00  0.10566000000E+00 0. -1.
     999900   -1    0    0    0    0 -0.00000000000E+00 -0.00000000000E+00 -0.74505805969E-08  0.93827000000E+00  0.93827000000E+00 0. -1.
     999902    2    1    2    0    0 -0.20926393815E-02  0.16534846539E-01  0.15005878398E-01  0.10215033044E+01  0.10212570902E+01 0.  0.
     999903    2    3    3    0    0  0.95940598799E-01  0.72146421829E-01 -0.50912098105E-01  0.13186947931E+00  0.19692972332E-01 0.  0.
         14    1    1    2    0    0  0.20926393815E-02 -0.16534846539E-01 -0.15005878398E-01  0.22426695614E-01  0.00000000000E+00 0. -1.
     999901    1    3    3    0    0 -0.98033238180E-01 -0.55611575290E-01  0.65917976503E-01  0.88963382508E+00  0.88000000000E+00 0.  1.
        -11    1    4    4    0    0  0.70296235118E-01  0.59722056093E-01 -0.31865593908E-01  0.97590787741E-01  0.51100000000E-03 0. -1.
         11    1    4    4    0    0  0.25644363681E-01  0.12424365736E-01 -0.19046504197E-01  0.34278691569E-01  0.51100000000E-03 0.  1.
</event>
<event>
 8    1  0.1106168E+005  0.1043930E+01  0.7957747E-01            NaN
         13   -1    0    0    0    0  0.00000000000E+00  0.00000000000E+00  0.74505805969E-08  0.10566000000E+00  0.10566000000E+00 0.  1.
     999900   -1    0    0    0    0 -0.00000000000E+00 -0.00000000000E+00 -0.74505805969E-08  0.93827000000E+00  0.93827000000E+00 0.  1.
     999902    2    1    2    0    0 -0.18653262964E-01  0.84166528646E-02  0.62629513591E-02  0.10225288593E+01  0.10223048759E+01 0.  0.
     999903    2    3    3    0    0  0.17269371140E-01 -0.12390542940E+00 -0.33956809299E-01  0.13100365030E+00  0.18923659243E-01 0.  0.
         14    1    1    2    0    0  0.18653262964E-01 -0.84166528646E-02 -0.62629513591E-02  0.21401140726E-01  0.00000000000E+00 0. -1.
     999901    1    3    3    0    0 -0.35922634104E-01  0.13232208226E+00  0.40219760658E-01  0.89152520898E+00  0.88000000000E+00 0. -1.
        -11    1    4    4    0    0  0.18476925712E-01 -0.99071699330E-01 -0.33252549440E-01  0.10612535775E+00  0.51100000000E-03 0. -1.
         11    1    4    4    0    0 -0.12075545712E-02 -0.24833730069E-01 -0.70425985871E-03  0.24878292548E-01  0.51100000000E-03 0.  1.
</event>
<event>
 8    1  0.1106168E+005  0.1043930E+01  0.7957747E-01            NaN
         13   -1    0    0    0    0  0.00000000000E+00  0.00000000000E+00  0.74505805969E-08  0.10566000000E+00  0.10566000000E+00 0.  1.
     999900   -1    0    0    0    0 -0.00000000000E+00 -0.00000000000E+00 -0.74505805969E-08  0.93827000000E+00  0.93827000000E+00 0.  1.
     999902    2    1    2    0    0 -0.22368132513E-01  0.23938555704E-02 -0.10073745485E-01  0.10192815874E+01  0.10189835181E+01 0.  0.
     999903    2    3    3    0    0  0.12155850312E+00  0.30859760722E-01  0.50520635097E-02  0.12700698038E+00  0.19402453652E-01 0.  0.
         14    1    1    2    0    0  0.22368132513E-01 -0.23938555704E-02  0.10073745485E-01  0.24648412620E-01  0.00000000000E+00 0.  1.
     999901    1    3    3    0    0 -0.14392663563E+00 -0.28465905151E-01 -0.15125808994E-01  0.89227460700E+00  0.88000000000E+00 0.  1.
        -11    1    4    4    0    0  0.59984891716E-01  0.23641987643E-01 -0.26548732256E-02  0.64532474667E-01  0.51100000000E-03 0.  1.
         11    1    4    4    0    0  0.61573611401E-01  0.72177730792E-02  0.77069367353E-02  0.62474505713E-01  0.51100000000E-03 0. -1.
</event>
<event>
 8    1  0.1106168E+005  0.1043930E+01  0.7957747E-01            NaN
         13   -1    0    0    0    0  0.00000000000E+00  0.00000000000E+00  0.74505805969E-08  0.10566000000E+00  0.10566000000E+00 0. -1.
     999900   -1    0    0    0    0 -0.00000000000E+00 -0.00000000000E+00 -0.74505805969E-08  0.93827000000E+00  0.93827000000E+00 0. -1.
     999902    2    1    2    0    0 -0.25463852306E-01 -0.13366010498E-01 -0.43128409011E-02  0.10148497901E+01  0.10144330623E+01 0.  0.
     999903    2    3    3    0    0 -0.66959178755E-01  0.84575551604E-01  0.62182797393E-01  0.12595379978E+00  0.19002732400E-01 0.  0.
         14    1    1    2    0    0  0.25463852306E-01  0.13366010498E-01  0.43128409011E-02  0.29080209895E-01  0.00000000000E+00 0.  1.
     999901    1    3    3    0    0  0.41495326450E-01 -0.97941562102E-01 -0.66495638294E-01  0.88889599033E+00  0.88000000000E+00 0. -1.
        -11    1    4    4    0    0 -0.23029655801E-01  0.17437265372E-01  0.21369742332E-01  0.35935362504E-01  0.51100000000E-03 0. -1.
         11    1    4    4    0    0 -0.43929522955E-01  0.67138286233E-01  0.40813055061E-01  0.90018437276E-01  0.51100000000E-03 0.  1.
</event>
<event>
 8    1  0.1106168E+005  0.1043930E+01  0.7957747E-01            NaN
         13   -1    0    0    0    0  0.00000000000E+00  0.00000000000E+00  0.74505805969E-08  0.10566000000E+00  0.10566000000E+00 0.  1.
     999900   -1    0    0    0    0 -0.00000000000E+00 -0.00000000000E+00 -0.74505805969E-08  0.93827000000E+00  0.93827000000E+00 0.  1.
     999902    2    1    2    0    0  0.18187927851E-01  0.19010495249E-01 -0.27057808638E-02  0.10174815426E+01  0.10171377334E+01 0.  0.
     999903    2    3    3    0    0  0.68409902665E-01  0.38571276727E-01  0.10135099092E+00  0.12971317039E+00  0.19642429644E-01 0.  0.
         14    1    1    2    0    0 -0.18187927851E-01 -0.19010495249E-01  0.27057808638E-02  0.26448457407E-01  0.00000000000E+00 0. -1.
     999901    1    3    3    0    0 -0.50221974814E-01 -0.19560781478E-01 -0.10405677178E+00  0.88776837220E+00  0.88000000000E+00 0.  1.
        -11    1    4    4    0    0  0.33505913414E-01  0.29441047539E-01  0.61215233698E-01  0.75742903771E-01  0.51100000000E-03 0. -1.
         11    1    4    4    0    0  0.34903989250E-01  0.91302291877E-02  0.40135757220E-01  0.53970266622E-01  0.51100000000E-03 0.  1.
</event>
<event>
 8    1  0.1106168E+005  0.1043930E+01  0.7957747E-01            NaN
         13   -1    0    0    0    0  0.00000000000E+00  0.00000000000E+00  0.74505805969E-08  0.10566000000E+00  0.10566000000E+00 0.  1.
     999900   -1    0    0    0    0 -0.00000000000E+00 -0.00000000000E+00 -0.74505805969E-08  0.93827000000E+00  0.93827000000E+00 0.  1.
     999902    2    1    2    0    0 -0.16688472413E-01 -0.17324931906E-01  0.58493495603E-02  0.10191737227E+01  0.10188730067E+01 0.  0.
     999903    2    3    3    0    0 -0.12933008543E+00 -0.14641486230E-02  0.15103493747E-01  0.13180382425E+00  0.20389159791E-01 0.  0.
         14    1    1    2    0    0  0.16688472413E-01  0.17324931906E-01 -0.58493495603E-02  0.24756277332E-01  0.00000000000E+00 0.  1.
     999901    1    3    3    0    0  0.11264161301E+00 -0.15860783283E-01 -0.92541441863E-02  0.88736989842E+00  0.88000000000E+00 0.  1.
        -11    1    4    4    0    0 -0.11545708846E+00  0.74388226687E-03  0.72175416761E-02  0.11568598301E+00  0.51100000000E-03 0.  1.
         11    1    4    4    0    0 -0.13872996963E-01 -0.22080308899E-02  0.78859520705E-02  0.16117841239E-01  0.51100000000E-03 0. -1.
</event>
<event>
 8    1  0.1106168E+005  0.1043930E+01  0.7957747E-01            NaN
         13   -1    0    0    0    0  0.00000000000E+00  0.00000000000E+00  0.74505805969E-08  0.10566000000E+00  0.10566000000E+00 0.  1.
     999900   -1    0    0    0    0 -0.00000000000E+00 -0.00000000000E+00 -0.74505805969E-08  0.93827000000E+00  0.93827000000E+00 0.  1.
     999902    2    1    2    0    0  0.11492351405E-01  0.19589778019E-01  0.57973035399E-02  0.10204898150E+01  0.10202205743E+01 0.  0.
     999903    2    3    3    0    0  0.13053634882E+00  0.10489006176E-01  0.83322035528E-03  0.13241383883E+00  0.19569691927E-01 0.  0.
         14    1    1    2    0    0 -0.11492351405E-01 -0.19589778019E-01 -0.57973035399E-02  0.23440184982E-01  0.00000000000E+00 0. -1.
     999901    1    3    3    0    0 -0.11904399742E+00  0.91007718426E-02  0.49640831847E-02  0.88807597619E+00  0.88000000000E+00 0. -1.
        -11    1    4    4    0    0  0.53035040023E-01  0.13676434664E-02 -0.88126673949E-02  0.53782061568E-01  0.51100000000E-03 0. -1.
         11    1    4    4    0    0  0.77501308799E-01  0.91213627099E-02  0.96458877502E-02  0.78631777257E-01  0.51100000000E-03 0.  1.
</event>
<event>
 8    1  0.1106168E+005  0.1043930E+01  0.7957747E-01            NaN
         13   -1    0    0    0    0  0.00000000000E+00  0.00000000000E+00  0.74505805969E-08  0.10566000000E+00  0.10566000000E+00 0.  1.
     999900   -1    0    0    0    0 -0.00000000000E+00 -0.00000000000E+00 -0.74505805969E-08  0.93827000000E+00  0.93827000000E+00 0.  1.
     999902    2    1    2    0    0 -0.28834981563E-01  0.19658588653E-01  0.11318271591E-01  0.10072418610E+01  0.10065734683E+01 0.  0.
     999903    2    3    3    0    0  0.55673641006E-01  0.10467307792E-01  0.10211385517E+00  0.11849553899E+00  0.20120499688E-01 0.  0.
         14    1    1    2    0    0  0.28834981563E-01 -0.19658588653E-01 -0.11318271591E-01  0.36688138974E-01  0.00000000000E+00 0.  1.
     999901    1    3    3    0    0 -0.84508622569E-01  0.91912808608E-02 -0.90795583580E-01  0.88874632203E+00  0.88000000000E+00 0.  1.
        -11    1    4    4    0    0  0.20950270348E-01 -0.57177162401E-02  0.39923653943E-01  0.45450691654E-01  0.51100000000E-03 0. -1.
         11    1    4    4    0    0  0.34723370658E-01  0.16185024032E-01  0.62190201228E-01  0.73044847338E-01  0.51100000000E-03 0.  1.
</event>
<event>
 8    1  0.1106168E+005  0.1043930E+01  0.7957747E-01            NaN
         13   -1    0    0    0    0  0.00000000000E+00  0.00000000000E+00  0.74505805969E-08  0.10566000000E+00  0.10566000000E+00 0.  1.
     999900   -1    0    0    0    0 -0.00000000000E+00 -0.00000000000E+00 -0.74505805969E-08  0.93827000000E+00  0.93827000000E+00 0. -1.
     999902    2    1    2    0    0  0.23322614505E-01 -0.93703037530E-02 -0.41390847885E-02  0.10184568973E+01  0.10181382876E+01 0.  0.
     999903    2    3    3    0    0  0.11837227196E+00  0.49988906087E-01  0.17500277211E-01  0.13108650383E+00  0.19144876143E-01 0.  0.
         14    1    1    2    0    0 -0.23322614505E-01  0.93703037530E-02  0.41390847885E-02  0.25473102730E-01  0.00000000000E+00 0. -1.
     999901    1    3    3    0    0 -0.95049657453E-01 -0.59359209840E-01 -0.21639362000E-01  0.88737039344E+00  0.88000000000E+00 0.  1.
        -11    1    4    4    0    0  0.56297055770E-01  0.30696997958E-01  0.15875582842E-01  0.66060271144E-01  0.51100000000E-03 0.  1.
         11    1    4    4    0    0  0.62075216188E-01  0.19291908129E-01  0.16246943690E-02  0.65026232682E-01  0.51100000000E-03 0. -1.
</event>
<event>
 8    1  0.1106168E+005  0.1043930E+01  0.7957747E-01            NaN
         13   -1    0    0    0    0  0.00000000000E+00  0.00000000000E+00  0.74505805969E-08  0.10566000000E+00  0.10566000000E+00 0.  1.
     999900   -1    0    0    0    0 -0.00000000000E+00 -0.00000000000E+00 -0.74505805969E-08  0.93827000000E+00  0.93827000000E+00 0.  1.
     999902    2    1    2    0    0  0.20660437763E-01 -0.11553691585E-01  0.67482189447E-02  0.10193153715E+01  0.10190181287E+01 0.  0.
     999903    2    3    3    0    0 -0.71230818548E-01  0.74701736353E-01 -0.71149263174E-01  0.12692979364E+00  0.19868969221E-01 0.  0.
         14    1    1    2    0    0 -0.20660437763E-01  0.11553691585E-01 -0.67482189447E-02  0.24614628510E-01  0.00000000000E+00 0. -1.
     999901    1    3    3    0    0  0.91891256310E-01 -0.86255427938E-01  0.77897482119E-01  0.89238557785E+00  0.88000000000E+00 0.  1.
        -11    1    4    4    0    0 -0.46130371126E-01  0.37454512768E-01 -0.32840477316E-01  0.67894106801E-01  0.51100000000E-03 0. -1.
         11    1    4    4    0    0 -0.25100447422E-01  0.37247223585E-01 -0.38308785858E-01  0.59035686839E-01  0.51100000000E-03 0.  1.
</event>
<event>
 8    1  0.1106168E+005  0.1043930E+01  0.7957747E-01            NaN
         13   -1    0    0    0    0  0.00000000000E+00  0.00000000000E+00  0.74505805969E-08  0.10566000000E+00  0.10566000000E+00 0.  1.
     999900   -1    0    0    0    0 -0.00000000000E+00 -0.00000000000E+00 -0.74505805969E-08  0.93827000000E+00  0.93827000000E+00 0. -1.
     999902    2    1    2    0    0 -0.25676262197E-02 -0.10162740893E-01  0.22056108275E-01  0.10195098051E+01  0.10192172961E+01 0.  0.
     999903    2    3    3    0    0  0.12068698309E+00  0.41414817427E-01  0.89203187137E-02  0.12932752477E+00  0.19118095851E-01 0.  0.
         14    1    1    2    0    0  0.25676262197E-02  0.10162740893E-01 -0.22056108275E-01  0.24420194903E-01  0.00000000000E+00 0. -1.
     999901    1    3    3    0    0 -0.12325460930E+00 -0.51577558320E-01  0.13135789562E-01  0.89018228032E+00  0.88000000000E+00 0.  1.
        -11    1    4    4    0    0  0.79737564787E-01  0.24182660996E-01  0.14399392257E-01  0.84560534231E-01  0.51100000000E-03 0.  1.
         11    1    4    4    0    0  0.40949418298E-01  0.17232156431E-01 -0.54790735437E-02  0.44766990541E-01  0.51100000000E-03 0. -1.
</event>
<event>
 8    1  0.1106168E+005  0.1043930E+01  0.7957747E-01            NaN
         13   -1    0    0    0    0  0.00000000000E+00  0.00000000000E+00  0.74505805969E-08  0.10566000000E+00  0.10566000000E+00 0. -1.
     999900   -1    0    0    0    0 -0.00000000000E+00 -0.00000000000E+00 -0.74505805969E-08  0.93827000000E+00  0.93827000000E+00 0. -1.
     999902    2    1    2    0    0 -0.21652655068E-01  0.58554473715E-03 -0.93542015610E-02  0.10203359028E+01  0.10200630731E+01 0.  0.
     999903    2    3    3    0    0  0.62748751223E-01 -0.11238918693E-01 -0.11198145887E+00  0.13028210151E+00  0.19231738571E-01 0.  0.
         14    1    1    2    0    0  0.21652655068E-01 -0.58554473715E-03  0.93542015610E-02  0.23594097164E-01  0.00000000000E+00 0. -1.
     999901    1    3    3    0    0 -0.84401406291E-01  0.11824463430E-01  0.10262725731E+00  0.89005380133E+00  0.88000000000E+00 0.  1.
        -11    1    4    4    0    0  0.22712114314E-01 -0.13551788276E-01 -0.46283391989E-01  0.53309516947E-01  0.51100000000E-03 0.  1.
         11    1    4    4    0    0  0.40036636909E-01  0.23128695826E-02 -0.65698066881E-01  0.76972584559E-01  0.51100000000E-03 0. -1.
</event>
<event>
 8    1  0.1106168E+005  0.1043930E+01  0.7957747E-01            NaN
         13   -1    0    0    0    0  0.00000000000E+00  0.00000000000E+00  0.74505805969E-08  0.10566000000E+00  0.10566000000E+00 0. -1.
     999900   -1    0    0    0    0 -0.00000000000E+00 -0.00000000000E+00 -0.74505805969E-08  0.93827000000E+00  0.93827000000E+00 0.  1.
     999902    2    1    2    0    0 -0.22744002278E-02 -0.75961552409E-02  0.22471977226E-01  0.10201000980E+01  0.10198217225E+01 0.  0.
     999903    2    3    3    0    0  0.11047830335E+00 -0.27717003477E-01  0.63264674412E-01  0.13174089986E+00  0.19482245124E-01 0.  0.
         14    1    1    2    0    0  0.22744002278E-02  0.75961552409E-02 -0.22471977226E-01  0.23829902041E-01  0.00000000000E+00 0.  1.
     999901    1    3    3    0    0 -0.11275270358E+00  0.20120848236E-01 -0.40792697186E-01  0.88835919810E+00  0.88000000000E+00 0. -1.
        -11    1    4    4    0    0  0.11399021610E-01  0.25729705079E-02  0.91635786225E-02  0.14859009559E-01  0.51100000000E-03 0. -1.
         11    1    4    4    0    0  0.99079281741E-01 -0.30289973985E-01  0.54101095789E-01  0.11688189030E+00  0.51100000000E-03 0.  1.
</event>
<event>
 8    1  0.1106168E+005  0.1043930E+01  0.7957747E-01            NaN
         13   -1    0    0    0    0  0.00000000000E+00  0.00000000000E+00  0.74505805969E-08  0.10566000000E+00  0.10566000000E+00 0. -1.
     999900   -1    0    0    0    0 -0.00000000000E+00 -0.00000000000E+00 -0.74505805969E-08  0.93827000000E+00  0.93827000000E+00 0. -1.
     999902    2    1    2    0    0  0.22705387347E-01 -0.69913528531E-02 -0.26211690754E-03  0.10201711630E+01  0.10198944649E+01 0.  0.
     999903    2    3    3    0    0  0.12787076417E+00  0.29637150047E-01 -0.54537407523E-02  0.13313770443E+00  0.21601205032E-01 0.  0.
         14    1    1    2    0    0 -0.22705387347E-01  0.69913528531E-02  0.26211690754E-03  0.23758836978E-01  0.00000000000E+00 0. -1.
     999901    1    3    3    0    0 -0.10516537683E+00 -0.36628502900E-01  0.51916238448E-02  0.88703345859E+00  0.88000000000E+00 0.  1.
        -11    1    4    4    0    0  0.26567316146E-01 -0.24977161107E-02 -0.26607904122E-02  0.26821666607E-01  0.51100000000E-03 0.  1.
         11    1    4    4    0    0  0.10130344803E+00  0.32134866158E-01 -0.27929503401E-02  0.10631603782E+00  0.51100000000E-03 0. -1.
</event>
<event>
 8    1  0.1106168E+005  0.1043930E+01  0.7957747E-01            NaN
         13   -1    0    0    0    0  0.00000000000E+00  0.00000000000E+00  0.74505805969E-08  0.10566000000E+00  0.10566000000E+00 0.  1.
     999900   -1    0    0    0    0 -0.00000000000E+00 -0.00000000000E+00 -0.74505805969E-08  0.93827000000E+00  0.93827000000E+00 0. -1.
     999902    2    1    2    0    0 -0.58577282023E-03 -0.16974765979E-02  0.23233972027E-01  0.10206267382E+01  0.10203606699E+01 0.  0.
     999903    2    3    3    0    0  0.58622531974E-01  0.78229233712E-01  0.87447312365E-01  0.13269810619E+00  0.20133074400E-01 0.  0.
         14    1    1    2    0    0  0.58577282023E-03  0.16974765979E-02 -0.23233972027E-01  0.23303261848E-01  0.00000000000E+00 0. -1.
     999901    1    3    3    0    0 -0.59208304794E-01 -0.79926710310E-01 -0.64213340338E-01  0.88792863196E+00  0.88000000000E+00 0. -1.
        -11    1    4    4    0    0  0.26911324072E-01  0.21951701757E-01  0.36884579451E-01  0.50663891438E-01  0.51100000000E-03 0.  1.
         11    1    4    4    0    0  0.31711207901E-01  0.56277531955E-01  0.50562732914E-01  0.82034214754E-01  0.51100000000E-03 0. -1.
</event>
<event>
 8    1  0.1106168E+005  0.1043930E+01  0.7957747E-01            NaN
         13   -1    0    0    0    0  0.00000000000E+00  0.00000000000E+00  0.74505805969E-08  0.10566000000E+00  0.10566000000E+00 0. -1.
     999900   -1    0    0    0    0 -0.00000000000E+00 -0.00000000000E+00 -0.74505805969E-08  0.93827000000E+00  0.93827000000E+00 0.  1.
     999902    2    1    2    0    0  0.16400120113E-01 -0.47052777867E-02 -0.16219460667E-01  0.10203890892E+01  0.10201175024E+01 0.  0.
     999903    2    3    3    0    0  0.54830312168E-01 -0.11736046125E+00 -0.19684528486E-01  0.13236877593E+00  0.18819436259E-01 0.  0.
         14    1    1    2    0    0 -0.16400120113E-01  0.47052777867E-02  0.16219460667E-01  0.23540910838E-01  0.00000000000E+00 0. -1.
     999901    1    3    3    0    0 -0.38430192055E-01  0.11265518346E+00  0.34650678195E-02  0.88802031323E+00  0.88000000000E+00 0. -1.
        -11    1    4    4    0    0  0.10115195398E-01 -0.42456092111E-01 -0.57163169441E-02  0.44020158288E-01  0.51100000000E-03 0.  1.
         11    1    4    4    0    0  0.44715116770E-01 -0.74904369140E-01 -0.13968211542E-01  0.88348617639E-01  0.51100000000E-03 0. -1.
</event>
<event>
 8    1  0.1106168E+005  0.1043930E+01  0.7957747E-01            NaN
         13   -1    0    0    0    0  0.00000000000E+00  0.00000000000E+00  0.74505805969E-08  0.10566000000E+00  0.10566000000E+00 0.  1.
     999900   -1    0    0    0    0 -0.00000000000E+00 -0.00000000000E+00 -0.74505805969E-08  0.93827000000E+00  0.93827000000E+00 0.  1.
     999902    2    1    2    0    0  0.12511031672E-01 -0.26875110180E-01 -0.16771556931E-02  0.10142380767E+01  0.10138033665E+01 0.  0.
     999903    2    3    3    0    0  0.95244856150E-01  0.75903757292E-01 -0.14868354297E-01  0.12430415269E+00  0.19937186895E-01 0.  0.
         14    1    1    2    0    0 -0.12511031672E-01  0.26875110180E-01  0.16771556931E-02  0.29691923345E-01  0.00000000000E+00 0. -1.
     999901    1    3    3    0    0 -0.82733824478E-01 -0.10277886747E+00  0.13191198604E-01  0.88993392397E+00  0.88000000000E+00 0. -1.
        -11    1    4    4    0    0  0.35258801260E-01  0.32139255999E-01 -0.15113702678E-01  0.50047976703E-01  0.51100000000E-03 0. -1.
         11    1    4    4    0    0  0.59986054890E-01  0.43764501293E-01  0.24534838064E-03  0.74256175983E-01  0.51100000000E-03 0.  1.
</event>
<event>
 8    1  0.1106168E+005  0.1043930E+01  0.7957747E-01            NaN
         13   -1    0    0    0    0  0.00000000000E+00  0.00000000000E+00  0.74505805969E-08  0.10566000000E+00  0.10566000000E+00 0.  1.
     999900   -1    0    0    0    0 -0.00000000000E+00 -0.00000000000E+00 -0.74505805969E-08  0.93827000000E+00  0.93827000000E+00 0. -1.
     999902    2    1    2    0    0  0.13923447855E-01 -0.14853911063E-01 -0.12960955007E-01  0.10197952237E+01  0.10195095933E+01 0.  0.
     999903    2    3    3    0    0 -0.37126545015E-02  0.62453480810E-01  0.10973887404E+00  0.12775110312E+00  0.19065749548E-01 0.  0.
         14    1    1    2    0    0 -0.13923447855E-01  0.14853911063E-01  0.12960955007E-01  0.24134776335E-01  0.00000000000E+00 0.  1.
     999901    1    3    3    0    0  0.17636102356E-01 -0.77307391873E-01 -0.12269982904E+00  0.89204412054E+00  0.88000000000E+00 0. -1.
        -11    1    4    4    0    0 -0.10280174317E-01  0.22724410226E-01  0.46730116324E-01  0.52972121882E-01  0.51100000000E-03 0. -1.
         11    1    4    4    0    0  0.65675198153E-02  0.39729070584E-01  0.63008757713E-01  0.74778981241E-01  0.51100000000E-03 0.  1.
</event>
<event>
 8    1  0.1106168E+005  0.1043930E+01  0.7957747E-01            NaN
         13   -1    0    0    0    0  0.00000000000E+00  0.00000000000E+00  0.74505805969E-08  0.10566000000E+00  0.10566000000E+00 0.  1.
     999900   -1    0    0    0    0 -0.00000000000E+00 -0.00000000000E+00 -0.74505805969E-08  0.93827000000E+00  0.93827000000E+00 0. -1.
     999902    2    1    2    0    0 -0.91782992611E-02  0.62809532339E-02  0.21470184695E-01  0.10197502485E+01  0.10194635398E+01 0.  0.
     999903    2    3    3    0    0 -0.72084195233E-01 -0.44097699263E-01 -0.94779171397E-01  0.12845396043E+00  0.19405935583E-01 0.  0.
         14    1    1    2    0    0  0.91782992611E-02 -0.62809532339E-02 -0.21470184695E-01  0.24179751481E-01  0.00000000000E+00 0. -1.
     999901    1    3    3    0    0  0.62905895972E-01  0.50378652497E-01  0.11624935609E+00  0.89129628809E+00  0.88000000000E+00 0. -1.
        -11    1    4    4    0    0 -0.48037372544E-01 -0.35758568904E-01 -0.55521786567E-01  0.81665135252E-01  0.51100000000E-03 0.  1.
         11    1    4    4    0    0 -0.24046822689E-01 -0.83391303587E-02 -0.39257384830E-01  0.46788825175E-01  0.51100000000E-03 0. -1.
</event>
<event>
 8    1  0.1106168E+005  0.1043930E+01  0.7957747E-01            NaN
         13   -1    0    0    0    0  0.00000000000E+00  0.00000000000E+00  0.74505805969E-08  0.10566000000E+00  0.10566000000E+00 0.  1.
     999900   -1    0    0    0    0 -0.00000000000E+00 -0.00000000000E+00 -0.74505805969E-08  0.93827000000E+00  0.93827000000E+00 0.  1.
     999902    2    1    2    0    0 -0.15399039773E-01 -0.14874294430E-01  0.10494779450E-01  0.10200864378E+01  0.10198077393E+01 0.  0.
     999903    2    3    3    0    0  0.91272802492E-01  0.27231002059E-01 -0.82716750873E-01  0.12776355496E+00  0.20229017614E-01 0.  0.
         14    1    1    2    0    0  0.15399039773E-01  0.14874294430E-01 -0.10494779450E-01  0.23843562159E-01  0.00000000000E+00 0. -1.
     999901    1    3    3    0    0 -0.10667184226E+00 -0.42105296489E-01  0.93211530324E-01  0.89232288288E+00  0.88000000000E+00 0. -1.
        -11    1    4    4    0    0  0.62642077960E-01  0.92536597270E-02 -0.58118425440E-01  0.85951571516E-01  0.51100000000E-03 0.  1.
         11    1    4    4    0    0  0.28630724531E-01  0.17977342332E-01 -0.24598325434E-01  0.41811983446E-01  0.51100000000E-03 0. -1.
</event>
<event>
 8    1  0.1106168E+005  0.1043930E+01  0.7957747E-01            NaN
         13   -1    0    0    0    0  0.00000000000E+00  0.00000000000E+00  0.74505805969E-08  0.10566000000E+00  0.10566000000E+00 0.  1.
     999900   -1    0    0    0    0 -0.00000000000E+00 -0.00000000000E+00 -0.74505805969E-08  0.93827000000E+00  0.93827000000E+00 0.  1.
     999902    2    1    2    0    0  0.59701640821E-02  0.12299831233E-01  0.19550981663E-01  0.10200727246E+01  0.10197937016E+01 0.  0.
     999903    2    3    3    0    0  0.11598049815E+00  0.51482761874E-01 -0.23567588079E-01  0.13131134673E+00  0.24192723100E-01 0.  0.
         14    1    1    2    0    0 -0.59701640821E-02 -0.12299831233E-01 -0.19550981663E-01  0.23857275441E-01  0.00000000000E+00 0. -1.
     999901    1    3    3    0    0 -0.11001033407E+00 -0.39182930642E-01  0.43118569741E-01  0.88876137782E+00  0.88000000000E+00 0. -1.
        -11    1    4    4    0    0  0.80949266172E-01  0.47287244362E-01 -0.19869610204E-01  0.95832821641E-01  0.51100000000E-03 0.  1.
         11    1    4    4    0    0  0.35031231982E-01  0.41955175126E-02 -0.36979778744E-02  0.35478525092E-01  0.51100000000E-03 0. -1.
</event>
<event>
 8    1  0.1106168E+005  0.1043930E+01  0.7957747E-01            NaN
         13   -1    0    0    0    0  0.00000000000E+00  0.00000000000E+00  0.74505805969E-08  0.10566000000E+00  0.10566000000E+00 0.  1.
     999900   -1    0    0    0    0 -0.00000000000E+00 -0.00000000000E+00 -0.74505805969E-08  0.93827000000E+00  0.93827000000E+00 0.  1.
     999902    2    1    2    0    0  0.12073897133E-01  0.55654322984E-02  0.18293149999E-01  0.10213160139E+01  0.10210656237E+01 0.  0.
     999903    2    3    3    0    0 -0.25843249590E-01  0.88028451350E-01  0.94575856217E-01  0.13336505201E+00  0.20609772477E-01 0.  0.
         14    1    1    2    0    0 -0.12073897133E-01 -0.55654322984E-02 -0.18293149999E-01  0.22613986060E-01  0.00000000000E+00 0. -1.
     999901    1    3    3    0    0  0.37917146723E-01 -0.82463019051E-01 -0.76282706218E-01  0.88795096193E+00  0.88000000000E+00 0.  1.
        -11    1    4    4    0    0 -0.84677105156E-03  0.13259042670E-01  0.54389761311E-02  0.14365333832E-01  0.51100000000E-03 0.  1.
         11    1    4    4    0    0 -0.24996478539E-01  0.74769408680E-01  0.89136880086E-01  0.11899971818E+00  0.51100000000E-03 0. -1.
</event>
<event>
 8    1  0.1106168E+005  0.1043930E+01  0.7957747E-01            NaN
         13   -1    0    0    0    0  0.00000000000E+00  0.00000000000E+00  0.74505805969E-08  0.10566000000E+00  0.10566000000E+00 0. -1.
     999900   -1    0    0    0    0 -0.00000000000E+00 -0.00000000000E+00 -0.74505805969E-08  0.93827000000E+00  0.93827000000E+00 0.  1.
     999902    2    1    2    0    0  0.22271214702E-01 -0.44546801302E-02 -0.83282985498E-02  0.10197388500E+01  0.10194518677E+01 0.  0.
     999903    2    3    3    0    0  0.54158629686E-01 -0.75148052894E-01  0.90169209403E-01  0.13085408853E+00  0.20295791109E-01 0.  0.
         14    1    1    2    0    0 -0.22271214702E-01  0.44546801302E-02  0.83282985498E-02  0.24191149954E-01  0.00000000000E+00 0. -1.
     999901    1    3    3    0    0 -0.31887414984E-01  0.70693372764E-01 -0.98497507953E-01  0.88888476152E+00  0.88000000000E+00 0.  1.
        -11    1    4    4    0    0  0.20176270664E-01 -0.44664294492E-01  0.50483906178E-01  0.70362397659E-01  0.51100000000E-03 0.  1.
         11    1    4    4    0    0  0.33982359022E-01 -0.30483758402E-01  0.39685303225E-01  0.60491690868E-01  0.51100000000E-03 0. -1.
</event>
<event>
 8    1  0.1106168E+005  0.1043930E+01  0.7957747E-01            NaN
         13   -1    0    0    0    0  0.00000000000E+00  0.00000000000E+00  0.74505805969E-08  0.10566000000E+00  0.10566000000E+00 0. -1.
     999900   -1    0    0    0    0 -0.00000000000E+00 -0.00000000000E+00 -0.74505805969E-08  0.93827000000E+00  0.93827000000E+00 0. -1.
     999902    2    1    2    0    0 -0.14768475381E-01 -0.51314072792E-02 -0.19081909125E-01  0.10192610223E+01  0.10189624493E+01 0.  0.
     999903    2    3    3    0    0 -0.10199559392E+00 -0.33107618339E-01  0.70642450275E-01  0.12996821378E+00  0.20054057946E-01 0.  0.
         14    1    1    2    0    0  0.14768475381E-01  0.51314072792E-02  0.19081909125E-01  0.24668977716E-01  0.00000000000E+00 0. -1.
     999901    1    3    3    0    0  0.87227118539E-01  0.27976211060E-01 -0.89724359399E-01  0.88929280851E+00  0.88000000000E+00 0. -1.
        -11    1    4    4    0    0 -0.15889656231E-01 -0.59486241695E-02  0.20759738854E-01  0.26815950159E-01  0.51100000000E-03 0.  1.
         11    1    4    4    0    0 -0.86105937689E-01 -0.27158994169E-01  0.49882711421E-01  0.10315226362E+00  0.51100000000E-03 0. -1.
</event>
<event>
 8    1  0.1106168E+005  0.1043930E+01  0.7957747E-01            NaN
         13   -1    0    0    0    0  0.00000000000E+00  0.00000000000E+00  0.74505805969E-08  0.10566000000E+00  0.10566000000E+00 0. -1.
     999900   -1    0    0    0    0 -0.00000000000E+00 -0.00000000000E+00 -0.74505805969E-08  0.93827000000E+00  0.93827000000E+00 0. -1.
     999902    2    1    2    0    0  0.16896033385E-01  0.14879817412E-01 -0.56421371466E-02  0.10207196872E+01  0.10204557615E+01 0.  0.
     999903    2    3    3    0    0 -0.12239983578E+00 -0.11893258516E-01 -0.32978751364E-01  0.12894200902E+00  0.20378278932E-01 0.  0.
         14    1    1    2    0    0 -0.16896033385E-01 -0.14879817412E-01  0.56421371466E-02  0.23210312836E-01  0.00000000000E+00 0. -1.
     999901    1    3    3    0    0  0.13929586916E+00  0.26773075928E-01  0.27336614217E-01  0.89177767814E+00  0.88000000000E+00 0. -1.
        -11    1    4    4    0    0 -0.80882270081E-01 -0.83687993924E-02 -0.11699080994E-01  0.82152955113E-01  0.51100000000E-03 0.  1.
         11    1    4    4    0    0 -0.41517565696E-01 -0.35244591237E-02 -0.21279670370E-01  0.46789053906E-01  0.51100000000E-03 0. -1.
</event>
<event>
 8    1  0.1106168E+005  0.1043930E+01  0.7957747E-01            NaN
         13   -1    0    0    0    0  0.00000000000E+00  0.00000000000E+00  0.74505805969E-08  0.10566000000E+00  0.10566000000E+00 0. -1.
     999900   -1    0    0    0    0 -0.00000000000E+00 -0.00000000000E+00 -0.74505805969E-08  0.93827000000E+00  0.93827000000E+00 0. -1.
     999902    2    1    2    0    0 -0.15969784400E-02 -0.21715423128E-01 -0.49487014213E-02  0.10216006564E+01  0.10213565986E+01 0.  0.
     999903    2    3    3    0    0 -0.87875667240E-01  0.19412792784E-01  0.93194602356E-01  0.13100105476E+00  0.19417853228E-01 0.  0.
         14    1    1    2    0    0  0.15969784400E-02  0.21715423128E-01  0.49487014213E-02  0.22329343643E-01  0.00000000000E+00 0. -1.
     999901    1    3    3    0    0  0.86278688800E-01 -0.41128215911E-01 -0.98143303777E-01  0.89059960160E+00  0.88000000000E+00 0. -1.
        -11    1    4    4    0    0 -0.66829175172E-01  0.74474324888E-02  0.74861460297E-01  0.10062853603E+00  0.51100000000E-03 0.  1.
         11    1    4    4    0    0 -0.21046492068E-01  0.11965360295E-01  0.18333142059E-01  0.30372518732E-01  0.51100000000E-03 0. -1.
</event>
<event>
 8    1  0.1106168E+005  0.1043930E+01  0.7957747E-01            NaN
         13   -1    0    0    0    0  0.00000000000E+00  0.00000000000E+00  0.74505805969E-08  0.10566000000E+00  0.10566000000E+00 0. -1.
     999900   -1    0    0    0    0 -0.00000000000E+00 -0.00000000000E+00 -0.74505805969E-08  0.93827000000E+00  0.93827000000E+00 0. -1.
     999902    2    1    2    0    0 -0.18313278412E-01 -0.13729507164E-01 -0.80646822493E-03  0.10210274690E+01  0.10207705749E+01 0.  0.
     999903    2    3    3    0    0  0.63136117229E-01  0.40915852322E-01  0.10326632954E+00  0.12948315349E+00  0.21016087897E-01 0.  0.
         14    1    1    2    0    0  0.18313278412E-01  0.13729507164E-01  0.80646822493E-03  0.22902530955E-01  0.00000000000E+00 0. -1.
     999901    1    3    3    0    0 -0.81449395640E-01 -0.54645359485E-01 -0.10407279777E+00  0.89154431556E+00  0.88000000000E+00 0. -1.
        -11    1    4    4    0    0  0.40657435878E-01  0.37568013523E-01  0.74632622629E-01  0.92922936963E-01  0.51100000000E-03 0. -1.
         11    1    4    4    0    0  0.22478681351E-01  0.33478387985E-02  0.28633706914E-01  0.36560216527E-01  0.51100000000E-03 0.  1.
</event>
<event>
 8    1  0.1149771E+005  0.1043930E+01  0.7957747E-01            NaN
         13   -1    0    0    0    0  0.00000000000E+00  0.00000000000E+00  0.74505805969E-08  0.10566000000E+00  0.10566000000E+00 0. -1.
     999900   -1    0    0    0    0 -0.00000000000E+00 -0.00000000000E+00 -0.74505805969E-08  0.93827000000E+00  0.93827000000E+00 0. -1.
     999902    2    1    2    0    0  0.92870836677E-02 -0.40641955046E-02  0.24889629784E-01  0.10170550809E+01  0.10166999440E+01 0.  0.
     999903    2    3    3    0    0  0.55426550428E-01  0.11168389345E+00  0.23714815786E-01  0.12827622722E+00  0.18628028159E-01 0.  0.
         14    1    1    2    0    0 -0.92870836677E-02  0.40641955046E-02 -0.24889629784E-01  0.26874919143E-01  0.00000000000E+00 0.  1.
     999901    1    3    3    0    0 -0.46139466760E-01 -0.11574808895E+00  0.11748139980E-02  0.88877885364E+00  0.88000000000E+00 0. -1.
        -11    1    4    4    0    0  0.13437213242E-01  0.27612037196E-01  0.14149327712E-01  0.33814906381E-01  0.51100000000E-03 0. -1.
         11    1    4    4    0    0  0.41989337186E-01  0.84071856252E-01  0.95654880743E-02  0.94461320836E-01  0.51100000000E-03 0.  1.
</event>
<event>
 8    1  0.1106168E+005  0.1043930E+01  0.7957747E-01            NaN
         13   -1    0    0    0    0  0.00000000000E+00  0.00000000000E+00  0.74505805969E-08  0.10566000000E+00  0.10566000000E+00 0. -1.
     999900   -1    0    0    0    0 -0.00000000000E+00 -0.00000000000E+00 -0.74505805969E-08  0.93827000000E+00  0.93827000000E+00 0.  1.
     999902    2    1    2    0    0  0.54927695530E-02 -0.22554753058E-01 -0.41985547960E-02  0.10203394242E+01  0.10200666769E+01 0.  0.
     999903    2    3    3    0    0  0.81982271941E-01  0.93987504622E-01  0.25267843991E-01  0.12887938000E+00  0.20412905507E-01 0.  0.
         14    1    1    2    0    0 -0.54927695530E-02  0.22554753058E-01  0.41985547960E-02  0.23590575772E-01  0.00000000000E+00 0. -1.
     999901    1    3    3    0    0 -0.76489502388E-01 -0.11654225768E+00 -0.29466398787E-01  0.89146004423E+00  0.88000000000E+00 0. -1.
        -11    1    4    4    0    0  0.12029397251E-01  0.18511356462E-01  0.11959713293E-01  0.25113195323E-01  0.51100000000E-03 0.  1.
         11    1    4    4    0    0  0.69952874690E-01  0.75476148160E-01  0.13308130698E-01  0.10376618468E+00  0.51100000000E-03 0. -1.
</event>
<event>
 8    1  0.1106168E+005  0.1043930E+01  0.7957747E-01            NaN
         13   -1    0    0    0    0  0.00000000000E+00  0.00000000000E+00  0.74505805969E-08  0.10566000000E+00  0.10566000000E+00 0.  1.
     999900   -1    0    0    0    0 -0.00000000000E+00 -0.00000000000E+00 -0.74505805969E-08  0.93827000000E+00  0.93827000000E+00 0.  1.
     999902    2    1    2    0    0  0.20986087389E-01  0.12454918480E-01 -0.30998885453E-02  0.10193301999E+01  0.10190333195E+01 0.  0.
     999903    2    3    3    0    0 -0.72105660014E-01 -0.97926800130E-01  0.30340282372E-01  0.12693542047E+00  0.20079438393E-01 0.  0.
         14    1    1    2    0    0 -0.20986087389E-01 -0.12454918480E-01  0.30998885453E-02  0.24599800146E-01  0.00000000000E+00 0.  1.
     999901    1    3    3    0    0  0.93091747403E-01  0.11038171861E+00 -0.33440170917E-01  0.89239477938E+00  0.88000000000E+00 0.  1.
        -11    1    4    4    0    0 -0.31830254462E-01 -0.59489589646E-01  0.13969111372E-01  0.68902638330E-01  0.51100000000E-03 0.  1.
         11    1    4    4    0    0 -0.40275405552E-01 -0.38437210484E-01  0.16371171000E-01  0.58032782142E-01  0.51100000000E-03 0. -1.
</event>
<event>
 8    1  0.1106168E+005  0.1043930E+01  0.7957747E-01            NaN
         13   -1    0    0    0    0  0.00000000000E+00  0.00000000000E+00  0.74505805969E-08  0.10566000000E+00  0.10566000000E+00 0. -1.
     999900   -1    0    0    0    0 -0.00000000000E+00 -0.00000000000E+00 -0.74505805969E-08  0.93827000000E+00  0.93827000000E+00 0. -1.
     999902    2    1    2    0    0  0.46154306947E-02 -0.18949744339E-01 -0.13943722104E-01  0.10199545459E+01  0.10196727188E+01 0.  0.
     999903    2    3    3    0    0  0.11741629744E+00  0.26482738786E-01 -0.47849494602E-01  0.13094512672E+00  0.19212748911E-01 0.  0.
         14    1    1    2    0    0 -0.46154306947E-02  0.18949744339E-01  0.13943722104E-01  0.23975454055E-01  0.00000000000E+00 0. -1.
     999901    1    3    3    0    0 -0.11280086674E+00 -0.45432483125E-01  0.33905772498E-01  0.88900941922E+00  0.88000000000E+00 0. -1.
        -11    1    4    4    0    0  0.62829040047E-01  0.13866416103E-01 -0.15259974223E-01  0.66127858752E-01  0.51100000000E-03 0. -1.
         11    1    4    4    0    0  0.54587257390E-01  0.12616322683E-01 -0.32589520379E-01  0.64817267969E-01  0.51100000000E-03 0.  1.
</event>
<event>
 7    1  0.1106168E+005  0.1043930E+01  0.7957747E-01            NaN
         13   -1    0    0    0    0  0.00000000000E+00  0.00000000000E+00  0.74505805969E-08  0.10566000000E+00  0.10566000000E+00 0. -1.
     999900   -1    0    0    0    0 -0.00000000000E+00 -0.00000000000E+00 -0.74505805969E-08  0.93827000000E+00  0.93827000000E+00 0.  1.
     999903    2    1    2    0    0 -0.94036482040E-02  0.74409717519E-01 -0.84515310353E-01  0.11474440743E+00  0.19955116948E-01 0.  0.
         14    1    1    2    0    0  0.15796459994E-01 -0.41796630346E-01  0.26297483835E-02  0.44759379276E-01  0.00000000000E+00 0.  1.
     999901    1    1    2    0    0 -0.63928117897E-02 -0.32613087173E-01  0.81885561969E-01  0.88442621329E+00  0.88000000000E+00 0. -1.
        -11    1    3    3    0    0 -0.13740456163E-01  0.35354061828E-01 -0.35862998546E-01  0.52202735646E-01  0.51100000000E-03 0.  1.
         11    1    3    3    0    0  0.43368079587E-02  0.39055655691E-01 -0.48652311807E-01  0.62541671787E-01  0.51100000000E-03 0. -1.
</event>
<event>
 8    1  0.1106168E+005  0.1043930E+01  0.7957747E-01            NaN
         13   -1    0    0    0    0  0.00000000000E+00  0.00000000000E+00  0.74505805969E-08  0.10566000000E+00  0.10566000000E+00 0. -1.
     999900   -1    0    0    0    0 -0.00000000000E+00 -0.00000000000E+00 -0.74505805969E-08  0.93827000000E+00  0.93827000000E+00 0.  1.
     999902    2    1    2    0    0 -0.17738852880E-02  0.86444615189E-02 -0.15049251813E-01  0.10264842738E+01  0.10263360127E+01 0.  0.
     999903    2    3    3    0    0 -0.19364703664E-01  0.10919832508E+00 -0.80025210075E-01  0.13820369223E+00  0.19923863864E-01 0.  0.
         14    1    1    2    0    0  0.17738852880E-02 -0.86444615189E-02  0.15049251813E-01  0.17445726242E-01  0.00000000000E+00 0. -1.
     999901    1    3    3    0    0  0.17590818376E-01 -0.10055386356E+00  0.64975958262E-01  0.88828058153E+00  0.88000000000E+00 0. -1.
        -11    1    4    4    0    0 -0.10577005521E-01  0.75297734415E-01 -0.43513500899E-01  0.87608833660E-01  0.51100000000E-03 0.  1.
         11    1    4    4    0    0 -0.87876981427E-02  0.33900590660E-01 -0.36511709176E-01  0.50594858570E-01  0.51100000000E-03 0. -1.
</event>
<event>
 8    1  0.1106168E+005  0.1043930E+01  0.7957747E-01            NaN
         13   -1    0    0    0    0  0.00000000000E+00  0.00000000000E+00  0.74505805969E-08  0.10566000000E+00  0.10566000000E+00 0. -1.
     999900   -1    0    0    0    0 -0.00000000000E+00 -0.00000000000E+00 -0.74505805969E-08  0.93827000000E+00  0.93827000000E+00 0.  1.
     999902    2    1    2    0    0 -0.91784524639E-02  0.21064870659E-02 -0.21555903619E-01  0.10204068570E+01  0.10201356848E+01 0.  0.
     999903    2    3    3    0    0  0.11003769985E+00 -0.56854925735E-01 -0.35143954388E-01  0.13030934866E+00  0.20115935229E-01 0.  0.
         14    1    1    2    0    0  0.91784524639E-02 -0.21064870659E-02  0.21555903619E-01  0.23523143035E-01  0.00000000000E+00 0. -1.
     999901    1    3    3    0    0 -0.11921615231E+00  0.58961412801E-01  0.13588050769E-01  0.89009750831E+00  0.88000000000E+00 0.  1.
        -11    1    4    4    0    0  0.58910982862E-01 -0.41596470611E-01 -0.20780709061E-01  0.75052443392E-01  0.51100000000E-03 0.  1.
         11    1    4    4    0    0  0.51126716983E-01 -0.15258455124E-01 -0.14363245327E-01  0.55256905266E-01  0.51100000000E-03 0. -1.
</event>
<event>
 8    1  0.1106168E+005  0.1043930E+01  0.7957747E-01            NaN
         13   -1    0    0    0    0  0.00000000000E+00  0.00000000000E+00  0.74505805969E-08  0.10566000000E+00  0.10566000000E+00 0. -1.
     999900   -1    0    0    0    0 -0.00000000000E+00 -0.00000000000E+00 -0.74505805969E-08  0.93827000000E+00  0.93827000000E+00 0.  1.
     999902    2    1    2    0    0 -0.11112157577E-01  0.16322680356E-01  0.13624419997E-01  0.10199396945E+01  0.10196575139E+01 0.  0.
     999903    2    3    3    0    0 -0.12833181770E+00 -0.16484696940E-01 -0.10288639355E-01  0.13123917846E+00  0.19418166613E-01 0.  0.
         14    1    1    2    0    0  0.11112157577E-01 -0.16322680356E-01 -0.13624419997E-01  0.23990305548E-01  0.00000000000E+00 0.  1.
     999901    1    3    3    0    0  0.11721966012E+00  0.32807377297E-01  0.23913059352E-01  0.88870051600E+00  0.88000000000E+00 0.  1.
        -11    1    4    4    0    0 -0.70288010915E-01  0.71645990911E-03 -0.53222045902E-02  0.70494714524E-01  0.51100000000E-03 0.  1.
         11    1    4    4    0    0 -0.58043806785E-01 -0.17201156849E-01 -0.49664347652E-02  0.60744463932E-01  0.51100000000E-03 0. -1.
</event>
<event>
 8    1  0.1106168E+005  0.1043930E+01  0.7957747E-01            NaN
         13   -1    0    0    0    0  0.00000000000E+00  0.00000000000E+00  0.74505805969E-08  0.10566000000E+00  0.10566000000E+00 0. -1.
     999900   -1    0    0    0    0 -0.00000000000E+00 -0.00000000000E+00 -0.74505805969E-08  0.93827000000E+00  0.93827000000E+00 0. -1.
     999902    2    1    2    0    0 -0.21115523777E-01 -0.81896066923E-02  0.82589126598E-02  0.10198230583E+01  0.10195380942E+01 0.  0.
     999903    2    3    3    0    0 -0.70880235985E-01  0.70690229003E-01  0.83325854941E-01  0.13171630741E+00  0.19618134651E-01 0.  0.
         14    1    1    2    0    0  0.21115523777E-01  0.81896066923E-02 -0.82589126598E-02  0.24106941748E-01  0.00000000000E+00 0.  1.
     999901    1    3    3    0    0  0.49764712208E-01 -0.78879835696E-01 -0.75066942281E-01  0.88810675084E+00  0.88000000000E+00 0. -1.
        -11    1    4    4    0    0 -0.43279043494E-01  0.54051346720E-01  0.50440951960E-01  0.85668981806E-01  0.51100000000E-03 0. -1.
         11    1    4    4    0    0 -0.27601192491E-01  0.16638882283E-01  0.32884902982E-01  0.46047325608E-01  0.51100000000E-03 0.  1.
</event>
<event>
 8    1  0.1106168E+005  0.1043930E+01  0.7957747E-01            NaN
         13   -1    0    0    0    0  0.00000000000E+00  0.00000000000E+00  0.74505805969E-08  0.10566000000E+00  0.10566000000E+00 0.  1.
     999900   -1    0    0    0    0 -0.00000000000E+00 -0.00000000000E+00 -0.74505805969E-08  0.93827000000E+00  0.93827000000E+00 0.  1.
     999902    2    1    2    0    0  0.15348209441E-01  0.14841985261E-01  0.98273477852E-02  0.10204261955E+01  0.10201554743E+01 0.  0.
     999903    2    3    3    0    0  0.89182275805E-01  0.83162591232E-01  0.51425752072E-01  0.13371902753E+00  0.19148771508E-01 0.  0.
         14    1    1    2    0    0 -0.15348209441E-01 -0.14841985261E-01 -0.98273477852E-02  0.23503804459E-01  0.00000000000E+00 0. -1.
     999901    1    3    3    0    0 -0.73834066364E-01 -0.68320605970E-01 -0.41598404287E-01  0.88670716801E+00  0.88000000000E+00 0. -1.
        -11    1    4    4    0    0  0.41435142068E-01  0.34061373591E-01  0.13031182251E-01  0.55200733699E-01  0.51100000000E-03 0. -1.
         11    1    4    4    0    0  0.47747133737E-01  0.49101217641E-01  0.38394569821E-01  0.78518293834E-01  0.51100000000E-03 0.  1.
</event>
<event>
 8    1  0.1199294E+005  0.1043930E+01  0.7957747E-01            NaN
         13   -1    0    0    0    0  0.00000000000E+00  0.00000000000E+00  0.74505805969E-08  0.10566000000E+00  0.10566000000E+00 0.  1.
     999900   -1    0    0    0    0 -0.00000000000E+00 -0.00000000000E+00 -0.74505805969E-08  0.93827000000E+00  0.93827000000E+00 0. -1.
     999902    2    1    2    0    0 -0.12707570194E-01  0.21386354235E-01  0.11904330732E-01  0.10163515378E+01  0.10159773013E+01 0.  0.
     999903    2    3    3    0    0  0.10792082989E+00  0.80676610805E-02  0.62609734690E-01  0.12657648954E+00  0.19739203298E-01 0.  0.
         14    1    1    2    0    0  0.12707570194E-01 -0.21386354235E-01 -0.11904330732E-01  0.27578462211E-01  0.00000000000E+00 0. -1.
     999901    1    3    3    0    0 -0.12062840009E+00  0.13318693155E-01 -0.50705403958E-01  0.88977504825E+00  0.88000000000E+00 0. -1.
        -11    1    4    4    0    0  0.60175846528E-01  0.20363867389E-02  0.45604032001E-01  0.75533226014E-01  0.51100000000E-03 0.  1.
         11    1    4    4    0    0  0.47744983363E-01  0.60312743416E-02  0.17005702689E-01  0.51043263527E-01  0.51100000000E-03 0. -1.
</event>
<event>
 8    1  0.1106168E+005  0.1043930E+01  0.7957747E-01            NaN
         13   -1    0    0    0    0  0.00000000000E+00  0.00000000000E+00  0.74505805969E-08  0.10566000000E+00  0.10566000000E+00 0. -1.
     999900   -1    0    0    0    0 -0.00000000000E+00 -0.00000000000E+00 -0.74505805969E-08  0.93827000000E+00  0.93827000000E+00 0. -1.
     999902    2    1    2    0    0  0.47060678731E-02 -0.15960042697E-01 -0.15723580271E-01  0.10210367474E+01  0.10207800637E+01 0.  0.
     999903    2    3    3    0    0 -0.11894744579E+00 -0.11562477681E-01 -0.51739065665E-01  0.13165120378E+00  0.19311208992E-01 0.  0.
         14    1    1    2    0    0 -0.47060678731E-02  0.15960042697E-01  0.15723580271E-01  0.22893252592E-01  0.00000000000E+00 0. -1.
     999901    1    3    3    0    0  0.12365351366E+00 -0.43975650159E-02  0.36015485393E-01  0.88938554362E+00  0.88000000000E+00 0.  1.
        -11    1    4    4    0    0 -0.23231597125E-01 -0.43028659943E-02 -0.24913902283E-02  0.23763204898E-01  0.51100000000E-03 0.  1.
         11    1    4    4    0    0 -0.95715848662E-01 -0.72596116863E-02 -0.49247675436E-01  0.10788799889E+00  0.51100000000E-03 0. -1.
</event>
<event>
 8    1  0.1201752E+005  0.1043930E+01  0.7957747E-01            NaN
         13   -1    0    0    0    0  0.00000000000E+00  0.00000000000E+00  0.74505805969E-08  0.10566000000E+00  0.10566000000E+00 0.  1.
     999900   -1    0    0    0    0 -0.00000000000E+00 -0.00000000000E+00 -0.74505805969E-08  0.93827000000E+00  0.93827000000E+00 0. -1.
     999902    2    1    2    0    0  0.35992505525E-02 -0.23680925830E-01 -0.82870337137E-03  0.10199627807E+01  0.10196811494E+01 0.  0.
     999903    2    3    3    0    0  0.98669806773E-01  0.78138875233E-01 -0.18264176212E-01  0.12883446317E+00  0.20574843304E-01 0.  0.
         14    1    1    2    0    0 -0.35992505525E-02  0.23680925830E-01  0.82870337137E-03  0.23967219321E-01  0.00000000000E+00 0. -1.
     999901    1    3    3    0    0 -0.95070556220E-01 -0.10181980106E+00  0.17435472841E-01  0.89112831751E+00  0.88000000000E+00 0. -1.
        -11    1    4    4    0    0  0.38202391571E-01  0.18517173630E-01 -0.91096043757E-02  0.43422971500E-01  0.51100000000E-03 0. -1.
         11    1    4    4    0    0  0.60467415201E-01  0.59621701603E-01 -0.91545718361E-02  0.85411491672E-01  0.51100000000E-03 0.  1.
</event>
<event>
 8    1  0.1106168E+005  0.1043930E+01  0.7957747E-01            NaN
         13   -1    0    0    0    0  0.00000000000E+00  0.00000000000E+00  0.74505805969E-08  0.10566000000E+00  0.10566000000E+00 0.  1.
     999900   -1    0    0    0    0 -0.00000000000E+00 -0.00000000000E+00 -0.74505805969E-08  0.93827000000E+00  0.93827000000E+00 0. -1.
     999902    2    1    2    0    0  0.13776296550E-01  0.18049036790E-01 -0.61386568328E-02  0.10204090055E+01  0.10201378835E+01 0.  0.
     999903    2    3    3    0    0  0.50821225266E-01 -0.47769635429E-01  0.10762213400E+00  0.12987773602E+00  0.20517494482E-01 0.  0.
         14    1    1    2    0    0 -0.13776296550E-01 -0.18049036790E-01  0.61386568328E-02  0.23520994523E-01  0.00000000000E+00 0.  1.
     999901    1    3    3    0    0 -0.37044928717E-01  0.65818672219E-01 -0.11376079083E+00  0.89053126946E+00  0.88000000000E+00 0. -1.
        -11    1    4    4    0    0  0.48050220198E-01 -0.49820054073E-01  0.10241612114E+00  0.12361304316E+00  0.51100000000E-03 0. -1.
         11    1    4    4    0    0  0.27710050679E-02  0.20504186440E-02  0.52060128598E-02  0.62646928575E-02  0.51100000000E-03 0.  1.
</event>
<event>
 8    1  0.1106168E+005  0.1043930E+01  0.7957747E-01            NaN
         13   -1    0    0    0    0  0.00000000000E+00  0.00000000000E+00  0.74505805969E-08  0.10566000000E+00  0.10566000000E+00 0. -1.
     999900   -1    0    0    0    0 -0.00000000000E+00 -0.00000000000E+00 -0.74505805969E-08  0.93827000000E+00  0.93827000000E+00 0. -1.
     999902    2    1    2    0    0  0.51773150560E-02  0.20497498121E-01 -0.10163844296E-01  0.10204724692E+01  0.10202028252E+01 0.  0.
     999903    2    3    3    0    0  0.10737829239E+00  0.16418118240E-01  0.70231359299E-01  0.13090792974E+00  0.20119392538E-01 0.  0.
         14    1    1    2    0    0 -0.51773150560E-02 -0.20497498121E-01  0.10163844296E-01  0.23457530801E-01  0.00000000000E+00 0. -1.
     999901    1    3    3    0    0 -0.10220097733E+00  0.40793798810E-02 -0.80395203596E-01  0.88956453946E+00  0.88000000000E+00 0. -1.
        -11    1    4    4    0    0  0.48286763084E-01 -0.13284033576E-03  0.23102987984E-01  0.53531657087E-01  0.51100000000E-03 0. -1.
         11    1    4    4    0    0  0.59091529304E-01  0.16550958576E-01  0.47128371315E-01  0.77376272649E-01  0.51100000000E-03 0.  1.
</event>
<event>
 8    1  0.1106168E+005  0.1043930E+01  0.7957747E-01            NaN
         13   -1    0    0    0    0  0.00000000000E+00  0.00000000000E+00  0.74505805969E-08  0.10566000000E+00  0.10566000000E+00 0. -1.
     999900   -1    0    0    0    0 -0.00000000000E+00 -0.00000000000E+00 -0.74505805969E-08  0.93827000000E+00  0.93827000000E+00 0. -1.
     999902    2    1    2    0    0  0.59068732234E-02 -0.21293932938E-01 -0.64445656857E-02  0.10209114171E+01  0.10206518831E+01 0.  0.
     999903    2    3    3    0    0 -0.11097104116E+00  0.53791542065E-02  0.64403113822E-01  0.12996175852E+00  0.19969735411E-01 0.  0.
         14    1    1    2    0    0 -0.59068732234E-02  0.21293932938E-01  0.64445656857E-02  0.23018582887E-01  0.00000000000E+00 0.  1.
     999901    1    3    3    0    0  0.11687791438E+00 -0.26673087144E-01 -0.70847679508E-01  0.89094965859E+00  0.88000000000E+00 0.  1.
        -11    1    4    4    0    0 -0.73800234800E-01  0.11170735210E-01  0.36298021561E-01  0.83000406457E-01  0.51100000000E-03 0. -1.
         11    1    4    4    0    0 -0.37170806360E-01 -0.57915810032E-02  0.28105092261E-01  0.46961352067E-01  0.51100000000E-03 0.  1.
</event>
<event>
 8    1  0.1106168E+005  0.1043930E+01  0.7957747E-01            NaN
         13   -1    0    0    0    0  0.00000000000E+00  0.00000000000E+00  0.74505805969E-08  0.10566000000E+00  0.10566000000E+00 0.  1.
     999900   -1    0    0    0    0 -0.00000000000E+00 -0.00000000000E+00 -0.74505805969E-08  0.93827000000E+00  0.93827000000E+00 0.  1.
     999902    2    1    2    0    0 -0.13896146970E-01 -0.12740480237E-01  0.13797685430E-01  0.10205676615E+01  0.10203002268E+01 0.  0.
     999903    2    3    3    0    0 -0.58810328872E-01  0.11434607877E+00 -0.19974125793E-02  0.13016451553E+00  0.20127864609E-01 0.  0.
         14    1    1    2    0    0  0.13896146970E-01  0.12740480237E-01 -0.13797685430E-01  0.23362338507E-01  0.00000000000E+00 0. -1.
     999901    1    3    3    0    0  0.44914181902E-01 -0.12708655901E+00  0.15795098009E-01  0.89040314596E+00  0.88000000000E+00 0. -1.
        -11    1    4    4    0    0 -0.13930331968E-01  0.41360497980E-01  0.62293802311E-02  0.44088674747E-01  0.51100000000E-03 0. -1.
         11    1    4    4    0    0 -0.44879996904E-01  0.72985580794E-01 -0.82267928104E-02  0.86075840785E-01  0.51100000000E-03 0.  1.
</event>
<event>
 8    1  0.1106168E+005  0.1043930E+01  0.7957747E-01            NaN
         13   -1    0    0    0    0  0.00000000000E+00  0.00000000000E+00  0.74505805969E-08  0.10566000000E+00  0.10566000000E+00 0. -1.
     999900   -1    0    0    0    0 -0.00000000000E+00 -0.00000000000E+00 -0.74505805969E-08  0.93827000000E+00  0.93827000000E+00 0.  1.
     999902    2    1    2    0    0 -0.17102868521E-01  0.30486575818E-02  0.16493676353E-01  0.10199749633E+01  0.10196936216E+01 0.  0.
     999903    2    3    3    0    0  0.18009950288E-02 -0.10632786727E+00  0.74337027485E-01  0.13111815056E+00  0.18897534513E-01 0.  0.
         14    1    1    2    0    0  0.17102868521E-01 -0.30486575818E-02 -0.16493676353E-01  0.23955036721E-01  0.00000000000E+00 0.  1.
     999901    1    3    3    0    0 -0.18903863549E-01  0.10937652485E+00 -0.57843351132E-01  0.88885681272E+00  0.88000000000E+00 0.  1.
        -11    1    4    4    0    0 -0.61475882671E-02 -0.39439048296E-01  0.20433014582E-01  0.44844181093E-01  0.51100000000E-03 0. -1.
         11    1    4    4    0    0  0.79485832959E-02 -0.66888818970E-01  0.53904012903E-01  0.86273969468E-01  0.51100000000E-03 0.  1.
</event>
<event>
 8    1  0.1106168E+005  0.1043930E+01  0.7957747E-01            NaN
         13   -1    0    0    0    0  0.00000000000E+00  0.00000000000E+00  0.74505805969E-08  0.10566000000E+00  0.10566000000E+00 0. -1.
     999900   -1    0    0    0    0 -0.00000000000E+00 -0.00000000000E+00 -0.74505805969E-08  0.93827000000E+00  0.93827000000E+00 0.  1.
     999902    2    1    2    0    0  0.15681093651E-01 -0.13946725206E-01 -0.10588571054E-01  0.10204241352E+01  0.10201533660E+01 0.  0.
     999903    2    3    3    0    0  0.12412972429E+00  0.16128600645E-01  0.36991237640E-01  0.13198197677E+00  0.19559404906E-01 0.  0.
         14    1    1    2    0    0 -0.15681093651E-01  0.13946725206E-01  0.10588571054E-01  0.23505864780E-01  0.00000000000E+00 0. -1.
     999901    1    3    3    0    0 -0.10844863064E+00 -0.30075325852E-01 -0.47579808695E-01  0.88844215845E+00  0.88000000000E+00 0.  1.
        -11    1    4    4    0    0  0.81146560039E-01  0.17653145918E-02  0.27296280514E-01  0.85634272302E-01  0.51100000000E-03 0.  1.
         11    1    4    4    0    0  0.42983164248E-01  0.14363286054E-01  0.96949571269E-02  0.46347704471E-01  0.51100000000E-03 0. -1.
</event>
<event>
 8    1  0.1106168E+005  0.1043930E+01  0.7957747E-01            NaN
         13   -1    0    0    0    0  0.00000000000E+00  0.00000000000E+00  0.74505805969E-08  0.10566000000E+00  0.10566000000E+00 0.  1.
     999900   -1    0    0    0    0 -0.00000000000E+00 -0.00000000000E+00 -0.74505805969E-08  0.93827000000E+00  0.93827000000E+00 0.  1.
     999902    2    1    2    0    0 -0.88462786725E-02 -0.11147646133E-01 -0.18622780061E-01  0.10204921119E+01  0.10202229246E+01 0.  0.
     999903    2    3    3    0    0 -0.90866528441E-01  0.89394698935E-01  0.17796082107E-01  0.13023236440E+00  0.19890450229E-01 0.  0.
         14    1    1    2    0    0  0.88462786725E-02  0.11147646133E-01  0.18622780061E-01  0.23437888085E-01  0.00000000000E+00 0.  1.
     999901    1    3    3    0    0  0.82020249769E-01 -0.10054234507E+00 -0.36418862169E-01  0.89025974752E+00  0.88000000000E+00 0. -1.
        -11    1    4    4    0    0 -0.45699672616E-01  0.55916180130E-01  0.16061302874E-01  0.73981794035E-01  0.51100000000E-03 0.  1.
         11    1    4    4    0    0 -0.45166855825E-01  0.33478518805E-01  0.17347792328E-02  0.56250570366E-01  0.51100000000E-03 0. -1.
</event>
<event>
 8    1  0.1106168E+005  0.1043930E+01  0.7957747E-01            NaN
         13   -1    0    0    0    0  0.00000000000E+00  0.00000000000E+00  0.74505805969E-08  0.10566000000E+00  0.10566000000E+00 0.  1.
     999900   -1    0    0    0    0 -0.00000000000E+00 -0.00000000000E+00 -0.74505805969E-08  0.93827000000E+00  0.93827000000E+00 0.  1.
     999902    2    1    2    0    0  0.18223804672E-03  0.18691923205E-01  0.13496042740E-01  0.10208743201E+01  0.10206139393E+01 0.  0.
     999903    2    3    3    0    0  0.98231090364E-01  0.50082611534E-01 -0.67964774943E-01  0.13113569697E+00  0.20487686420E-01 0.  0.
         14    1    1    2    0    0 -0.18223804672E-03 -0.18691923205E-01 -0.13496042740E-01  0.23055679852E-01  0.00000000000E+00 0.  1.
     999901    1    3    3    0    0 -0.98048852318E-01 -0.31390688329E-01  0.81460817683E-01  0.88973862318E+00  0.88000000000E+00 0.  1.
        -11    1    4    4    0    0  0.26008391046E-01  0.17199914740E-01 -0.96112122349E-02  0.32632958700E-01  0.51100000000E-03 0. -1.
         11    1    4    4    0    0  0.72222699318E-01  0.32882696794E-01 -0.58353562708E-01  0.98502738271E-01  0.51100000000E-03 0.  1.
</event>
<event>
 8    1  0.1106168E+005  0.1043930E+01  0.7957747E-01            NaN
         13   -1    0    0    0    0  0.00000000000E+00  0.00000000000E+00  0.74505805969E-08  0.10566000000E+00  0.10566000000E+00 0.  1.
     999900   -1    0    0    0    0 -0.00000000000E+00 -0.00000000000E+00 -0.74505805969E-08  0.93827000000E+00  0.93827000000E+00 0.  1.
     999902    2    1    2    0    0  0.17896975075E-01  0.93647620027E-02  0.13445639072E-01  0.10196650934E+01  0.10193763372E+01 0.  0.
     999903    2    3    3    0    0 -0.12611213111E+00  0.53627240963E-03  0.10079895604E-01  0.12790958139E+00  0.18833467990E-01 0.  0.
         14    1    1    2    0    0 -0.17896975075E-01 -0.93647620027E-02 -0.13445639072E-01  0.24264906640E-01  0.00000000000E+00 0. -1.
     999901    1    3    3    0    0  0.14400910618E+00  0.88284895931E-02  0.33657434680E-02  0.89175551197E+00  0.88000000000E+00 0. -1.
        -11    1    4    4    0    0 -0.76164175741E-01  0.59939156903E-02  0.13335166888E-01  0.77556408429E-01  0.51100000000E-03 0. -1.
         11    1    4    4    0    0 -0.49947955367E-01 -0.54576432806E-02 -0.32552712837E-02  0.50353172965E-01  0.51100000000E-03 0.  1.
</event>
<event>
 8    1  0.1106168E+005  0.1043930E+01  0.7957747E-01            NaN
         13   -1    0    0    0    0  0.00000000000E+00  0.00000000000E+00  0.74505805969E-08  0.10566000000E+00  0.10566000000E+00 0.  1.
     999900   -1    0    0    0    0 -0.00000000000E+00 -0.00000000000E+00 -0.74505805969E-08  0.93827000000E+00  0.93827000000E+00 0.  1.
     999902    2    1    2    0    0 -0.16644557329E-01  0.12828781899E-01  0.12574811042E-01  0.10194403122E+01  0.10191461158E+01 0.  0.
     999903    2    3    3    0    0 -0.10296598203E+00 -0.76588399690E-01 -0.11708101621E-01  0.13037536491E+00  0.19821193464E-01 0.  0.
         14    1    1    2    0    0  0.16644557329E-01 -0.12828781899E-01 -0.12574811042E-01  0.24489687757E-01  0.00000000000E+00 0. -1.
     999901    1    3    3    0    0  0.86321424699E-01  0.89417181589E-01  0.24282912663E-01  0.88906494733E+00  0.88000000000E+00 0. -1.
        -11    1    4    4    0    0 -0.86899140698E-01 -0.72199523168E-01 -0.12646368224E-01  0.11368563476E+00  0.51100000000E-03 0. -1.
         11    1    4    4    0    0 -0.16066841330E-01 -0.43888765220E-02  0.93826660358E-03  0.16689730155E-01  0.51100000000E-03 0.  1.
</event>
<event>
 8    1  0.1106168E+005  0.1043930E+01  0.7957747E-01            NaN
         13   -1    0    0    0    0  0.00000000000E+00  0.00000000000E+00  0.74505805969E-08  0.10566000000E+00  0.10566000000E+00 0.  1.
     999900   -1    0    0    0    0 -0.00000000000E+00 -0.00000000000E+00 -0.74505805969E-08  0.93827000000E+00  0.93827000000E+00 0. -1.
     999902    2    1    2    0    0  0.42417365707E-02  0.82203845099E-02 -0.22370417713E-01  0.10197225086E+01  0.10194351338E+01 0.  0.
     999903    2    3    3    0    0  0.98421414187E-01 -0.78759705158E-01  0.21541416312E-01  0.12934977945E+00  0.19428507381E-01 0.  0.
         14    1    1    2    0    0 -0.42417365707E-02 -0.82203845099E-02  0.22370417713E-01  0.24207491388E-01  0.00000000000E+00 0.  1.
     999901    1    3    3    0    0 -0.94179677616E-01  0.86980089668E-01 -0.43911834025E-01  0.89037272917E+00  0.88000000000E+00 0. -1.
        -11    1    4    4    0    0  0.77388397846E-01 -0.69154414462E-01  0.12578144095E-01  0.10454553071E+00  0.51100000000E-03 0.  1.
         11    1    4    4    0    0  0.21033016340E-01 -0.96052906963E-02  0.89632722168E-02  0.24804248740E-01  0.51100000000E-03 0. -1.
</event>
<event>
 8    1  0.1106168E+005  0.1043930E+01  0.7957747E-01            NaN
         13   -1    0    0    0    0  0.00000000000E+00  0.00000000000E+00  0.74505805969E-08  0.10566000000E+00  0.10566000000E+00 0.  1.
     999900   -1    0    0    0    0 -0.00000000000E+00 -0.00000000000E+00 -0.74505805969E-08  0.93827000000E+00  0.93827000000E+00 0. -1.
     999902    2    1    2    0    0 -0.11133244547E-01 -0.77807249844E-02 -0.19437476650E-01  0.10202170433E+01  0.10199414254E+01 0.  0.
     999903    2    3    3    0    0 -0.19023601255E-01  0.12278279757E+00  0.28518253416E-01  0.12925753629E+00  0.21370707163E-01 0.  0.
         14    1    1    2    0    0  0.11133244547E-01  0.77807249844E-02  0.19437476650E-01  0.23712956668E-01  0.00000000000E+00 0. -1.
     999901    1    3    3    0    0  0.78903567087E-02 -0.13056352256E+00 -0.47955730066E-01  0.89095950705E+00  0.88000000000E+00 0. -1.
        -11    1    4    4    0    0  0.14942138358E-03  0.33329797124E-01 -0.31446490462E-03  0.33335532277E-01  0.51100000000E-03 0. -1.
         11    1    4    4    0    0 -0.19173022639E-01  0.89453000447E-01  0.28832718321E-01  0.95922004008E-01  0.51100000000E-03 0.  1.
</event>
<event>
 8    1  0.1106168E+005  0.1043930E+01  0.7957747E-01            NaN
         13   -1    0    0    0    0  0.00000000000E+00  0.00000000000E+00  0.74505805969E-08  0.10566000000E+00  0.10566000000E+00 0.  1.
     999900   -1    0    0    0    0 -0.00000000000E+00 -0.00000000000E+00 -0.74505805969E-08  0.93827000000E+00  0.93827000000E+00 0.  1.
     999902    2    1    2    0    0  0.15265287076E-01  0.18509944060E-01 -0.28174600880E-02  0.10197724939E+01  0.10194863188E+01 0.  0.
     999903    2    3    3    0    0 -0.73063745484E-01 -0.91160993353E-01  0.45983291250E-01  0.12724168446E+00  0.20672338446E-01 0.  0.
         14    1    1    2    0    0 -0.15265287076E-01 -0.18509944060E-01  0.28174600880E-02  0.24157506079E-01  0.00000000000E+00 0.  1.
     999901    1    3    3    0    0  0.88329032560E-01  0.10967093741E+00 -0.48800751338E-01  0.89253080946E+00  0.88000000000E+00 0.  1.
        -11    1    4    4    0    0 -0.29552413868E-01 -0.28589675297E-01  0.25259001876E-01  0.48259641480E-01  0.51100000000E-03 0.  1.
         11    1    4    4    0    0 -0.43511331616E-01 -0.62571318056E-01  0.20724289374E-01  0.78982042980E-01  0.51100000000E-03 0. -1.
</event>
<event>
 8    1  0.1106168E+005  0.1043930E+01  0.7957747E-01            NaN
         13   -1    0    0    0    0  0.00000000000E+00  0.00000000000E+00  0.74505805969E-08  0.10566000000E+00  0.10566000000E+00 0. -1.
     999900   -1    0    0    0    0 -0.00000000000E+00 -0.00000000000E+00 -0.74505805969E-08  0.93827000000E+00  0.93827000000E+00 0. -1.
     999902    2    1    2    0    0  0.14518295837E-01  0.12231173160E-01 -0.13468291876E-01  0.10206538878E+01  0.10203884463E+01 0.  0.
     999903    2    3    3    0    0 -0.48307015569E-01 -0.79087388638E-01 -0.89622409864E-01  0.13043731354E+00  0.19832640250E-01 0.  0.
         14    1    1    2    0    0 -0.14518295837E-01 -0.12231173160E-01  0.13468291876E-01  0.23276112152E-01  0.00000000000E+00 0.  1.
     999901    1    3    3    0    0  0.62825311405E-01  0.91318561799E-01  0.76154117988E-01  0.89021657431E+00  0.88000000000E+00 0.  1.
        -11    1    4    4    0    0 -0.22852086278E-01 -0.36242866621E-01 -0.55145817235E-01  0.69836133253E-01  0.51100000000E-03 0. -1.
         11    1    4    4    0    0 -0.25454929291E-01 -0.42844522017E-01 -0.34476592629E-01  0.60601180289E-01  0.51100000000E-03 0.  1.
</event>
<event>
 8    1  0.1106168E+005  0.1043930E+01  0.7957747E-01            NaN
         13   -1    0    0    0    0  0.00000000000E+00  0.00000000000E+00  0.74505805969E-08  0.10566000000E+00  0.10566000000E+00 0. -1.
     999900   -1    0    0    0    0 -0.00000000000E+00 -0.00000000000E+00 -0.74505805969E-08  0.93827000000E+00  0.93827000000E+00 0. -1.
     999902    2    1    2    0    0 -0.20214434095E-01  0.11134197382E-01  0.82455214981E-02  0.10194232189E+01  0.10191286066E+01 0.  0.
     999903    2    3    3    0    0  0.16448273012E-01  0.12368982728E+00 -0.25463163178E-01  0.13085740850E+00  0.30092683860E-01 0.  0.
         14    1    1    2    0    0  0.20214434095E-01 -0.11134197382E-01 -0.82455214981E-02  0.24506781141E-01  0.00000000000E+00 0.  1.
     999901    1    3    3    0    0 -0.36662707106E-01 -0.11255562990E+00  0.33708684676E-01  0.88856581036E+00  0.88000000000E+00 0.  1.
        -11    1    4    4    0    0  0.17005439934E-01  0.44333069156E-01 -0.19301136833E-01  0.51258179954E-01  0.51100000000E-03 0. -1.
         11    1    4    4    0    0 -0.55716692269E-03  0.79356758128E-01 -0.61620263446E-02  0.79599228547E-01  0.51100000000E-03 0.  1.
</event>
<event>
 8    1  0.1106168E+005  0.1043930E+01  0.7957747E-01            NaN
         13   -1    0    0    0    0  0.00000000000E+00  0.00000000000E+00  0.74505805969E-08  0.10566000000E+00  0.10566000000E+00 0. -1.
     999900   -1    0    0    0    0 -0.00000000000E+00 -0.00000000000E+00 -0.74505805969E-08  0.93827000000E+00  0.93827000000E+00 0.  1.
     999902    2    1    2    0    0 -0.12022003353E-03  0.24387621784E-01 -0.23321024648E-03  0.10195409669E+01  0.10192492130E+01 0.  0.
     999903    2    3    3    0    0  0.59946237282E-01 -0.63357383385E-01  0.92085570209E-01  0.12834518455E+00  0.19622047889E-01 0.  0.
         14    1    1    2    0    0  0.12022003353E-03 -0.24387621784E-01  0.23321024648E-03  0.24389033113E-01  0.00000000000E+00 0. -1.
     999901    1    3    3    0    0 -0.60066457315E-01  0.87745005170E-01 -0.92318780456E-01  0.89119578233E+00  0.88000000000E+00 0.  1.
        -11    1    4    4    0    0  0.47405287037E-01 -0.45474625546E-01  0.56798060866E-01  0.86841716051E-01  0.51100000000E-03 0. -1.
         11    1    4    4    0    0  0.12540950245E-01 -0.17882757839E-01  0.35287509343E-01  0.41503468501E-01  0.51100000000E-03 0.  1.
</event>
<event>
 8    1  0.1106168E+005  0.1043930E+01  0.7957747E-01            NaN
         13   -1    0    0    0    0  0.00000000000E+00  0.00000000000E+00  0.74505805969E-08  0.10566000000E+00  0.10566000000E+00 0.  1.
     999900   -1    0    0    0    0 -0.00000000000E+00 -0.00000000000E+00 -0.74505805969E-08  0.93827000000E+00  0.93827000000E+00 0.  1.
     999902    2    1    2    0    0 -0.19732756996E-02  0.59073235809E-02  0.23445637353E-01  0.10196712243E+01  0.10193826158E+01 0.  0.
     999903    2    3    3    0    0  0.88396604671E-01 -0.74836622780E-01 -0.52210337977E-01  0.12814998125E+00  0.16793405766E-01 0.  0.
         14    1    1    2    0    0  0.19732756996E-02 -0.59073235809E-02 -0.23445637353E-01  0.24258775727E-01  0.00000000000E+00 0. -1.
     999901    1    3    3    0    0 -0.90369880371E-01  0.80743946361E-01  0.75655975330E-01  0.89152124302E+00  0.88000000000E+00 0. -1.
        -11    1    4    4    0    0  0.18810020482E-01 -0.22314626201E-01 -0.73469569371E-02  0.30099805818E-01  0.51100000000E-03 0.  1.
         11    1    4    4    0    0  0.69586584189E-01 -0.52521996579E-01 -0.44863381040E-01  0.98050175436E-01  0.51100000000E-03 0. -1.
</event>
<event>
 8    1  0.1106168E+005  0.1043930E+01  0.7957747E-01            NaN
         13   -1    0    0    0    0  0.00000000000E+00  0.00000000000E+00  0.74505805969E-08  0.10566000000E+00  0.10566000000E+00 0. -1.
     999900   -1    0    0    0    0 -0.00000000000E+00 -0.00000000000E+00 -0.74505805969E-08  0.93827000000E+00  0.93827000000E+00 0. -1.
     999902    2    1    2    0    0  0.82135705863E-04  0.74555473687E-02 -0.23411915225E-01  0.10193594952E+01  0.10190633301E+01 0.  0.
     999903    2    3    3    0    0  0.58304096319E-01  0.10101116839E-01 -0.11687341841E+00  0.13249318715E+00  0.19840577136E-01 0.  0.
         14    1    1    2    0    0 -0.82135705863E-04 -0.74555473687E-02  0.23411915225E-01  0.24570504825E-01  0.00000000000E+00 0. -1.
     999901    1    3    3    0    0 -0.58221960613E-01 -0.26455694700E-02  0.93461503185E-01  0.88686630803E+00  0.88000000000E+00 0.  1.
        -11    1    4    4    0    0  0.31967957072E-01  0.87293358462E-02 -0.44665687570E-01  0.55618669085E-01  0.51100000000E-03 0.  1.
         11    1    4    4    0    0  0.26336139247E-01  0.13717809924E-02 -0.72207730839E-01  0.76874518064E-01  0.51100000000E-03 0. -1.
</event>
<event>
 8    1  0.1106168E+005  0.1043930E+01  0.7957747E-01            NaN
         13   -1    0    0    0    0  0.00000000000E+00  0.00000000000E+00  0.74505805969E-08  0.10566000000E+00  0.10566000000E+00 0. -1.
     999900   -1    0    0    0    0 -0.00000000000E+00 -0.00000000000E+00 -0.74505805969E-08  0.93827000000E+00  0.93827000000E+00 0.  1.
     999902    2    1    2    0    0  0.14642658054E-01 -0.11238459491E-01 -0.15040217278E-01  0.10201199487E+01  0.10198420423E+01 0.  0.
     999903    2    3    3    0    0  0.85492355349E-01  0.35872847947E-01 -0.92715845173E-01  0.13261070478E+00  0.19838523959E-01 0.  0.
         14    1    1    2    0    0 -0.14642658054E-01  0.11238459491E-01  0.15040217278E-01  0.23810051289E-01  0.00000000000E+00 0.  1.
     999901    1    3    3    0    0 -0.70849697295E-01 -0.47111307438E-01  0.77675627894E-01  0.88750924393E+00  0.88000000000E+00 0. -1.
        -11    1    4    4    0    0  0.54828600267E-01  0.29493518937E-01 -0.51233527570E-01  0.80629886114E-01  0.51100000000E-03 0.  1.
         11    1    4    4    0    0  0.30663755083E-01  0.63793290102E-02 -0.41482317603E-01  0.51980818665E-01  0.51100000000E-03 0. -1.
</event>
<event>
 8    1  0.1106168E+005  0.1043930E+01  0.7957747E-01            NaN
         13   -1    0    0    0    0  0.00000000000E+00  0.00000000000E+00  0.74505805969E-08  0.10566000000E+00  0.10566000000E+00 0.  1.
     999900   -1    0    0    0    0 -0.00000000000E+00 -0.00000000000E+00 -0.74505805969E-08  0.93827000000E+00  0.93827000000E+00 0.  1.
     999902    2    1    2    0    0 -0.16656136383E-01  0.15321206068E-01 -0.92471380225E-02  0.10194825912E+01  0.10191894220E+01 0.  0.
     999903    2    3    3    0    0  0.41583992822E-01 -0.70705084240E-01  0.95136337859E-01  0.12724476120E+00  0.20294557780E-01 0.  0.
         14    1    1    2    0    0  0.16656136383E-01 -0.15321206068E-01  0.92471380225E-02  0.24447408783E-01  0.00000000000E+00 0.  1.
     999901    1    3    3    0    0 -0.58240129205E-01  0.86026290308E-01 -0.10438347588E+00  0.89223783002E+00  0.88000000000E+00 0.  1.
        -11    1    4    4    0    0  0.32950232319E-01 -0.63096398582E-01  0.89683371013E-01  0.11449996280E+00  0.51100000000E-03 0.  1.
         11    1    4    4    0    0  0.86337605032E-02 -0.76086856580E-02  0.54529668460E-02  0.12744798401E-01  0.51100000000E-03 0. -1.
</event>
<event>
 8    1  0.1274372E+005  0.1043930E+01  0.7957747E-01            NaN
         13   -1    0    0    0    0  0.00000000000E+00  0.00000000000E+00  0.74505805969E-08  0.10566000000E+00  0.10566000000E+00 0. -1.
     999900   -1    0    0    0    0 -0.00000000000E+00 -0.00000000000E+00 -0.74505805969E-08  0.93827000000E+00  0.93827000000E+00 0. -1.
     999902    2    1    2    0    0  0.44507670703E-02  0.73794408053E-02 -0.24132795452E-01  0.10183046748E+01  0.10179821970E+01 0.  0.
     999903    2    3    3    0    0  0.87765852369E-01  0.35123222777E-01 -0.89651022638E-01  0.13151058431E+00  0.17923233662E-01 0.  0.
         14    1    1    2    0    0 -0.44507670703E-02 -0.73794408053E-02  0.24132795452E-01  0.25625325177E-01  0.00000000000E+00 0. -1.
     999901    1    3    3    0    0 -0.83315085299E-01 -0.27743781972E-01  0.65518227186E-01  0.88679409051E+00  0.88000000000E+00 0. -1.
        -11    1    4    4    0    0  0.40755485190E-01  0.78061148612E-02 -0.44356894899E-01  0.60743232120E-01  0.51100000000E-03 0. -1.
         11    1    4    4    0    0  0.47010367179E-01  0.27317107916E-01 -0.45294127739E-01  0.70767352189E-01  0.51100000000E-03 0.  1.
</event>
<event>
 8    1  0.1106168E+005  0.1043930E+01  0.7957747E-01            NaN
         13   -1    0    0    0    0  0.00000000000E+00  0.00000000000E+00  0.74505805969E-08  0.10566000000E+00  0.10566000000E+00 0. -1.
     999900   -1    0    0    0    0 -0.00000000000E+00 -0.00000000000E+00 -0.74505805969E-08  0.93827000000E+00  0.93827000000E+00 0.  1.
     999902    2    1    2    0    0 -0.20250219236E-02  0.93954117921E-04  0.23864823592E-01  0.10199792308E+01  0.10196979905E+01 0.  0.
     999903    2    3    3    0    0 -0.10099521792E+00  0.61367693743E-01 -0.48689193948E-01  0.12935380091E+00  0.19893223129E-01 0.  0.
         14    1    1    2    0    0  0.20250219236E-02 -0.93954117921E-04 -0.23864823592E-01  0.23950769221E-01  0.00000000000E+00 0.  1.
     999901    1    3    3    0    0  0.98970195992E-01 -0.61273739625E-01  0.72554017540E-01  0.89062542987E+00  0.88000000000E+00 0. -1.
        -11    1    4    4    0    0 -0.39005754384E-01  0.29796701634E-01 -0.29166827318E-01  0.57098662332E-01  0.51100000000E-03 0. -1.
         11    1    4    4    0    0 -0.61989463531E-01  0.31570992109E-01 -0.19522366630E-01  0.72255138582E-01  0.51100000000E-03 0.  1.
</event>
<event>
 8    1  0.1106168E+005  0.1043930E+01  0.7957747E-01            NaN
         13   -1    0    0    0    0  0.00000000000E+00  0.00000000000E+00  0.74505805969E-08  0.10566000000E+00  0.10566000000E+00 0.  1.
     999900   -1    0    0    0    0 -0.00000000000E+00 -0.00000000000E+00 -0.74505805969E-08  0.93827000000E+00  0.93827000000E+00 0.  1.
     999902    2    1    2    0    0  0.12118175792E-01 -0.16948883389E-01  0.11026306504E-01  0.10203568316E+01  0.10200844914E+01 0.  0.
     999903    2    3    3    0    0 -0.44942332057E-01 -0.99111859745E-01  0.72848485030E-01  0.13253441807E+00  0.20383725077E-01 0.  0.
         14    1    1    2    0    0 -0.12118175792E-01  0.16948883389E-01 -0.11026306504E-01  0.23573168387E-01  0.00000000000E+00 0. -1.
     999901    1    3    3    0    0  0.57060507849E-01  0.82162976355E-01 -0.61822178527E-01  0.88782241355E+00  0.88000000000E+00 0.  1.
        -11    1    4    4    0    0 -0.26333252551E-01 -0.34481420281E-01  0.30879734167E-01  0.53256245059E-01  0.51100000000E-03 0.  1.
         11    1    4    4    0    0 -0.18609079506E-01 -0.64630439463E-01  0.41968750864E-01  0.79278173007E-01  0.51100000000E-03 0. -1.
</event>
<event>
 8    1  0.1106168E+005  0.1043930E+01  0.7957747E-01            NaN
         13   -1    0    0    0    0  0.00000000000E+00  0.00000000000E+00  0.74505805969E-08  0.10566000000E+00  0.10566000000E+00 0. -1.
     999900   -1    0    0    0    0 -0.00000000000E+00 -0.00000000000E+00 -0.74505805969E-08  0.93827000000E+00  0.93827000000E+00 0.  1.
     999902    2    1    2    0    0 -0.18873897861E-01  0.13939960714E-01  0.23902334353E-03  0.10204650547E+01  0.10201952383E+01 0.  0.
     999903    2    3    3    0    0 -0.25820583579E-02  0.10626539532E+00  0.76030379693E-01  0.13224563384E+00  0.20230861768E-01 0.  0.
         14    1    1    2    0    0  0.18873897861E-01 -0.13939960714E-01 -0.23902334353E-03  0.23464945288E-01  0.00000000000E+00 0.  1.
     999901    1    3    3    0    0 -0.16291839503E-01 -0.92325434601E-01 -0.75791356350E-01  0.88821942087E+00  0.88000000000E+00 0.  1.
        -11    1    4    4    0    0 -0.79126018002E-02  0.31422941964E-01  0.15939681664E-01  0.36115718482E-01  0.51100000000E-03 0. -1.
         11    1    4    4    0    0  0.53305434423E-02  0.74842453351E-01  0.60090698029E-01  0.96129915363E-01  0.51100000000E-03 0.  1.
</event>
<event>
 8    1  0.1106168E+005  0.1043930E+01  0.7957747E-01            NaN
         13   -1    0    0    0    0  0.00000000000E+00  0.00000000000E+00  0.74505805969E-08  0.10566000000E+00  0.10566000000E+00 0. -1.
     999900   -1    0    0    0    0 -0.00000000000E+00 -0.00000000000E+00 -0.74505805969E-08  0.93827000000E+00  0.93827000000E+00 0. -1.
     999902    2    1    2    0    0 -0.17155789169E-01  0.17953389201E-01  0.40091062901E-02  0.10187761093E+01  0.10184655333E+01 0.  0.
     999903    2    3    3    0    0 -0.12692331932E+00 -0.17916521165E-01 -0.18338413756E-01  0.13095012812E+00  0.19521985501E-01 0.  0.
         14    1    1    2    0    0  0.17155789169E-01 -0.17953389201E-01 -0.40091062901E-02  0.25153890734E-01  0.00000000000E+00 0.  1.
     999901    1    3    3    0    0  0.10976753015E+00  0.35869910365E-01  0.22347520046E-01  0.88782598115E+00  0.88000000000E+00 0. -1.
        -11    1    4    4    0    0 -0.10886206863E+00 -0.20102877675E-01 -0.10726773259E-01  0.11122230201E+00  0.51100000000E-03 0.  1.
         11    1    4    4    0    0 -0.18061250687E-01  0.21863565103E-02 -0.76116404973E-02  0.19727826115E-01  0.51100000000E-03 0. -1.
</event>
<event>
 8    1  0.1106168E+005  0.1043930E+01  0.7957747E-01            NaN
         13   -1    0    0    0    0  0.00000000000E+00  0.00000000000E+00  0.74505805969E-08  0.10566000000E+00  0.10566000000E+00 0.  1.
     999900   -1    0    0    0    0 -0.00000000000E+00 -0.00000000000E+00 -0.74505805969E-08  0.93827000000E+00  0.93827000000E+00 0. -1.
     999902    2    1    2    0    0  0.22795245137E-01 -0.63861934780E-02 -0.24858355122E-03  0.10202557849E+01  0.10199810773E+01 0.  0.
     999903    2    3    3    0    0 -0.27876163399E-01  0.31793502717E-01 -0.12100217714E+00  0.12974654225E+00  0.20117928630E-01 0.  0.
         14    1    1    2    0    0 -0.22795245137E-01  0.63861934780E-02  0.24858355122E-03  0.23674215124E-01  0.00000000000E+00 0.  1.
     999901    1    3    3    0    0  0.50671408536E-01 -0.38179696195E-01  0.12075359358E+00  0.89050924263E+00  0.88000000000E+00 0.  1.
        -11    1    4    4    0    0 -0.50146591037E-02  0.14737490130E-01 -0.23792182699E-01  0.28437114830E-01  0.51100000000E-03 0.  1.
         11    1    4    4    0    0 -0.22861504295E-01  0.17056012587E-01 -0.97209994437E-01  0.10130942742E+00  0.51100000000E-03 0. -1.
</event>
<event>
 8    1  0.1106168E+005  0.1043930E+01  0.7957747E-01            NaN
         13   -1    0    0    0    0  0.00000000000E+00  0.00000000000E+00  0.74505805969E-08  0.10566000000E+00  0.10566000000E+00 0.  1.
     999900   -1    0    0    0    0 -0.00000000000E+00 -0.00000000000E+00 -0.74505805969E-08  0.93827000000E+00  0.93827000000E+00 0. -1.
     999902    2    1    2    0    0  0.10982724296E-01  0.12227803438E-01 -0.17956680041E-01  0.10195869976E+01  0.10192963572E+01 0.  0.
     999903    2    3    3    0    0  0.90869709298E-01 -0.10555368515E-01  0.89064596343E-01  0.12921934490E+00  0.19910221060E-01 0.  0.
         14    1    1    2    0    0 -0.10982724296E-01 -0.12227803438E-01  0.17956680041E-01  0.24343002443E-01  0.00000000000E+00 0.  1.
     999901    1    3    3    0    0 -0.79886985002E-01  0.22783171952E-01 -0.10702127638E+00  0.89036765266E+00  0.88000000000E+00 0. -1.
        -11    1    4    4    0    0  0.66366873112E-01  0.12131762578E-02  0.61151032750E-01  0.90253773166E-01  0.51100000000E-03 0.  1.
         11    1    4    4    0    0  0.24502836186E-01 -0.11768544772E-01  0.27913563592E-01  0.38965571735E-01  0.51100000000E-03 0. -1.
</event>
<event>
 8    1  0.1106168E+005  0.1043930E+01  0.7957747E-01            NaN
         13   -1    0    0    0    0  0.00000000000E+00  0.00000000000E+00  0.74505805969E-08  0.10566000000E+00  0.10566000000E+00 0. -1.
     999900   -1    0    0    0    0 -0.00000000000E+00 -0.00000000000E+00 -0.74505805969E-08  0.93827000000E+00  0.93827000000E+00 0. -1.
     999902    2    1    2    0    0  0.10290022211E-01  0.20978145428E-01 -0.45619430681E-02  0.10201228904E+01  0.10198450535E+01 0.  0.
     999903    2    3    3    0    0  0.18132883857E-01 -0.95734213471E-01  0.81068599784E-01  0.12826198473E+00  0.19625945852E-01 0.  0.
         14    1    1    2    0    0 -0.10290022211E-01 -0.20978145428E-01  0.45619430681E-02  0.23807109595E-01  0.00000000000E+00 0. -1.
     999901    1    3    3    0    0 -0.78428616464E-02  0.11671235890E+00 -0.85630542852E-01  0.89186090567E+00  0.88000000000E+00 0. -1.
        -11    1    4    4    0    0  0.19000933782E-01 -0.67244674760E-01  0.48958660118E-01  0.85323462715E-01  0.51100000000E-03 0.  1.
         11    1    4    4    0    0 -0.86804992493E-03 -0.28489538711E-01  0.32109939666E-01  0.42938522017E-01  0.51100000000E-03 0. -1.
</event>
<event>
 8    1  0.1106168E+005  0.1043930E+01  0.7957747E-01            NaN
         13   -1    0    0    0    0  0.00000000000E+00  0.00000000000E+00  0.74505805969E-08  0.10566000000E+00  0.10566000000E+00 0.  1.
     999900   -1    0    0    0    0 -0.00000000000E+00 -0.00000000000E+00 -0.74505805969E-08  0.93827000000E+00  0.93827000000E+00 0.  1.
     999902    2    1    2    0    0 -0.11335077444E-01  0.43386077351E-02 -0.57661946077E-02  0.10304928687E+01  0.10304052581E+01 0.  0.
     999903    2    3    3    0    0  0.46626412086E-01 -0.11479540947E+00  0.58198740756E-01  0.13827991132E+00  0.19550757291E-01 0.  0.
         14    1    1    2    0    0  0.11335077444E-01 -0.43386077351E-02  0.57661946077E-02  0.13437131316E-01  0.00000000000E+00 0.  1.
     999901    1    3    3    0    0 -0.57961489530E-01  0.11913401721E+00 -0.63964935363E-01  0.89221295736E+00  0.88000000000E+00 0.  1.
        -11    1    4    4    0    0  0.20504394637E-01 -0.28430492253E-01  0.19340270348E-01  0.40037860424E-01  0.51100000000E-03 0.  1.
         11    1    4    4    0    0  0.26122017449E-01 -0.86364917218E-01  0.38858470407E-01  0.98242050900E-01  0.51100000000E-03 0. -1.
</event>
<event>
 8    1  0.1106168E+005  0.1043930E+01  0.7957747E-01            NaN
         13   -1    0    0    0    0  0.00000000000E+00  0.00000000000E+00  0.74505805969E-08  0.10566000000E+00  0.10566000000E+00 0. -1.
     999900   -1    0    0    0    0 -0.00000000000E+00 -0.00000000000E+00 -0.74505805969E-08  0.93827000000E+00  0.93827000000E+00 0.  1.
     999902    2    1    2    0    0  0.12501716237E-02  0.74002260034E-02 -0.21854635159E-01  0.10208226126E+01  0.10205610492E+01 0.  0.
     999903    2    3    3    0    0 -0.11254320236E+00  0.39728823962E-01 -0.53621346573E-01  0.13233896382E+00  0.19849450555E-01 0.  0.
         14    1    1    2    0    0 -0.12501716237E-02 -0.74002260034E-02  0.21854635159E-01  0.23107387388E-01  0.00000000000E+00 0. -1.
     999901    1    3    3    0    0  0.11379337398E+00 -0.32328597958E-01  0.31766711415E-01  0.88848364879E+00  0.88000000000E+00 0.  1.
        -11    1    4    4    0    0 -0.89007364784E-01  0.32234893909E-01 -0.33308013769E-01  0.10035479198E+00  0.51100000000E-03 0. -1.
         11    1    4    4    0    0 -0.23535837575E-01  0.74939300531E-02 -0.20313332804E-01  0.31984171845E-01  0.51100000000E-03 0.  1.
</event>
<event>
 8    1  0.1106168E+005  0.1043930E+01  0.7957747E-01            NaN
         13   -1    0    0    0    0  0.00000000000E+00  0.00000000000E+00  0.74505805969E-08  0.10566000000E+00  0.10566000000E+00 0.  1.
     999900   -1    0    0    0    0 -0.00000000000E+00 -0.00000000000E+00 -0.74505805969E-08  0.93827000000E+00  0.93827000000E+00 0. -1.
     999902    2    1    2    0    0 -0.12468157730E-02  0.13215012684E-01  0.19087740096E-01  0.10206806359E+01  0.10204158111E+01 0.  0.
     999903    2    3    3    0    0  0.52439271803E-01 -0.11822805360E-01  0.11987361980E+00  0.13294932412E+00  0.20400541860E-01 0.  0.
         14    1    1    2    0    0  0.12468157730E-02 -0.13215012684E-01 -0.19087740096E-01  0.23249364115E-01  0.00000000000E+00 0. -1.
     999901    1    3    3    0    0 -0.53686087576E-01  0.25037818044E-01 -0.10078587970E+00  0.88773131176E+00  0.88000000000E+00 0. -1.
        -11    1    4    4    0    0  0.21786389873E-01  0.20288097698E-02  0.64984508185E-01  0.68571205894E-01  0.51100000000E-03 0. -1.
         11    1    4    4    0    0  0.30652881930E-01 -0.13851615130E-01  0.54889111612E-01  0.64378118231E-01  0.51100000000E-03 0.  1.
</event>
<event>
 8    1  0.1106168E+005  0.1043930E+01  0.7957747E-01            NaN
         13   -1    0    0    0    0  0.00000000000E+00  0.00000000000E+00  0.74505805969E-08  0.10566000000E+00  0.10566000000E+00 0. -1.
     999900   -1    0    0    0    0 -0.00000000000E+00 -0.00000000000E+00 -0.74505805969E-08  0.93827000000E+00  0.93827000000E+00 0.  1.
     999902    2    1    2    0    0 -0.48715668880E-02 -0.22192239333E-01 -0.92660057630E-02  0.10193925488E+01  0.10190971897E+01 0.  0.
     999903    2    3    3    0    0 -0.51067012273E-01 -0.11835367158E+00 -0.25163503201E-01  0.13280709284E+00  0.19725382032E-01 0.  0.
         14    1    1    2    0    0  0.48715668880E-02  0.22192239333E-01  0.92660057630E-02  0.24537451240E-01  0.00000000000E+00 0. -1.
     999901    1    3    3    0    0  0.46195445384E-01  0.96161432246E-01  0.15897497438E-01  0.88658545592E+00  0.88000000000E+00 0. -1.
        -11    1    4    4    0    0 -0.40973949051E-01 -0.81760515362E-01 -0.10278368459E-01  0.92030170881E-01  0.51100000000E-03 0. -1.
         11    1    4    4    0    0 -0.10093063221E-01 -0.36593156217E-01 -0.14885134742E-01  0.40776921958E-01  0.51100000000E-03 0.  1.
</event>
<event>
 8    1  0.1106168E+005  0.1043930E+01  0.7957747E-01            NaN
         13   -1    0    0    0    0  0.00000000000E+00  0.00000000000E+00  0.74505805969E-08  0.10566000000E+00  0.10566000000E+00 0.  1.
     999900   -1    0    0    0    0 -0.00000000000E+00 -0.00000000000E+00 -0.74505805969E-08  0.93827000000E+00  0.93827000000E+00 0.  1.
     999902    2    1    2    0    0  0.88431013894E-02  0.10577786437E-01  0.18117071186E-01  0.10211633956E+01  0.10209095759E+01 0.  0.
     999903    2    3    3    0    0  0.30809417182E-01 -0.31147019148E-01 -0.11986162100E+00  0.12916474204E+00  0.19934026390E-01 0.  0.
         14    1    1    2    0    0 -0.88431013894E-02 -0.10577786437E-01 -0.18117071186E-01  0.22766604412E-01  0.00000000000E+00 0. -1.
     999901    1    3    3    0    0 -0.21966315793E-01  0.41724805585E-01  0.13797869219E+00  0.89199865355E+00  0.88000000000E+00 0. -1.
        -11    1    4    4    0    0  0.79870326274E-02 -0.21336181734E-01 -0.48140765341E-01  0.53261803854E-01  0.51100000000E-03 0.  1.
         11    1    4    4    0    0  0.22822384555E-01 -0.98108374148E-02 -0.71720855662E-01  0.75902938188E-01  0.51100000000E-03 0. -1.
</event>
<event>
 8    1  0.1106168E+005  0.1043930E+01  0.7957747E-01            NaN
         13   -1    0    0    0    0  0.00000000000E+00  0.00000000000E+00  0.74505805969E-08  0.10566000000E+00  0.10566000000E+00 0. -1.
     999900   -1    0    0    0    0 -0.00000000000E+00 -0.00000000000E+00 -0.74505805969E-08  0.93827000000E+00  0.93827000000E+00 0. -1.
     999902    2    1    2    0    0  0.13605397726E-01  0.19341182070E-01 -0.88491741902E-03  0.10202662883E+01  0.10199918273E+01 0.  0.
     999903    2    3    3    0    0  0.96355134812E-01  0.31059972972E-01 -0.83047308946E-01  0.13249632509E+00  0.20233307047E-01 0.  0.
         14    1    1    2    0    0 -0.13605397726E-01 -0.19341182070E-01  0.88491741902E-03  0.23663711669E-01  0.00000000000E+00 0. -1.
     999901    1    3    3    0    0 -0.82749737086E-01 -0.11718790902E-01  0.82162391527E-01  0.88776996324E+00  0.88000000000E+00 0. -1.
        -11    1    4    4    0    0  0.11553917472E-01  0.10978198149E-02 -0.27752588235E-02  0.11944094768E-01  0.51100000000E-03 0. -1.
         11    1    4    4    0    0  0.84801217340E-01  0.29962153157E-01 -0.80272050123E-01  0.12055223032E+00  0.51100000000E-03 0.  1.
</event>
<event>
 8    1  0.1106168E+005  0.1043930E+01  0.7957747E-01            NaN
         13   -1    0    0    0    0  0.00000000000E+00  0.00000000000E+00  0.74505805969E-08  0.10566000000E+00  0.10566000000E+00 0.  1.
     999900   -1    0    0    0    0 -0.00000000000E+00 -0.00000000000E+00 -0.74505805969E-08  0.93827000000E+00  0.93827000000E+00 0. -1.
     999902    2    1    2    0    0 -0.23641336401E-01  0.35594282343E-02 -0.14895140649E-02  0.10199758570E+01  0.10196945365E+01 0.  0.
     999903    2    3    3    0    0 -0.12558585371E+00 -0.34926005973E-01  0.17927555542E-01  0.13304246835E+00  0.19679141046E-01 0.  0.
         14    1    1    2    0    0  0.23641336401E-01 -0.35594282343E-02  0.14895140649E-02  0.23954143030E-01  0.00000000000E+00 0. -1.
     999901    1    3    3    0    0  0.10194451731E+00  0.38485434207E-01 -0.19417069607E-01  0.88693338862E+00  0.88000000000E+00 0.  1.
        -11    1    4    4    0    0 -0.38608662611E-01 -0.12801241845E-01 -0.33170461623E-02  0.40813778772E-01  0.51100000000E-03 0.  1.
         11    1    4    4    0    0 -0.86977191097E-01 -0.22124764128E-01  0.21244601705E-01  0.92228689579E-01  0.51100000000E-03 0. -1.
</event>
<event>
 8    1  0.1106168E+005  0.1043930E+01  0.7957747E-01            NaN
         13   -1    0    0    0    0  0.00000000000E+00  0.00000000000E+00  0.74505805969E-08  0.10566000000E+00  0.10566000000E+00 0.  1.
     999900   -1    0    0    0    0 -0.00000000000E+00 -0.00000000000E+00 -0.74505805969E-08  0.93827000000E+00  0.93827000000E+00 0. -1.
     999902    2    1    2    0    0 -0.64639892989E-02 -0.16621655954E-01  0.15591970240E-01  0.10202409278E+01  0.10199658713E+01 0.  0.
     999903    2    3    3    0    0 -0.14015169265E-01 -0.12595851359E+00  0.35806080508E-01  0.13321207880E+00  0.20035229502E-01 0.  0.
         14    1    1    2    0    0  0.64639892989E-02  0.16621655954E-01 -0.15591970240E-01  0.23689072170E-01  0.00000000000E+00 0. -1.
     999901    1    3    3    0    0  0.75511799656E-02  0.10933685764E+00 -0.20214110268E-01  0.88702884903E+00  0.88000000000E+00 0. -1.
        -11    1    4    4    0    0 -0.60923515835E-02 -0.68708535904E-01  0.92222766643E-02  0.69593758066E-01  0.51100000000E-03 0.  1.
         11    1    4    4    0    0 -0.79228176810E-02 -0.57249977688E-01  0.26583803843E-01  0.63618320734E-01  0.51100000000E-03 0. -1.
</event>
<event>
 8    1  0.1106168E+005  0.1043930E+01  0.7957747E-01            NaN
         13   -1    0    0    0    0  0.00000000000E+00  0.00000000000E+00  0.74505805969E-08  0.10566000000E+00  0.10566000000E+00 0.  1.
     999900   -1    0    0    0    0 -0.00000000000E+00 -0.00000000000E+00 -0.74505805969E-08  0.93827000000E+00  0.93827000000E+00 0. -1.
     999902    2    1    2    0    0  0.67446716338E-02  0.19015360184E-01  0.14211735050E-01  0.10192511035E+01  0.10189522874E+01 0.  0.
     999903    2    3    3    0    0  0.72263046722E-01 -0.41906614422E-01  0.98511079977E-01  0.13070705620E+00  0.20044685315E-01 0.  0.
         14    1    1    2    0    0 -0.67446716338E-02 -0.19015360184E-01 -0.14211735050E-01  0.24678896481E-01  0.00000000000E+00 0. -1.
     999901    1    3    3    0    0 -0.65518375089E-01  0.60921974607E-01 -0.84299344926E-01  0.88854404732E+00  0.88000000000E+00 0. -1.
        -11    1    4    4    0    0  0.10181032590E-01 -0.13518087222E-01  0.26781722457E-01  0.31684600132E-01  0.51100000000E-03 0. -1.
         11    1    4    4    0    0  0.62082014133E-01 -0.28388527200E-01  0.71729357519E-01  0.99022456072E-01  0.51100000000E-03 0.  1.
</event>
<event>
 8    1  0.1106168E+005  0.1043930E+01  0.7957747E-01            NaN
         13   -1    0    0    0    0  0.00000000000E+00  0.00000000000E+00  0.74505805969E-08  0.10566000000E+00  0.10566000000E+00 0. -1.
     999900   -1    0    0    0    0 -0.00000000000E+00 -0.00000000000E+00 -0.74505805969E-08  0.93827000000E+00  0.93827000000E+00 0. -1.
     999902    2    1    2    0    0 -0.45718015563E-02  0.52750686065E-02 -0.21490247961E-01  0.10213344589E+01  0.10210844816E+01 0.  0.
     999903    2    3    3    0    0  0.84176358853E-01  0.99301465162E-01 -0.56005124981E-02  0.13174484405E+00  0.19465297871E-01 0.  0.
         14    1    1    2    0    0  0.45718015563E-02 -0.52750686065E-02  0.21490247961E-01  0.22595541058E-01  0.00000000000E+00 0. -1.
     999901    1    3    3    0    0 -0.88748160409E-01 -0.94026396556E-01 -0.15889735463E-01  0.88958961489E+00  0.88000000000E+00 0.  1.
        -11    1    4    4    0    0  0.52867334124E-01  0.48247757954E-01 -0.62688466981E-02  0.71849570109E-01  0.51100000000E-03 0.  1.
         11    1    4    4    0    0  0.31309024729E-01  0.51053707208E-01  0.66833420003E-03  0.59895273943E-01  0.51100000000E-03 0. -1.
</event>
<event>
 8    1  0.1106168E+005  0.1043930E+01  0.7957747E-01            NaN
         13   -1    0    0    0    0  0.00000000000E+00  0.00000000000E+00  0.74505805969E-08  0.10566000000E+00  0.10566000000E+00 0.  1.
     999900   -1    0    0    0    0 -0.00000000000E+00 -0.00000000000E+00 -0.74505805969E-08  0.93827000000E+00  0.93827000000E+00 0.  1.
     999902    2    1    2    0    0 -0.10238293652E-01 -0.96015523474E-02 -0.21242890170E-01  0.10184687972E+01  0.10181504889E+01 0.  0.
     999903    2    3    3    0    0 -0.94869691720E-01 -0.70324904102E-01  0.49506943483E-01  0.12950572827E+00  0.19363513576E-01 0.  0.
         14    1    1    2    0    0  0.10238293652E-01  0.96015523474E-02  0.21242890170E-01  0.25461202783E-01  0.00000000000E+00 0. -1.
     999901    1    3    3    0    0  0.84631398068E-01  0.60723351755E-01 -0.70749833653E-01  0.88896306895E+00  0.88000000000E+00 0.  1.
        -11    1    4    4    0    0 -0.75363189666E-01 -0.63922221829E-01  0.44428137431E-01  0.10835027142E+00  0.51100000000E-03 0. -1.
         11    1    4    4    0    0 -0.19506502054E-01 -0.64026822736E-02  0.50788060520E-02  0.21155456852E-01  0.51100000000E-03 0.  1.
</event>
<event>
 8    1  0.1106168E+005  0.1043930E+01  0.7957747E-01            NaN
         13   -1    0    0    0    0  0.00000000000E+00  0.00000000000E+00  0.74505805969E-08  0.10566000000E+00  0.10566000000E+00 0. -1.
     999900   -1    0    0    0    0 -0.00000000000E+00 -0.00000000000E+00 -0.74505805969E-08  0.93827000000E+00  0.93827000000E+00 0. -1.
     999902    2    1    2    0    0  0.22106906879E-01 -0.13705921689E-01  0.72259800902E-02  0.10169340298E+01  0.10165756433E+01 0.  0.
     999903    2    3    3    0    0  0.58877242089E-01  0.98892873534E-01  0.51970892554E-01  0.12787123477E+00  0.20093504853E-01 0.  0.
         14    1    1    2    0    0 -0.22106906879E-01  0.13705921689E-01 -0.72259800902E-02  0.26995970243E-01  0.00000000000E+00 0.  1.
     999901    1    3    3    0    0 -0.36770335210E-01 -0.11259879522E+00 -0.44744912463E-01  0.88906279499E+00  0.88000000000E+00 0.  1.
        -11    1    4    4    0    0  0.14150352234E-01  0.40621330313E-01  0.14424412058E-01  0.45372345421E-01  0.51100000000E-03 0. -1.
         11    1    4    4    0    0  0.44726889855E-01  0.58271543220E-01  0.37546480496E-01  0.82498889350E-01  0.51100000000E-03 0.  1.
</event>
<event>
 8    1  0.1106168E+005  0.1043930E+01  0.7957747E-01            NaN
         13   -1    0    0    0    0  0.00000000000E+00  0.00000000000E+00  0.74505805969E-08  0.10566000000E+00  0.10566000000E+00 0.  1.
     999900   -1    0    0    0    0 -0.00000000000E+00 -0.00000000000E+00 -0.74505805969E-08  0.93827000000E+00  0.93827000000E+00 0.  1.
     999902    2    1    2    0    0  0.20725555480E-01  0.15322055567E-01 -0.14058648970E-02  0.10181173966E+01  0.10177901271E+01 0.  0.
     999903    2    3    3    0    0  0.80853903739E-01 -0.97466728267E-01  0.84725253468E-02  0.12882874236E+00  0.22089461342E-01 0.  0.
         14    1    1    2    0    0 -0.20725555480E-01 -0.15322055567E-01  0.14058648970E-02  0.25812603372E-01  0.00000000000E+00 0. -1.
     999901    1    3    3    0    0 -0.60128348259E-01  0.11278878383E+00 -0.98783902438E-02  0.88928865427E+00  0.88000000000E+00 0. -1.
        -11    1    4    4    0    0  0.53606827079E-01 -0.50242434839E-01 -0.10485889795E-02  0.73480302313E-01  0.51100000000E-03 0. -1.
         11    1    4    4    0    0  0.27247076660E-01 -0.47224293427E-01  0.95211143262E-02  0.55348440043E-01  0.51100000000E-03 0.  1.
</event>
<event>
 8    1  0.1106168E+005  0.1043930E+01  0.7957747E-01            NaN
         13   -1    0    0    0    0  0.00000000000E+00  0.00000000000E+00  0.74505805969E-08  0.10566000000E+00  0.10566000000E+00 0. -1.
     999900   -1    0    0    0    0 -0.00000000000E+00 -0.00000000000E+00 -0.74505805969E-08  0.93827000000E+00  0.93827000000E+00 0. -1.
     999902    2    1    2    0    0  0.22991324406E-01  0.10040489593E-02  0.45783122854E-03  0.10209122086E+01  0.10206526926E+01 0.  0.
     999903    2    3    3    0    0 -0.68249045578E-01  0.10856060989E+00 -0.13999135958E-02  0.12967897865E+00  0.19270171386E-01 0.  0.
         14    1    1    2    0    0 -0.22991324406E-01 -0.10040489593E-02 -0.45783122854E-03  0.23017791416E-01  0.00000000000E+00 0.  1.
     999901    1    3    3    0    0  0.91240369983E-01 -0.10755656093E+00  0.18577448243E-02  0.89123322993E+00  0.88000000000E+00 0.  1.
        -11    1    4    4    0    0 -0.10359867191E-01  0.67117576423E-02  0.17894800222E-02  0.12483505061E-01  0.51100000000E-03 0.  1.
         11    1    4    4    0    0 -0.57889178386E-01  0.10184885225E+00 -0.31893936180E-02  0.11719547359E+00  0.51100000000E-03 0. -1.
</event>
<event>
 8    1  0.1106168E+005  0.1043930E+01  0.7957747E-01            NaN
         13   -1    0    0    0    0  0.00000000000E+00  0.00000000000E+00  0.74505805969E-08  0.10566000000E+00  0.10566000000E+00 0.  1.
     999900   -1    0    0    0    0 -0.00000000000E+00 -0.00000000000E+00 -0.74505805969E-08  0.93827000000E+00  0.93827000000E+00 0.  1.
     999902    2    1    2    0    0  0.16132088316E-01  0.14835710005E-01 -0.99014135119E-02  0.10198804563E+01  0.10195968637E+01 0.  0.
     999903    2    3    3    0    0  0.90406740927E-01 -0.70878577303E-01 -0.60425840392E-01  0.13116431441E+00  0.18858516944E-01 0.  0.
         14    1    1    2    0    0 -0.16132088316E-01 -0.14835710005E-01  0.99014135119E-02  0.24049543745E-01  0.00000000000E+00 0.  1.
     999901    1    3    3    0    0 -0.74274652611E-01  0.85714287309E-01  0.50524426880E-01  0.88871614185E+00  0.88000000000E+00 0. -1.
        -11    1    4    4    0    0  0.36736593513E-01 -0.31600751853E-01 -0.35768177432E-01  0.60231291356E-01  0.51100000000E-03 0. -1.
         11    1    4    4    0    0  0.53670147414E-01 -0.39277825450E-01 -0.24657662959E-01  0.70933023051E-01  0.51100000000E-03 0.  1.
</event>
<event>
 8    1  0.1106168E+005  0.1043930E+01  0.7957747E-01            NaN
         13   -1    0    0    0    0  0.00000000000E+00  0.00000000000E+00  0.74505805969E-08  0.10566000000E+00  0.10566000000E+00 0. -1.
     999900   -1    0    0    0    0 -0.00000000000E+00 -0.00000000000E+00 -0.74505805969E-08  0.93827000000E+00  0.93827000000E+00 0.  1.
     999902    2    1    2    0    0  0.20828471367E-01  0.10189170659E-01 -0.63848749605E-02  0.10198798223E+01  0.10195962146E+01 0.  0.
     999903    2    3    3    0    0 -0.10065220291E+00  0.36528606967E-01 -0.69037084785E-01  0.12893839915E+00  0.19844057565E-01 0.  0.
         14    1    1    2    0    0 -0.20828471367E-01 -0.10189170659E-01  0.63848749605E-02  0.24050177681E-01  0.00000000000E+00 0.  1.
     999901    1    3    3    0    0  0.12148067428E+00 -0.26339436308E-01  0.62652209825E-01  0.89094142317E+00  0.88000000000E+00 0. -1.
        -11    1    4    4    0    0 -0.34609194741E-01  0.18241442168E-01 -0.15950577022E-01  0.42251965650E-01  0.51100000000E-03 0.  1.
         11    1    4    4    0    0 -0.66043008173E-01  0.18287164799E-01 -0.53086507763E-01  0.86686433497E-01  0.51100000000E-03 0. -1.
</event>
<event>
 8    1  0.1106168E+005  0.1043930E+01  0.7957747E-01            NaN
         13   -1    0    0    0    0  0.00000000000E+00  0.00000000000E+00  0.74505805969E-08  0.10566000000E+00  0.10566000000E+00 0.  1.
     999900   -1    0    0    0    0 -0.00000000000E+00 -0.00000000000E+00 -0.74505805969E-08  0.93827000000E+00  0.93827000000E+00 0.  1.
     999902    2    1    2    0    0 -0.17339407013E-01 -0.12414020962E-01 -0.11414982024E-01  0.10197418879E+01  0.10194549785E+01 0.  0.
     999903    2    3    3    0    0 -0.42506646889E-01  0.55122617118E-01  0.10656497288E+00  0.12894794024E+00  0.20643640614E-01 0.  0.
         14    1    1    2    0    0  0.17339407013E-01  0.12414020962E-01  0.11414982024E-01  0.24188112093E-01  0.00000000000E+00 0. -1.
     999901    1    3    3    0    0  0.25167239875E-01 -0.67536638080E-01 -0.11797995491E+00  0.89079394767E+00  0.88000000000E+00 0. -1.
        -11    1    4    4    0    0 -0.24000818967E-02  0.12938739439E-01  0.11531517710E-01  0.17504524931E-01  0.51100000000E-03 0.  1.
         11    1    4    4    0    0 -0.40106564992E-01  0.42183877678E-01  0.95033455175E-01  0.11144341531E+00  0.51100000000E-03 0. -1.
</event>
<event>
 8    1  0.1106168E+005  0.1043930E+01  0.7957747E-01            NaN
         13   -1    0    0    0    0  0.00000000000E+00  0.00000000000E+00  0.74505805969E-08  0.10566000000E+00  0.10566000000E+00 0.  1.
     999900   -1    0    0    0    0 -0.00000000000E+00 -0.00000000000E+00 -0.74505805969E-08  0.93827000000E+00  0.93827000000E+00 0. -1.
     999902    2    1    2    0    0  0.58599880063E-02  0.88000066218E-02  0.21176929959E-01  0.10202605695E+01  0.10199859743E+01 0.  0.
     999903    2    3    3    0    0 -0.31891403384E-01 -0.94033755701E-01 -0.78110844143E-01  0.12792766512E+00  0.20119013603E-01 0.  0.
         14    1    1    2    0    0 -0.58599880063E-02 -0.88000066218E-02 -0.21176929959E-01  0.23669430463E-01  0.00000000000E+00 0. -1.
     999901    1    3    3    0    0  0.37751391391E-01  0.10283376232E+00  0.99287774102E-01  0.89233290442E+00  0.88000000000E+00 0.  1.
        -11    1    4    4    0    0 -0.99692838191E-02 -0.48013924517E-01 -0.48509256437E-01  0.68979218961E-01  0.51100000000E-03 0. -1.
         11    1    4    4    0    0 -0.21922119565E-01 -0.46019831184E-01 -0.29601587706E-01  0.58948446156E-01  0.51100000000E-03 0.  1.
</event>
<event>
 8    1  0.1106168E+005  0.1043930E+01  0.7957747E-01            NaN
         13   -1    0    0    0    0  0.00000000000E+00  0.00000000000E+00  0.74505805969E-08  0.10566000000E+00  0.10566000000E+00 0.  1.
     999900   -1    0    0    0    0 -0.00000000000E+00 -0.00000000000E+00 -0.74505805969E-08  0.93827000000E+00  0.93827000000E+00 0.  1.
     999902    2    1    2    0    0 -0.13589234891E-02 -0.66010639781E-02  0.22133060445E-01  0.10207935983E+01  0.10205313701E+01 0.  0.
     999903    2    3    3    0    0  0.22203789456E-01  0.12436029466E+00 -0.21815233498E-01  0.12970576232E+00  0.19727879082E-01 0.  0.
         14    1    1    2    0    0  0.13589234891E-02  0.66010639781E-02 -0.22133060445E-01  0.23136401694E-01  0.00000000000E+00 0.  1.
     999901    1    3    3    0    0 -0.23562712945E-01 -0.13096135864E+00  0.43948293943E-01  0.89108783598E+00  0.88000000000E+00 0. -1.
        -11    1    4    4    0    0  0.27717934761E-02  0.35426489749E-01  0.20453675577E-02  0.35597242372E-01  0.51100000000E-03 0.  1.
         11    1    4    4    0    0  0.19431995980E-01  0.88933804910E-01 -0.23860601055E-01  0.94108519951E-01  0.51100000000E-03 0. -1.
</event>
<event>
 8    1  0.1106168E+005  0.1043930E+01  0.7957747E-01            NaN
         13   -1    0    0    0    0  0.00000000000E+00  0.00000000000E+00  0.74505805969E-08  0.10566000000E+00  0.10566000000E+00 0. -1.
     999900   -1    0    0    0    0 -0.00000000000E+00 -0.00000000000E+00 -0.74505805969E-08  0.93827000000E+00  0.93827000000E+00 0.  1.
     999902    2    1    2    0    0  0.10403166540E-01 -0.15263926771E-01 -0.16983852754E-01  0.10188368816E+01  0.10185278233E+01 0.  0.
     999903    2    3    3    0    0 -0.54086485646E-01  0.92509360437E-01 -0.67952386326E-01  0.12845955259E+00  0.20024988054E-01 0.  0.
         14    1    1    2    0    0 -0.10403166540E-01  0.15263926771E-01  0.16983852754E-01  0.25093118357E-01  0.00000000000E+00 0. -1.
     999901    1    3    3    0    0  0.64489652186E-01 -0.10777328721E+00  0.50968533572E-01  0.89037732905E+00  0.88000000000E+00 0.  1.
        -11    1    4    4    0    0 -0.47368930755E-01  0.72122796917E-01 -0.61760172821E-01  0.10611358774E+00  0.51100000000E-03 0.  1.
         11    1    4    4    0    0 -0.67175548908E-02  0.20386563520E-01 -0.61922135048E-02  0.22345964847E-01  0.51100000000E-03 0. -1.
</event>
<event>
 8    1  0.1106168E+005  0.1043930E+01  0.7957747E-01            NaN
         13   -1    0    0    0    0  0.00000000000E+00  0.00000000000E+00  0.74505805969E-08  0.10566000000E+00  0.10566000000E+00 0.  1.
     999900   -1    0    0    0    0 -0.00000000000E+00 -0.00000000000E+00 -0.74505805969E-08  0.93827000000E+00  0.93827000000E+00 0. -1.
     999902    2    1    2    0    0 -0.22045006018E-01  0.19036841353E-02 -0.71927415168E-02  0.10206632462E+01  0.10203980205E+01 0.  0.
     999903    2    3    3    0    0 -0.58488567604E-01  0.84133426284E-01 -0.82393851294E-01  0.13288789700E+00  0.19263968396E-01 0.  0.
         14    1    1    2    0    0  0.22045006018E-01 -0.19036841353E-02  0.71927415168E-02  0.23266753837E-01  0.00000000000E+00 0.  1.
     999901    1    3    3    0    0  0.36443561587E-01 -0.82229742149E-01  0.75201109777E-01  0.88777534917E+00  0.88000000000E+00 0. -1.
        -11    1    4    4    0    0 -0.42525939333E-01  0.47075839068E-01 -0.56405898305E-01  0.84890969042E-01  0.51100000000E-03 0.  1.
         11    1    4    4    0    0 -0.15962628271E-01  0.37057587216E-01 -0.25987952989E-01  0.47996927955E-01  0.51100000000E-03 0. -1.
</event>
<event>
 8    1  0.1106168E+005  0.1043930E+01  0.7957747E-01            NaN
         13   -1    0    0    0    0  0.00000000000E+00  0.00000000000E+00  0.74505805969E-08  0.10566000000E+00  0.10566000000E+00 0.  1.
     999900   -1    0    0    0    0 -0.00000000000E+00 -0.00000000000E+00 -0.74505805969E-08  0.93827000000E+00  0.93827000000E+00 0.  1.
     999902    2    1    2    0    0 -0.15820082854E-01 -0.17774816046E-01 -0.17292669644E-01  0.10145147738E+01  0.10140882461E+01 0.  0.
     999903    2    3    3    0    0  0.10094744762E+00 -0.70977112235E-01 -0.92359959187E-02  0.12517229172E+00  0.18832454775E-01 0.  0.
         14    1    1    2    0    0  0.15820082854E-01  0.17774816046E-01  0.17292669644E-01  0.29415226166E-01  0.00000000000E+00 0.  1.
     999901    1    3    3    0    0 -0.11676753047E+00  0.53202296189E-01 -0.80566737255E-02  0.88934248211E+00  0.88000000000E+00 0.  1.
        -11    1    4    4    0    0  0.44419448056E-01 -0.20038867230E-01 -0.40655085677E-02  0.48902280584E-01  0.51100000000E-03 0.  1.
         11    1    4    4    0    0  0.56527999564E-01 -0.50938245005E-01 -0.51704873510E-02  0.76270011140E-01  0.51100000000E-03 0. -1.
</event>
<event>
 8    1  0.1106168E+005  0.1043930E+01  0.7957747E-01            NaN
         13   -1    0    0    0    0  0.00000000000E+00  0.00000000000E+00  0.74505805969E-08  0.10566000000E+00  0.10566000000E+00 0.  1.
     999900   -1    0    0    0    0 -0.00000000000E+00 -0.00000000000E+00 -0.74505805969E-08  0.93827000000E+00  0.93827000000E+00 0.  1.
     999902    2    1    2    0    0 -0.11204481911E-02  0.25575345248E-01 -0.47249201923E-03  0.10183257633E+01  0.10180038228E+01 0.  0.
     999903    2    3    3    0    0  0.10547847709E+00 -0.49559516478E-01  0.46582297958E-01  0.12747070686E+00  0.22293851631E-01 0.  0.
         14    1    1    2    0    0  0.11204481911E-02 -0.25575345248E-01  0.47249201923E-03  0.25604236708E-01  0.00000000000E+00 0. -1.
     999901    1    3    3    0    0 -0.10659892528E+00  0.75134861725E-01 -0.47054789978E-01  0.89085505644E+00  0.88000000000E+00 0. -1.
        -11    1    4    4    0    0  0.66584539297E-01 -0.22828663329E-01  0.19441432419E-01  0.73026564744E-01  0.51100000000E-03 0. -1.
         11    1    4    4    0    0  0.38893937794E-01 -0.26730853148E-01  0.27140865540E-01  0.54444142113E-01  0.51100000000E-03 0.  1.
</event>
<event>
 8    1  0.1106168E+005  0.1043930E+01  0.7957747E-01            NaN
         13   -1    0    0    0    0  0.00000000000E+00  0.00000000000E+00  0.74505805969E-08  0.10566000000E+00  0.10566000000E+00 0.  1.
     999900   -1    0    0    0    0 -0.00000000000E+00 -0.00000000000E+00 -0.74505805969E-08  0.93827000000E+00  0.93827000000E+00 0.  1.
     999902    2    1    2    0    0  0.19558477226E-01  0.12057274827E-01 -0.27123052174E-02  0.10207941294E+01  0.10205319133E+01 0.  0.
     999903    2    3    3    0    0 -0.76789514365E-01 -0.47458757357E-01  0.88941750952E-01  0.12881567700E+00  0.23105852361E-01 0.  0.
         14    1    1    2    0    0 -0.19558477226E-01 -0.12057274827E-01  0.27123052174E-02  0.23135870575E-01  0.00000000000E+00 0. -1.
     999901    1    3    3    0    0  0.96347991591E-01  0.59516032184E-01 -0.91654056170E-01  0.89197845242E+00  0.88000000000E+00 0.  1.
        -11    1    4    4    0    0 -0.71432011835E-01 -0.36829298583E-01  0.82879360405E-01  0.11544773298E+00  0.51100000000E-03 0.  1.
         11    1    4    4    0    0 -0.53575025304E-02 -0.10629458775E-01  0.60623905472E-02  0.13367944021E-01  0.51100000000E-03 0. -1.
</event>
<event>
 8    1  0.1106168E+005  0.1043930E+01  0.7957747E-01            NaN
         13   -1    0    0    0    0  0.00000000000E+00  0.00000000000E+00  0.74505805969E-08  0.10566000000E+00  0.10566000000E+00 0. -1.
     999900   -1    0    0    0    0 -0.00000000000E+00 -0.00000000000E+00 -0.74505805969E-08  0.93827000000E+00  0.93827000000E+00 0. -1.
     999902    2    1    2    0    0 -0.20197565419E-01 -0.11712476384E-01  0.32704145653E-02  0.10203541784E+01  0.10200817762E+01 0.  0.
     999903    2    3    3    0    0 -0.88927359355E-02  0.26318980294E-01  0.12636961013E+00  0.13090063673E+00  0.19847641062E-01 0.  0.
         14    1    1    2    0    0  0.20197565419E-01  0.11712476384E-01 -0.32704145653E-02  0.23575821584E-01  0.00000000000E+00 0.  1.
     999901    1    3    3    0    0 -0.11304829484E-01 -0.38031456677E-01 -0.12309919557E+00  0.88945354168E+00  0.88000000000E+00 0. -1.
        -11    1    4    4    0    0 -0.86718832608E-02  0.10335495263E-02  0.28226464168E-01  0.29551043710E-01  0.51100000000E-03 0. -1.
         11    1    4    4    0    0 -0.22085267473E-03  0.25285430768E-01  0.98143145964E-01  0.10134959302E+00  0.51100000000E-03 0.  1.
</event>
<event>
 8    1  0.1106168E+005  0.1043930E+01  0.7957747E-01            NaN
         13   -1    0    0    0    0  0.00000000000E+00  0.00000000000E+00  0.74505805969E-08  0.10566000000E+00  0.10566000000E+00 0.  1.
     999900   -1    0    0    0    0 -0.00000000000E+00 -0.00000000000E+00 -0.74505805969E-08  0.93827000000E+00  0.93827000000E+00 0.  1.
     999902    2    1    2    0    0 -0.20723106916E-01  0.42268176333E-02 -0.13278813746E-01  0.10189572140E+01  0.10186511492E+01 0.  0.
     999903    2    3    3    0    0  0.12230736497E+00  0.98053962764E-02  0.24393957281E-01  0.12659625892E+00  0.19398719013E-01 0.  0.
         14    1    1    2    0    0  0.20723106916E-01 -0.42268176333E-02  0.13278813746E-01  0.24972786029E-01  0.00000000000E+00 0. -1.
     999901    1    3    3    0    0 -0.14303047188E+00 -0.55785786432E-02 -0.37672771026E-01  0.89236095505E+00  0.88000000000E+00 0. -1.
        -11    1    4    4    0    0  0.34269241589E-01 -0.58173616277E-02  0.52941658630E-02  0.35164071558E-01  0.51100000000E-03 0.  1.
         11    1    4    4    0    0  0.88038123376E-01  0.15622757904E-01  0.19099791418E-01  0.91432187360E-01  0.51100000000E-03 0. -1.
</event>
<event>
 8    1  0.1106168E+005  0.1043930E+01  0.7957747E-01            NaN
         13   -1    0    0    0    0  0.00000000000E+00  0.00000000000E+00  0.74505805969E-08  0.10566000000E+00  0.10566000000E+00 0. -1.
     999900   -1    0    0    0    0 -0.00000000000E+00 -0.00000000000E+00 -0.74505805969E-08  0.93827000000E+00  0.93827000000E+00 0.  1.
     999902    2    1    2    0    0 -0.76293306657E-02  0.10558207963E-01 -0.20994509953E-01  0.10192226754E+01  0.10189231620E+01 0.  0.
     999903    2    3    3    0    0 -0.73487544533E-01  0.81193822906E-01 -0.69108250563E-01  0.13263278909E+00  0.28681882198E-01 0.  0.
         14    1    1    2    0    0  0.76293306657E-02 -0.10558207963E-01  0.20994509953E-01  0.24707324622E-01  0.00000000000E+00 0. -1.
     999901    1    3    3    0    0  0.65858213867E-01 -0.70635614944E-01  0.48113740610E-01  0.88658988629E+00  0.88000000000E+00 0. -1.
        -11    1    4    4    0    0 -0.43323855377E-01  0.67180768877E-01 -0.48496531049E-01  0.93500731529E-01  0.51100000000E-03 0.  1.
         11    1    4    4    0    0 -0.30163689155E-01  0.14013054030E-01 -0.20611719514E-01  0.39132057562E-01  0.51100000000E-03 0. -1.
</event>
<event>
 8    1  0.1106168E+005  0.1043930E+01  0.7957747E-01            NaN
         13   -1    0    0    0    0  0.00000000000E+00  0.00000000000E+00  0.74505805969E-08  0.10566000000E+00  0.10566000000E+00 0.  1.
     999900   -1    0    0    0    0 -0.00000000000E+00 -0.00000000000E+00 -0.74505805969E-08  0.93827000000E+00  0.93827000000E+00 0. -1.
     999902    2    1    2    0    0  0.34508926364E-02 -0.13052214107E-01  0.19472263825E-01  0.10202353168E+01  0.10199601285E+01 0.  0.
     999903    2    3    3    0    0  0.50536426215E-01 -0.10038868724E+00  0.68979255126E-01  0.13327666546E+00  0.19305776786E-01 0.  0.
         14    1    1    2    0    0 -0.34508926364E-02  0.13052214107E-01 -0.19472263825E-01  0.23694683192E-01  0.00000000000E+00 0. -1.
     999901    1    3    3    0    0 -0.47085533579E-01  0.87336473138E-01 -0.49506991301E-01  0.88695865135E+00  0.88000000000E+00 0. -1.
        -11    1    4    4    0    0  0.31632083169E-01 -0.76045920028E-01  0.57196965916E-01  0.10027624180E+00  0.51100000000E-03 0. -1.
         11    1    4    4    0    0  0.18904343046E-01 -0.24342767217E-01  0.11782289209E-01  0.33000423661E-01  0.51100000000E-03 0.  1.
</event>
<event>
 8    1  0.1106168E+005  0.1043930E+01  0.7957747E-01            NaN
         13   -1    0    0    0    0  0.00000000000E+00  0.00000000000E+00  0.74505805969E-08  0.10566000000E+00  0.10566000000E+00 0. -1.
     999900   -1    0    0    0    0 -0.00000000000E+00 -0.00000000000E+00 -0.74505805969E-08  0.93827000000E+00  0.93827000000E+00 0.  1.
     999902    2    1    2    0    0  0.14359708230E-02  0.90505061867E-02 -0.22911818258E-01  0.10192535924E+01  0.10189548374E+01 0.  0.
     999903    2    3    3    0    0  0.13138293838E-01  0.12724635813E+00 -0.21968877788E-01  0.13127381062E+00  0.19645135297E-01 0.  0.
         14    1    1    2    0    0 -0.14359708230E-02 -0.90505061867E-02  0.22911818258E-01  0.24676407565E-01  0.00000000000E+00 0. -1.
     999901    1    3    3    0    0 -0.11702323015E-01 -0.11819585194E+00 -0.94294047038E-03  0.88797978182E+00  0.88000000000E+00 0. -1.
        -11    1    4    4    0    0 -0.41933437578E-02  0.36515634312E-01 -0.23051656024E-02  0.36831380514E-01  0.51100000000E-03 0. -1.
         11    1    4    4    0    0  0.17331637596E-01  0.90730723816E-01 -0.19663712185E-01  0.94442430103E-01  0.51100000000E-03 0.  1.
</event>
<event>
 8    1  0.1106168E+005  0.1043930E+01  0.7957747E-01            NaN
         13   -1    0    0    0    0  0.00000000000E+00  0.00000000000E+00  0.74505805969E-08  0.10566000000E+00  0.10566000000E+00 0.  1.
     999900   -1    0    0    0    0 -0.00000000000E+00 -0.00000000000E+00 -0.74505805969E-08  0.93827000000E+00  0.93827000000E+00 0.  1.
     999902    2    1    2    0    0  0.13084274648E-01 -0.12908546115E-01  0.14904616224E-01  0.10202661797E+01  0.10199917162E+01 0.  0.
     999903    2    3    3    0    0 -0.26712101570E-02  0.61674530956E-01 -0.11041826820E+00  0.12812454519E+00  0.20318021461E-01 0.  0.
         14    1    1    2    0    0 -0.13084274648E-01  0.12908546115E-01 -0.14904616224E-01  0.23663820289E-01  0.00000000000E+00 0. -1.
     999901    1    3    3    0    0  0.15755484805E-01 -0.74583077072E-01  0.12532288442E+00  0.89214163452E+00  0.88000000000E+00 0. -1.
        -11    1    4    4    0    0 -0.31184930649E-02  0.17493285157E-01 -0.16162394010E-01  0.24025489084E-01  0.51100000000E-03 0. -1.
         11    1    4    4    0    0  0.44728290791E-03  0.44181245799E-01 -0.94255874187E-01  0.10409905611E+00  0.51100000000E-03 0.  1.
</event>
<event>
 8    1  0.1106168E+005  0.1043930E+01  0.7957747E-01            NaN
         13   -1    0    0    0    0  0.00000000000E+00  0.00000000000E+00  0.74505805969E-08  0.10566000000E+00  0.10566000000E+00 0.  1.
     999900   -1    0    0    0    0 -0.00000000000E+00 -0.00000000000E+00 -0.74505805969E-08  0.93827000000E+00  0.93827000000E+00 0.  1.
     999902    2    1    2    0    0  0.19318340440E-01 -0.12831606766E-01 -0.45608503249E-02  0.10202942270E+01  0.10200204213E+01 0.  0.
     999903    2    3    3    0    0 -0.99081965057E-01  0.78453783181E-01  0.57481758661E-02  0.12762523416E+00  0.16820433218E-01 0.  0.
         14    1    1    2    0    0 -0.19318340440E-01  0.12831606766E-01  0.45608503249E-02  0.23635772999E-01  0.00000000000E+00 0.  1.
     999901    1    3    3    0    0  0.11840030550E+00 -0.91285389947E-01 -0.10309026191E-01  0.89266899284E+00  0.88000000000E+00 0. -1.
        -11    1    4    4    0    0 -0.21898216175E-01  0.12803120217E-01 -0.45422170143E-02  0.25774883421E-01  0.51100000000E-03 0. -1.
         11    1    4    4    0    0 -0.77183748882E-01  0.65650662964E-01  0.10290392880E-01  0.10185035074E+00  0.51100000000E-03 0.  1.
</event>
<event>
 8    1  0.1106168E+005  0.1043930E+01  0.7957747E-01            NaN
         13   -1    0    0    0    0  0.00000000000E+00  0.00000000000E+00  0.74505805969E-08  0.10566000000E+00  0.10566000000E+00 0. -1.
     999900   -1    0    0    0    0 -0.00000000000E+00 -0.00000000000E+00 -0.74505805969E-08  0.93827000000E+00  0.93827000000E+00 0.  1.
     999902    2    1    2    0    0  0.51471561945E-02 -0.18171080610E-01 -0.18662264434E-01  0.10173788889E+01  0.10170323702E+01 0.  0.
     999903    2    3    3    0    0 -0.67985149535E-01 -0.10428338819E+00 -0.27227194234E-01  0.13011510529E+00  0.26298572391E-01 0.  0.
         14    1    1    2    0    0 -0.51471561945E-02  0.18171080610E-01  0.18662264434E-01  0.26551111111E-01  0.00000000000E+00 0. -1.
     999901    1    3    3    0    0  0.73132305729E-01  0.86112307581E-01  0.85649297999E-02  0.88726378360E+00  0.88000000000E+00 0.  1.
        -11    1    4    4    0    0 -0.25135434050E-01 -0.20270417419E-01 -0.12652664055E-01  0.34684735777E-01  0.51100000000E-03 0.  1.
         11    1    4    4    0    0 -0.42849715484E-01 -0.84012970772E-01 -0.14574530178E-01  0.95430369516E-01  0.51100000000E-03 0. -1.
</event>
<event>
 8    1  0.1106168E+005  0.1043930E+01  0.7957747E-01            NaN
         13   -1    0    0    0    0  0.00000000000E+00  0.00000000000E+00  0.74505805969E-08  0.10566000000E+00  0.10566000000E+00 0.  1.
     999900   -1    0    0    0    0 -0.00000000000E+00 -0.00000000000E+00 -0.74505805969E-08  0.93827000000E+00  0.93827000000E+00 0.  1.
     999902    2    1    2    0    0 -0.52868075162E-02 -0.73690994556E-02  0.23082530830E-01  0.10191296534E+01  0.10188278526E+01 0.  0.
     999903    2    3    3    0    0 -0.79409157646E-01 -0.79686963816E-01 -0.60166895378E-01  0.12915523624E+00  0.20129412005E-01 0.  0.
         14    1    1    2    0    0  0.52868075162E-02  0.73690994556E-02 -0.23082530830E-01  0.24800346570E-01  0.00000000000E+00 0. -1.
     999901    1    3    3    0    0  0.74122350130E-01  0.72317864361E-01  0.83249426207E-01  0.88997441719E+00  0.88000000000E+00 0. -1.
        -11    1    4    4    0    0 -0.28054083222E-01 -0.42249235606E-01 -0.27652097805E-01  0.57766159027E-01  0.51100000000E-03 0.  1.
         11    1    4    4    0    0 -0.51355074424E-01 -0.37437728210E-01 -0.32514797573E-01  0.71389077210E-01  0.51100000000E-03 0. -1.
</event>
<event>
 8    1  0.1106168E+005  0.1043930E+01  0.7957747E-01            NaN
         13   -1    0    0    0    0  0.00000000000E+00  0.00000000000E+00  0.74505805969E-08  0.10566000000E+00  0.10566000000E+00 0. -1.
     999900   -1    0    0    0    0 -0.00000000000E+00 -0.00000000000E+00 -0.74505805969E-08  0.93827000000E+00  0.93827000000E+00 0. -1.
     999902    2    1    2    0    0  0.11872291916E-01 -0.12124998712E-01  0.16505646070E-01  0.10202571620E+01  0.10199824867E+01 0.  0.
     999903    2    3    3    0    0 -0.10123376960E+00  0.75338431705E-01 -0.98733623071E-02  0.12832740861E+00  0.21125461376E-01 0.  0.
         14    1    1    2    0    0 -0.11872291916E-01  0.12124998712E-01 -0.16505646070E-01  0.23672838049E-01  0.00000000000E+00 0.  1.
     999901    1    3    3    0    0  0.11310606152E+00 -0.87463430417E-01  0.26379008377E-01  0.89192975334E+00  0.88000000000E+00 0.  1.
        -11    1    4    4    0    0 -0.17073248420E-01  0.11503180698E-01  0.61379719144E-02  0.21488480588E-01  0.51100000000E-03 0. -1.
         11    1    4    4    0    0 -0.84160521180E-01  0.63835251007E-01 -0.16011334221E-01  0.10683892802E+00  0.51100000000E-03 0.  1.
</event>
<event>
 8    1  0.1106168E+005  0.1043930E+01  0.7957747E-01            NaN
         13   -1    0    0    0    0  0.00000000000E+00  0.00000000000E+00  0.74505805969E-08  0.10566000000E+00  0.10566000000E+00 0. -1.
     999900   -1    0    0    0    0 -0.00000000000E+00 -0.00000000000E+00 -0.74505805969E-08  0.93827000000E+00  0.93827000000E+00 0. -1.
     999902    2    1    2    0    0  0.19311043517E-01  0.31338065369E-02 -0.13385024646E-01  0.10202256538E+01  0.10199502383E+01 0.  0.
     999903    2    3    3    0    0 -0.86492348426E-01 -0.27481682094E-01 -0.90885466072E-01  0.12997962918E+00  0.19959130017E-01 0.  0.
         14    1    1    2    0    0 -0.19311043517E-01 -0.31338065369E-02  0.13385024646E-01  0.23704346224E-01  0.00000000000E+00 0. -1.
     999901    1    3    3    0    0  0.10580339194E+00  0.30615488631E-01  0.77500441426E-01  0.89024602460E+00  0.88000000000E+00 0.  1.
        -11    1    4    4    0    0 -0.65252920755E-01 -0.11323339179E-01 -0.64846542331E-01  0.92690327707E-01  0.51100000000E-03 0. -1.
         11    1    4    4    0    0 -0.21239427672E-01 -0.16158342915E-01 -0.26038923741E-01  0.37289301471E-01  0.51100000000E-03 0.  1.
</event>
<event>
 8    1  0.1106168E+005  0.1043930E+01  0.7957747E-01            NaN
         13   -1    0    0    0    0  0.00000000000E+00  0.00000000000E+00  0.74505805969E-08  0.10566000000E+00  0.10566000000E+00 0. -1.
     999900   -1    0    0    0    0 -0.00000000000E+00 -0.00000000000E+00 -0.74505805969E-08  0.93827000000E+00  0.93827000000E+00 0. -1.
     999902    2    1    2    0    0  0.20896849347E-01 -0.10022495188E-01 -0.10770397226E-02  0.10207289497E+01  0.10204652370E+01 0.  0.
     999903    2    3    3    0    0  0.47356317779E-01  0.20984077714E-02  0.12126607717E+00  0.13178864907E+00  0.20390252632E-01 0.  0.
         14    1    1    2    0    0 -0.20896849347E-01  0.10022495188E-01  0.10770397226E-02  0.23201050342E-01  0.00000000000E+00 0. -1.
     999901    1    3    3    0    0 -0.26459468432E-01 -0.12120902959E-01 -0.12234311689E+00  0.88894030059E+00  0.88000000000E+00 0. -1.
        -11    1    4    4    0    0  0.30476536314E-01 -0.38111844114E-02  0.96249314608E-01  0.10103235163E+00  0.51100000000E-03 0.  1.
         11    1    4    4    0    0  0.16879781466E-01  0.59095921828E-02  0.25016762563E-01  0.30756297440E-01  0.51100000000E-03 0. -1.
</event>
<event>
 8    1  0.1106168E+005  0.1043930E+01  0.7957747E-01            NaN
         13   -1    0    0    0    0  0.00000000000E+00  0.00000000000E+00  0.74505805969E-08  0.10566000000E+00  0.10566000000E+00 0.  1.
     999900   -1    0    0    0    0 -0.00000000000E+00 -0.00000000000E+00 -0.74505805969E-08  0.93827000000E+00  0.93827000000E+00 0. -1.
     999902    2    1    2    0    0  0.20988638125E-01 -0.11729733060E-01 -0.74063811812E-02  0.10187712232E+01  0.10184605251E+01 0.  0.
     999903    2    3    3    0    0 -0.24540907719E-01 -0.94362122676E-01  0.82274476086E-01  0.12919620808E+00  0.20398637698E-01 0.  0.
         14    1    1    2    0    0 -0.20988638125E-01  0.11729733060E-01  0.74063811812E-02  0.25158776802E-01  0.00000000000E+00 0.  1.
     999901    1    3    3    0    0  0.45529545844E-01  0.82632389616E-01 -0.89680857267E-01  0.88957501512E+00  0.88000000000E+00 0. -1.
        -11    1    4    4    0    0 -0.14293079077E-01 -0.52411636439E-01  0.32538946289E-01  0.63327054963E-01  0.51100000000E-03 0.  1.
         11    1    4    4    0    0 -0.10247828643E-01 -0.41950486237E-01  0.49735529797E-01  0.65869153119E-01  0.51100000000E-03 0. -1.
</event>
<event>
 8    1  0.1106168E+005  0.1043930E+01  0.7957747E-01            NaN
         13   -1    0    0    0    0  0.00000000000E+00  0.00000000000E+00  0.74505805969E-08  0.10566000000E+00  0.10566000000E+00 0.  1.
     999900   -1    0    0    0    0 -0.00000000000E+00 -0.00000000000E+00 -0.74505805969E-08  0.93827000000E+00  0.93827000000E+00 0. -1.
     999902    2    1    2    0    0 -0.10793678068E-01 -0.29697230846E-01  0.19889080287E-01  0.10065936301E+01  0.10059009551E+01 0.  0.
     999903    2    3    3    0    0  0.19680284559E-01  0.42931565989E-01  0.10704433753E+00  0.11878754571E+00  0.20531874282E-01 0.  0.
         14    1    1    2    0    0  0.10793678068E-01  0.29697230846E-01 -0.19889080287E-01  0.37336369947E-01  0.00000000000E+00 0. -1.
     999901    1    3    3    0    0 -0.30473962627E-01 -0.72628796835E-01 -0.87155257238E-01  0.88780608434E+00  0.88000000000E+00 0.  1.
        -11    1    4    4    0    0  0.96632935820E-02  0.39746067481E-01  0.87498657373E-01  0.96588846593E-01  0.51100000000E-03 0. -1.
         11    1    4    4    0    0  0.10016990977E-01  0.31854985074E-02  0.19545680152E-01  0.22198699119E-01  0.51100000000E-03 0.  1.
</event>
<event>
 8    1  0.1106168E+005  0.1043930E+01  0.7957747E-01            NaN
         13   -1    0    0    0    0  0.00000000000E+00  0.00000000000E+00  0.74505805969E-08  0.10566000000E+00  0.10566000000E+00 0.  1.
     999900   -1    0    0    0    0 -0.00000000000E+00 -0.00000000000E+00 -0.74505805969E-08  0.93827000000E+00  0.93827000000E+00 0.  1.
     999902    2    1    2    0    0 -0.15343878061E-01  0.17639205911E-02 -0.24064552292E-01  0.10153354431E+01  0.10149327137E+01 0.  0.
     999903    2    3    3    0    0 -0.12341984388E+00 -0.27251329891E-01 -0.49590143318E-02  0.12804331488E+00  0.19884813730E-01 0.  0.
         14    1    1    2    0    0  0.15343878061E-01 -0.17639205911E-02  0.24064552292E-01  0.28594556944E-01  0.00000000000E+00 0.  1.
     999901    1    3    3    0    0  0.10807596582E+00  0.29015250482E-01 -0.19105537961E-01  0.88729212818E+00  0.88000000000E+00 0.  1.
        -11    1    4    4    0    0 -0.93432334985E-01 -0.27167930352E-01  0.17115338547E-02  0.97318488117E-01  0.51100000000E-03 0. -1.
         11    1    4    4    0    0 -0.29987508896E-01 -0.83399538387E-04 -0.66705481865E-02  0.30724826759E-01  0.51100000000E-03 0.  1.
</event>
<event>
 7    1  0.1208911E+005  0.1043930E+01  0.7957747E-01            NaN
         13   -1    0    0    0    0  0.00000000000E+00  0.00000000000E+00  0.74505805969E-08  0.10566000000E+00  0.10566000000E+00 0. -1.
     999900   -1    0    0    0    0 -0.00000000000E+00 -0.00000000000E+00 -0.74505805969E-08  0.93827000000E+00  0.93827000000E+00 0. -1.
     999903    2    1    2    0    0  0.91921903357E-01  0.44693785070E-01  0.39887866249E-02  0.10420274347E+00  0.19877891938E-01 0.  0.
         14    1    1    2    0    0 -0.54953228629E-01  0.14746101049E-01 -0.23583456925E-02  0.56946173069E-01  0.00000000000E+00 0. -1.
     999901    1    1    2    0    0 -0.36968674728E-01 -0.59439886119E-01 -0.16304409324E-02  0.88278108346E+00  0.88000000000E+00 0. -1.
        -11    1    3    3    0    0  0.41803430759E-01  0.10703258941E-01  0.62259792411E-02  0.43601726040E-01  0.51100000000E-03 0. -1.
         11    1    3    3    0    0  0.50118472598E-01  0.33990526129E-01 -0.22371926162E-02  0.60601017433E-01  0.51100000000E-03 0.  1.
</event>
<event>
 8    1  0.1106168E+005  0.1043930E+01  0.7957747E-01            NaN
         13   -1    0    0    0    0  0.00000000000E+00  0.00000000000E+00  0.74505805969E-08  0.10566000000E+00  0.10566000000E+00 0. -1.
     999900   -1    0    0    0    0 -0.00000000000E+00 -0.00000000000E+00 -0.74505805969E-08  0.93827000000E+00  0.93827000000E+00 0. -1.
     999902    2    1    2    0    0 -0.23523177121E-01 -0.13046770946E-02  0.26453205699E-02  0.10202226221E+01  0.10199471354E+01 0.  0.
     999903    2    3    3    0    0  0.34030467842E-01  0.10704101082E+00 -0.60687834075E-01  0.12945761462E+00  0.21457167537E-01 0.  0.
         14    1    1    2    0    0  0.23523177121E-01  0.13046770946E-02 -0.26453205699E-02  0.23707377862E-01  0.00000000000E+00 0.  1.
     999901    1    3    3    0    0 -0.57553644963E-01 -0.10834568792E+00  0.63333154645E-01  0.89076500752E+00  0.88000000000E+00 0.  1.
        -11    1    4    4    0    0  0.12857848073E-01  0.60596204327E-01 -0.43104420169E-01  0.75468380101E-01  0.51100000000E-03 0.  1.
         11    1    4    4    0    0  0.21172619769E-01  0.46444806497E-01 -0.17583413906E-01  0.53989234520E-01  0.51100000000E-03 0. -1.
</event>
<event>
 8    1  0.1106168E+005  0.1043930E+01  0.7957747E-01            NaN
         13   -1    0    0    0    0  0.00000000000E+00  0.00000000000E+00  0.74505805969E-08  0.10566000000E+00  0.10566000000E+00 0. -1.
     999900   -1    0    0    0    0 -0.00000000000E+00 -0.00000000000E+00 -0.74505805969E-08  0.93827000000E+00  0.93827000000E+00 0.  1.
     999902    2    1    2    0    0 -0.22309981067E-01 -0.84996393190E-02  0.18154133496E-02  0.10199868413E+01  0.10197057819E+01 0.  0.
     999903    2    3    3    0    0  0.62209031855E-01 -0.10142777613E+00  0.48795897797E-01  0.12982603105E+00  0.17782049381E-01 0.  0.
         14    1    1    2    0    0  0.22309981067E-01  0.84996393190E-02 -0.18154133496E-02  0.23943158718E-01  0.00000000000E+00 0. -1.
     999901    1    3    3    0    0 -0.84519012922E-01  0.92928136815E-01 -0.46980484447E-01  0.89016081023E+00  0.88000000000E+00 0.  1.
        -11    1    4    4    0    0  0.34373040261E-01 -0.71269332194E-01  0.29189532223E-01  0.84339276263E-01  0.51100000000E-03 0.  1.
         11    1    4    4    0    0  0.27835991594E-01 -0.30158443940E-01  0.19606365574E-01  0.45486754785E-01  0.51100000000E-03 0. -1.
</event>
<event>
 8    1  0.1106168E+005  0.1043930E+01  0.7957747E-01            NaN
         13   -1    0    0    0    0  0.00000000000E+00  0.00000000000E+00  0.74505805969E-08  0.10566000000E+00  0.10566000000E+00 0. -1.
     999900   -1    0    0    0    0 -0.00000000000E+00 -0.00000000000E+00 -0.74505805969E-08  0.93827000000E+00  0.93827000000E+00 0.  1.
     999902    2    1    2    0    0  0.18508493756E-01  0.13504863578E-01 -0.22524348053E-02  0.10209078554E+01  0.10206482401E+01 0.  0.
     999903    2    3    3    0    0  0.15164680408E-01  0.12396748892E+00 -0.41511313491E-01  0.13312723367E+00  0.20044085322E-01 0.  0.
         14    1    1    2    0    0 -0.18508493756E-01 -0.13504863578E-01  0.22524348053E-02  0.23022144643E-01  0.00000000000E+00 0. -1.
     999901    1    3    3    0    0  0.33438133488E-02 -0.11046262534E+00  0.39258878686E-01  0.88778062169E+00  0.88000000000E+00 0.  1.
        -11    1    4    4    0    0  0.79803647208E-02  0.77942858377E-01 -0.15838994908E-01  0.79936914337E-01  0.51100000000E-03 0.  1.
         11    1    4    4    0    0  0.71843156868E-02  0.46024630543E-01 -0.25672318583E-01  0.53190319334E-01  0.51100000000E-03 0. -1.
</event>
<event>
 8    1  0.1106168E+005  0.1043930E+01  0.7957747E-01            NaN
         13   -1    0    0    0    0  0.00000000000E+00  0.00000000000E+00  0.74505805969E-08  0.10566000000E+00  0.10566000000E+00 0.  1.
     999900   -1    0    0    0    0 -0.00000000000E+00 -0.00000000000E+00 -0.74505805969E-08  0.93827000000E+00  0.93827000000E+00 0.  1.
     999902    2    1    2    0    0 -0.69787219813E-03  0.23715111416E-01 -0.47312114157E-02  0.10197374826E+01  0.10194504675E+01 0.  0.
     999903    2    3    3    0    0 -0.37246528546E-01  0.17251336501E-01 -0.12295442458E+00  0.13105626150E+00  0.19314260385E-01 0.  0.
         14    1    1    2    0    0  0.69787219813E-03 -0.23715111416E-01  0.47312114157E-02  0.24192517367E-01  0.00000000000E+00 0.  1.
     999901    1    3    3    0    0  0.36548656348E-01  0.64637749152E-02  0.11822321316E+00  0.88868122113E+00  0.88000000000E+00 0. -1.
        -11    1    4    4    0    0 -0.14046413795E-01  0.11108218478E-03 -0.62634163408E-01  0.64192005940E-01  0.51100000000E-03 0.  1.
         11    1    4    4    0    0 -0.23200114751E-01  0.17140254316E-01 -0.60320261172E-01  0.66864255558E-01  0.51100000000E-03 0. -1.
</event>
<event>
 8    1  0.1106168E+005  0.1043930E+01  0.7957747E-01            NaN
         13   -1    0    0    0    0  0.00000000000E+00  0.00000000000E+00  0.74505805969E-08  0.10566000000E+00  0.10566000000E+00 0. -1.
     999900   -1    0    0    0    0 -0.00000000000E+00 -0.00000000000E+00 -0.74505805969E-08  0.93827000000E+00  0.93827000000E+00 0. -1.
     999902    2    1    2    0    0  0.22261598671E-01  0.45782568574E-02  0.72572037949E-02  0.10200719570E+01  0.10197929158E+01 0.  0.
     999903    2    3    3    0    0  0.68379401203E-01 -0.90954643656E-01 -0.61268789195E-01  0.13105609741E+00  0.21756526113E-01 0.  0.
         14    1    1    2    0    0 -0.22261598671E-01 -0.45782568574E-02 -0.72572037949E-02  0.23858043050E-01  0.00000000000E+00 0.  1.
     999901    1    3    3    0    0 -0.46117802532E-01  0.95532900513E-01  0.68525992990E-01  0.88901585954E+00  0.88000000000E+00 0.  1.
        -11    1    4    4    0    0  0.55022473935E-01 -0.66292766686E-01 -0.36252689871E-01  0.93470434880E-01  0.51100000000E-03 0. -1.
         11    1    4    4    0    0  0.13356927269E-01 -0.24661876970E-01 -0.25016099324E-01  0.37585662534E-01  0.51100000000E-03 0.  1.
</event>
<event>
 8    1  0.1106168E+005  0.1043930E+01  0.7957747E-01            NaN
         13   -1    0    0    0    0  0.00000000000E+00  0.00000000000E+00  0.74505805969E-08  0.10566000000E+00  0.10566000000E+00 0.  1.
     999900   -1    0    0    0    0 -0.00000000000E+00 -0.00000000000E+00 -0.74505805969E-08  0.93827000000E+00  0.93827000000E+00 0.  1.
     999902    2    1    2    0    0  0.91848551349E-03  0.15463978633E-01 -0.17203426563E-01  0.10207797055E+01  0.10205171586E+01 0.  0.
     999903    2    3    3    0    0  0.10358358165E+00  0.56915937644E-01  0.53076443322E-01  0.13106197104E+00  0.19777488984E-01 0.  0.
         14    1    1    2    0    0 -0.91848551349E-03 -0.15463978633E-01  0.17203426563E-01  0.23150294519E-01  0.00000000000E+00 0.  1.
     999901    1    3    3    0    0 -0.10266509614E+00 -0.41451959010E-01 -0.70279869884E-01  0.88971773444E+00  0.88000000000E+00 0.  1.
        -11    1    4    4    0    0  0.67537358017E-01  0.26953166438E-01  0.28211121768E-01  0.77999336032E-01  0.51100000000E-03 0. -1.
         11    1    4    4    0    0  0.36046223637E-01  0.29962771206E-01  0.24865321554E-01  0.53062635006E-01  0.51100000000E-03 0.  1.
</event>
<event>
 8    1  0.1106168E+005  0.1043930E+01  0.7957747E-01            NaN
         13   -1    0    0    0    0  0.00000000000E+00  0.00000000000E+00  0.74505805969E-08  0.10566000000E+00  0.10566000000E+00 0. -1.
     999900   -1    0    0    0    0 -0.00000000000E+00 -0.00000000000E+00 -0.74505805969E-08  0.93827000000E+00  0.93827000000E+00 0. -1.
     999902    2    1    2    0    0  0.21612764800E-01 -0.63783472556E-02  0.57177331636E-02  0.10206816154E+01  0.10204168131E+01 0.  0.
     999903    2    3    3    0    0  0.80307151433E-03 -0.12373527188E+00  0.41997855837E-01  0.13190608779E+00  0.18009266283E-01 0.  0.
         14    1    1    2    0    0 -0.21612764800E-01  0.63783472556E-02 -0.57177331636E-02  0.23248384644E-01  0.00000000000E+00 0.  1.
     999901    1    3    3    0    0  0.20809693286E-01  0.11735692462E+00 -0.36280122674E-01  0.88877552756E+00  0.88000000000E+00 0.  1.
        -11    1    4    4    0    0  0.90246123892E-02 -0.80493396034E-01  0.28410220406E-01  0.85837242374E-01  0.51100000000E-03 0.  1.
         11    1    4    4    0    0 -0.82215408749E-02 -0.43241875843E-01  0.13587635431E-01  0.46068845421E-01  0.51100000000E-03 0. -1.
</event>
<event>
 8    1  0.1106168E+005  0.1043930E+01  0.7957747E-01            NaN
         13   -1    0    0    0    0  0.00000000000E+00  0.00000000000E+00  0.74505805969E-08  0.10566000000E+00  0.10566000000E+00 0. -1.
     999900   -1    0    0    0    0 -0.00000000000E+00 -0.00000000000E+00 -0.74505805969E-08  0.93827000000E+00  0.93827000000E+00 0.  1.
     999902    2    1    2    0    0  0.18355467826E-03 -0.12169399516E-01 -0.21123534748E-01  0.10195510809E+01  0.10192595719E+01 0.  0.
     999903    2    3    3    0    0  0.11138188514E+00  0.38889785864E-01 -0.52313369651E-01  0.13053763053E+00  0.19622552336E-01 0.  0.
         14    1    1    2    0    0 -0.18355467826E-03  0.12169399516E-01  0.21123534748E-01  0.24378919113E-01  0.00000000000E+00 0. -1.
     999901    1    3    3    0    0 -0.11119833046E+00 -0.51059185380E-01  0.31189834903E-01  0.88901345035E+00  0.88000000000E+00 0. -1.
        -11    1    4    4    0    0  0.62281364114E-01  0.25877041667E-01 -0.39452401998E-01  0.78136692698E-01  0.51100000000E-03 0.  1.
         11    1    4    4    0    0  0.49100521021E-01  0.13012744197E-01 -0.12860967653E-01  0.52400937835E-01  0.51100000000E-03 0. -1.
</event>
<event>
 8    1  0.1106168E+005  0.1043930E+01  0.7957747E-01            NaN
         13   -1    0    0    0    0  0.00000000000E+00  0.00000000000E+00  0.74505805969E-08  0.10566000000E+00  0.10566000000E+00 0. -1.
     999900   -1    0    0    0    0 -0.00000000000E+00 -0.00000000000E+00 -0.74505805969E-08  0.93827000000E+00  0.93827000000E+00 0.  1.
     999902    2    1    2    0    0 -0.86022980759E-02  0.23325227571E-01 -0.14429685842E-02  0.10190272304E+01  0.10187229007E+01 0.  0.
     999903    2    3    3    0    0  0.26105623964E-01  0.11867372090E+00 -0.47536763195E-01  0.13199813682E+00  0.19970193625E-01 0.  0.
         14    1    1    2    0    0  0.86022980759E-02 -0.23325227571E-01  0.14429685842E-02  0.24902769560E-01  0.00000000000E+00 0.  1.
     999901    1    3    3    0    0 -0.34707922040E-01 -0.95348493329E-01  0.46093794610E-01  0.88702909362E+00  0.88000000000E+00 0. -1.
        -11    1    4    4    0    0  0.26258962101E-01  0.80983276960E-01 -0.28574147176E-01  0.89802935619E-01  0.51100000000E-03 0. -1.
         11    1    4    4    0    0 -0.15333813668E-03  0.37690443939E-01 -0.18962616018E-01  0.42195201198E-01  0.51100000000E-03 0.  1.
</event>
<event>
 8    1  0.1106168E+005  0.1043930E+01  0.7957747E-01            NaN
         13   -1    0    0    0    0  0.00000000000E+00  0.00000000000E+00  0.74505805969E-08  0.10566000000E+00  0.10566000000E+00 0.  1.
     999900   -1    0    0    0    0 -0.00000000000E+00 -0.00000000000E+00 -0.74505805969E-08  0.93827000000E+00  0.93827000000E+00 0.  1.
     999902    2    1    2    0    0 -0.14585045566E-01  0.18094375648E-01  0.49826044460E-02  0.10201611899E+01  0.10198842567E+01 0.  0.
     999903    2    3    3    0    0  0.39131808749E-01  0.14145562436E-01 -0.12106526806E+00  0.12954951266E+00  0.19871630709E-01 0.  0.
         14    1    1    2    0    0  0.14585045566E-01 -0.18094375648E-01 -0.49826044460E-02  0.23768810053E-01  0.00000000000E+00 0. -1.
     999901    1    3    3    0    0 -0.53716854315E-01  0.39488132121E-02  0.12604787250E+00  0.89061167729E+00  0.88000000000E+00 0. -1.
        -11    1    4    4    0    0  0.23754463862E-01 -0.91738309431E-03 -0.51414376816E-01  0.56646406855E-01  0.51100000000E-03 0.  1.
         11    1    4    4    0    0  0.15377344886E-01  0.15062945530E-01 -0.69650891242E-01  0.72903105802E-01  0.51100000000E-03 0. -1.
</event>
<event>
 8    1  0.1106168E+005  0.1043930E+01  0.7957747E-01            NaN
         13   -1    0    0    0    0  0.00000000000E+00  0.00000000000E+00  0.74505805969E-08  0.10566000000E+00  0.10566000000E+00 0. -1.
     999900   -1    0    0    0    0 -0.00000000000E+00 -0.00000000000E+00 -0.74505805969E-08  0.93827000000E+00  0.93827000000E+00 0. -1.
     999902    2    1    2    0    0  0.22892291640E-01 -0.42546509236E-03 -0.73273907633E-02  0.10198898525E+01  0.10196064841E+01 0.  0.
     999903    2    3    3    0    0 -0.56281086826E-01 -0.89845671287E-03  0.11362836470E+00  0.12809450469E+00  0.18122607622E-01 0.  0.
         14    1    1    2    0    0 -0.22892291640E-01  0.42546509236E-03  0.73273907633E-02  0.24040147514E-01  0.00000000000E+00 0. -1.
     999901    1    3    3    0    0  0.79173378466E-01  0.47299162051E-03 -0.12095575547E+00  0.89179534780E+00  0.88000000000E+00 0. -1.
        -11    1    4    4    0    0 -0.16525960341E-01  0.36930638857E-02  0.51278625901E-01  0.54004672774E-01  0.51100000000E-03 0. -1.
         11    1    4    4    0    0 -0.39755126485E-01 -0.45915205986E-02  0.62349738801E-01  0.74089831912E-01  0.51100000000E-03 0.  1.
</event>
<event>
 8    1  0.1106168E+005  0.1043930E+01  0.7957747E-01            NaN
         13   -1    0    0    0    0  0.00000000000E+00  0.00000000000E+00  0.74505805969E-08  0.10566000000E+00  0.10566000000E+00 0. -1.
     999900   -1    0    0    0    0 -0.00000000000E+00 -0.00000000000E+00 -0.74505805969E-08  0.93827000000E+00  0.93827000000E+00 0. -1.
     999902    2    1    2    0    0  0.21933166626E-01  0.75063580109E-02  0.11881189278E-02  0.10207174854E+01  0.10204535090E+01 0.  0.
     999903    2    3    3    0    0 -0.44588185545E-01  0.12180548004E+00 -0.11497305389E-02  0.13083274838E+00  0.17064727035E-01 0.  0.
         14    1    1    2    0    0 -0.21933166626E-01 -0.75063580109E-02 -0.11881189278E-02  0.23212514629E-01  0.00000000000E+00 0. -1.
     999901    1    3    3    0    0  0.66521352171E-01 -0.11429912203E+00  0.23378494667E-02  0.88988473699E+00  0.88000000000E+00 0.  1.
        -11    1    4    4    0    0 -0.13415264433E-01  0.38973026721E-01 -0.82677952954E-02  0.42041452064E-01  0.51100000000E-03 0.  1.
         11    1    4    4    0    0 -0.31172921112E-01  0.82832453324E-01  0.71180647565E-02  0.88791296314E-01  0.51100000000E-03 0. -1.
</event>
<event>
 8    1  0.1106168E+005  0.1043930E+01  0.7957747E-01            NaN
         13   -1    0    0    0    0  0.00000000000E+00  0.00000000000E+00  0.74505805969E-08  0.10566000000E+00  0.10566000000E+00 0. -1.
     999900   -1    0    0    0    0 -0.00000000000E+00 -0.00000000000E+00 -0.74505805969E-08  0.93827000000E+00  0.93827000000E+00 0. -1.
     999902    2    1    2    0    0 -0.41144066363E-02  0.22198001985E-01 -0.61682183857E-02  0.10205264415E+01  0.10202580513E+01 0.  0.
     999903    2    3    3    0    0  0.12473549782E+00 -0.77829960591E-02  0.28914565395E-01  0.12994687745E+00  0.20751371561E-01 0.  0.
         14    1    1    2    0    0  0.41144066363E-02 -0.22198001985E-01  0.61682183857E-02  0.23403558536E-01  0.00000000000E+00 0. -1.
     999901    1    3    3    0    0 -0.12884990446E+00  0.29980998044E-01 -0.35082783781E-01  0.89057956401E+00  0.88000000000E+00 0. -1.
        -11    1    4    4    0    0  0.86657079464E-01  0.40527805272E-02  0.17991682529E-01  0.88599301422E-01  0.51100000000E-03 0. -1.
         11    1    4    4    0    0  0.38078418360E-01 -0.11835776586E-01  0.10922882866E-01  0.41347576027E-01  0.51100000000E-03 0.  1.
</event>
<event>
 8    1  0.1106168E+005  0.1043930E+01  0.7957747E-01            NaN
         13   -1    0    0    0    0  0.00000000000E+00  0.00000000000E+00  0.74505805969E-08  0.10566000000E+00  0.10566000000E+00 0. -1.
     999900   -1    0    0    0    0 -0.00000000000E+00 -0.00000000000E+00 -0.74505805969E-08  0.93827000000E+00  0.93827000000E+00 0. -1.
     999902    2    1    2    0    0 -0.77440527457E-02  0.16191415118E-01  0.16540762562E-01  0.10195224376E+01  0.10192302349E+01 0.  0.
     999903    2    3    3    0    0  0.12273762940E+00  0.65861321132E-02 -0.32020717495E-01  0.12852527251E+00  0.19634574561E-01 0.  0.
         14    1    1    2    0    0  0.77440527457E-02 -0.16191415118E-01 -0.16540762562E-01  0.24407562405E-01  0.00000000000E+00 0.  1.
     999901    1    3    3    0    0 -0.13048168215E+00  0.96052830045E-02  0.48561480057E-01  0.89099716508E+00  0.88000000000E+00 0. -1.
        -11    1    4    4    0    0  0.49297115229E-01 -0.69334505936E-02 -0.13658726715E-01  0.51624608894E-01  0.51100000000E-03 0. -1.
         11    1    4    4    0    0  0.73440514173E-01  0.13519582707E-01 -0.18361990780E-01  0.76900663619E-01  0.51100000000E-03 0.  1.
</event>
<event>
 8    1  0.1106168E+005  0.1043930E+01  0.7957747E-01            NaN
         13   -1    0    0    0    0  0.00000000000E+00  0.00000000000E+00  0.74505805969E-08  0.10566000000E+00  0.10566000000E+00 0.  1.
     999900   -1    0    0    0    0 -0.00000000000E+00 -0.00000000000E+00 -0.74505805969E-08  0.93827000000E+00  0.93827000000E+00 0. -1.
     999902    2    1    2    0    0 -0.23056429616E-01  0.84297882446E-02 -0.63967420624E-02  0.10185611493E+01  0.10182451749E+01 0.  0.
     999903    2    3    3    0    0  0.53384361320E-01  0.65942026498E-01  0.93607135244E-01  0.12774600151E+00  0.18934208218E-01 0.  0.
         14    1    1    2    0    0  0.23056429616E-01 -0.84297882446E-02  0.63967420624E-02  0.25368850694E-01  0.00000000000E+00 0.  1.
     999901    1    3    3    0    0 -0.76440790936E-01 -0.57512238254E-01 -0.10000387731E+00  0.89081514780E+00  0.88000000000E+00 0. -1.
        -11    1    4    4    0    0  0.33740257874E-02  0.54221630515E-02  0.16512405505E-01  0.17711706827E-01  0.51100000000E-03 0.  1.
         11    1    4    4    0    0  0.50010335532E-01  0.60519863447E-01  0.77094729739E-01  0.11003429468E+00  0.51100000000E-03 0. -1.
</event>
<event>
 8    1  0.1106168E+005  0.1043930E+01  0.7957747E-01            NaN
         13   -1    0    0    0    0  0.00000000000E+00  0.00000000000E+00  0.74505805969E-08  0.10566000000E+00  0.10566000000E+00 0. -1.
     999900   -1    0    0    0    0 -0.00000000000E+00 -0.00000000000E+00 -0.74505805969E-08  0.93827000000E+00  0.93827000000E+00 0. -1.
     999902    2    1    2    0    0  0.94089392022E-02 -0.49231422042E-02  0.21232994969E-01  0.10201896221E+01  0.10199133588E+01 0.  0.
     999903    2    3    3    0    0 -0.33788060023E-01 -0.12446309025E+00 -0.56584209380E-02  0.13065101804E+00  0.20124039191E-01 0.  0.
         14    1    1    2    0    0 -0.94089392022E-02  0.49231422042E-02 -0.21232994969E-01  0.23740377870E-01  0.00000000000E+00 0.  1.
     999901    1    3    3    0    0  0.43196999226E-01  0.11953994804E+00  0.26891415907E-01  0.88953860409E+00  0.88000000000E+00 0. -1.
        -11    1    4    4    0    0 -0.22504177370E-01 -0.63047329754E-01  0.56738769174E-02  0.67185249784E-01  0.51100000000E-03 0.  1.
         11    1    4    4    0    0 -0.11283882653E-01 -0.61415760491E-01 -0.11332297855E-01  0.63465768255E-01  0.51100000000E-03 0. -1.
</event>
<event>
 8    1  0.1106168E+005  0.1043930E+01  0.7957747E-01            NaN
         13   -1    0    0    0    0  0.00000000000E+00  0.00000000000E+00  0.74505805969E-08  0.10566000000E+00  0.10566000000E+00 0. -1.
     999900   -1    0    0    0    0 -0.00000000000E+00 -0.00000000000E+00 -0.74505805969E-08  0.93827000000E+00  0.93827000000E+00 0. -1.
     999902    2    1    2    0    0  0.17584124754E-01 -0.70647213551E-02  0.15596645511E-01  0.10193868323E+01  0.10190913338E+01 0.  0.
     999903    2    3    3    0    0 -0.10672084217E+00 -0.27865648541E-01 -0.60108071067E-01  0.12718976464E+00  0.19960548553E-01 0.  0.
         14    1    1    2    0    0 -0.17584124754E-01  0.70647213551E-02 -0.15596645511E-01  0.24543167733E-01  0.00000000000E+00 0.  1.
     999901    1    3    3    0    0  0.12430496693E+00  0.20800927186E-01  0.75704716579E-01  0.89219706763E+00  0.88000000000E+00 0.  1.
        -11    1    4    4    0    0 -0.53096569561E-01 -0.20997874003E-01 -0.39014158750E-01  0.69155781506E-01  0.51100000000E-03 0.  1.
         11    1    4    4    0    0 -0.53624272612E-01 -0.68677745381E-02 -0.21093912317E-01  0.58033983131E-01  0.51100000000E-03 0. -1.
</event>
<event>
 8    1  0.1106168E+005  0.1043930E+01  0.7957747E-01            NaN
         13   -1    0    0    0    0  0.00000000000E+00  0.00000000000E+00  0.74505805969E-08  0.10566000000E+00  0.10566000000E+00 0.  1.
     999900   -1    0    0    0    0 -0.00000000000E+00 -0.00000000000E+00 -0.74505805969E-08  0.93827000000E+00  0.93827000000E+00 0. -1.
     999902    2    1    2    0    0  0.71718096386E-02 -0.18119012644E-01 -0.12737838267E-01  0.10206494073E+01  0.10203838624E+01 0.  0.
     999903    2    3    3    0    0 -0.76700378999E-01  0.97509565765E-01  0.27182669082E-01  0.12823797804E+00  0.17748745276E-01 0.  0.
         14    1    1    2    0    0 -0.71718096386E-02  0.18119012644E-01  0.12737838267E-01  0.23280592698E-01  0.00000000000E+00 0.  1.
     999901    1    3    3    0    0  0.83872188637E-01 -0.11562857841E+00 -0.39920507350E-01  0.89241142926E+00  0.88000000000E+00 0. -1.
        -11    1    4    4    0    0 -0.40210749454E-01  0.64820986484E-01  0.18302911838E-01  0.78446939795E-01  0.51100000000E-03 0.  1.
         11    1    4    4    0    0 -0.36489629545E-01  0.32688579280E-01  0.88797572446E-02  0.49791038244E-01  0.51100000000E-03 0. -1.
</event>
<event>
 8    1  0.1106168E+005  0.1043930E+01  0.7957747E-01            NaN
         13   -1    0    0    0    0  0.00000000000E+00  0.00000000000E+00  0.74505805969E-08  0.10566000000E+00  0.10566000000E+00 0.  1.
     999900   -1    0    0    0    0 -0.00000000000E+00 -0.00000000000E+00 -0.74505805969E-08  0.93827000000E+00  0.93827000000E+00 0.  1.
     999902    2    1    2    0    0  0.18753321419E-01  0.28404867375E-02 -0.96738216532E-02  0.10226382585E+01  0.10224165832E+01 0.  0.
     999903    2    3    3    0    0 -0.15549640044E-01  0.27616754702E-01  0.12577787407E+00  0.13126980582E+00  0.20179491334E-01 0.  0.
         14    1    1    2    0    0 -0.18753321419E-01 -0.28404867375E-02  0.96738216532E-02  0.21291741463E-01  0.00000000000E+00 0.  1.
     999901    1    3    3    0    0  0.34302961463E-01 -0.24776267965E-01 -0.13545169572E+00  0.89136845271E+00  0.88000000000E+00 0.  1.
        -11    1    4    4    0    0 -0.70967120202E-02  0.28168209530E-01  0.94973722582E-01  0.99318077165E-01  0.51100000000E-03 0.  1.
         11    1    4    4    0    0 -0.84529280238E-02 -0.55145482817E-03  0.30804151484E-01  0.31951728659E-01  0.51100000000E-03 0. -1.
</event>
<event>
 7    1  0.1106168E+005  0.1043930E+01  0.7957747E-01            NaN
         13   -1    0    0    0    0  0.00000000000E+00  0.00000000000E+00  0.74505805969E-08  0.10566000000E+00  0.10566000000E+00 0. -1.
     999900   -1    0    0    0    0 -0.00000000000E+00 -0.00000000000E+00 -0.74505805969E-08  0.93827000000E+00  0.93827000000E+00 0.  1.
     999903    2    1    2    0    0  0.26074588304E-01  0.63221966441E-01 -0.10099885023E-01  0.72072920520E-01  0.20386196285E-01 0.  0.
         14    1    1    2    0    0  0.42982347341E-01 -0.77123738543E-01  0.11521951045E-01  0.89041050004E-01  0.00000000000E+00 0.  1.
     999901    1    1    2    0    0 -0.69056935645E-01  0.13901772103E-01 -0.14220660222E-02  0.88281602948E+00  0.88000000000E+00 0.  1.
        -11    1    3    3    0    0  0.15365721016E-01  0.29417640583E-01 -0.14718473392E-01  0.36309744419E-01  0.51100000000E-03 0.  1.
         11    1    3    3    0    0  0.10708867288E-01  0.33804325858E-01  0.46185883689E-02  0.35763176101E-01  0.51100000000E-03 0. -1.
</event>
<event>
 8    1  0.1106168E+005  0.1043930E+01  0.7957747E-01            NaN
         13   -1    0    0    0    0  0.00000000000E+00  0.00000000000E+00  0.74505805969E-08  0.10566000000E+00  0.10566000000E+00 0. -1.
     999900   -1    0    0    0    0 -0.00000000000E+00 -0.00000000000E+00 -0.74505805969E-08  0.93827000000E+00  0.93827000000E+00 0.  1.
     999902    2    1    2    0    0 -0.35499357028E-03 -0.22892719992E-01 -0.63190325220E-02  0.10201785196E+01  0.10199019948E+01 0.  0.
     999903    2    3    3    0    0  0.92127970098E-01 -0.74322382665E-01  0.53900238192E-01  0.13179545508E+00  0.21293822163E-01 0.  0.
         14    1    1    2    0    0  0.35499357028E-03  0.22892719992E-01  0.63190325220E-02  0.23751480398E-01  0.00000000000E+00 0.  1.
     999901    1    3    3    0    0 -0.92482963668E-01  0.51429662673E-01 -0.60219270714E-01  0.88838306453E+00  0.88000000000E+00 0.  1.
        -11    1    4    4    0    0  0.49502033178E-01 -0.38723147463E-01  0.16976792765E-01  0.65103041801E-01  0.51100000000E-03 0. -1.
         11    1    4    4    0    0  0.42625936920E-01 -0.35599235202E-01  0.36923445427E-01  0.66692413275E-01  0.51100000000E-03 0.  1.
</event>
<event>
 8    1  0.1106168E+005  0.1043930E+01  0.7957747E-01            NaN
         13   -1    0    0    0    0  0.00000000000E+00  0.00000000000E+00  0.74505805969E-08  0.10566000000E+00  0.10566000000E+00 0.  1.
     999900   -1    0    0    0    0 -0.00000000000E+00 -0.00000000000E+00 -0.74505805969E-08  0.93827000000E+00  0.93827000000E+00 0.  1.
     999902    2    1    2    0    0  0.14803869949E-01  0.17286731619E-01 -0.57268266407E-02  0.10204612506E+01  0.10201913457E+01 0.  0.
     999903    2    3    3    0    0 -0.64648214656E-01  0.39799389935E-01 -0.10486813456E+00  0.13105220382E+00  0.20346286732E-01 0.  0.
         14    1    1    2    0    0 -0.14803869949E-01 -0.17286731619E-01  0.57268266407E-02  0.23468749411E-01  0.00000000000E+00 0.  1.
     999901    1    3    3    0    0  0.79452084605E-01 -0.22512658316E-01  0.99141307918E-01  0.88940904677E+00  0.88000000000E+00 0. -1.
        -11    1    4    4    0    0 -0.53033604385E-02  0.11847822417E-01 -0.16765800434E-01  0.21209660845E-01  0.51100000000E-03 0.  1.
         11    1    4    4    0    0 -0.59344854217E-01  0.27951567519E-01 -0.88102334124E-01  0.10984254298E+00  0.51100000000E-03 0. -1.
</event>
<event>
 8    1  0.1106168E+005  0.1043930E+01  0.7957747E-01            NaN
         13   -1    0    0    0    0  0.00000000000E+00  0.00000000000E+00  0.74505805969E-08  0.10566000000E+00  0.10566000000E+00 0. -1.
     999900   -1    0    0    0    0 -0.00000000000E+00 -0.00000000000E+00 -0.74505805969E-08  0.93827000000E+00  0.93827000000E+00 0. -1.
     999902    2    1    2    0    0 -0.11198922040E-01 -0.73744409758E-02  0.19447994118E-01  0.10203074957E+01  0.10200340009E+01 0.  0.
     999903    2    3    3    0    0 -0.48653562625E-01  0.97407133207E-01  0.71687503480E-01  0.13176318350E+00  0.19160365742E-01 0.  0.
         14    1    1    2    0    0  0.11198922040E-01  0.73744409758E-02 -0.19447994118E-01  0.23622504308E-01  0.00000000000E+00 0.  1.
     999901    1    3    3    0    0  0.37454640585E-01 -0.10478157418E+00 -0.52239509362E-01  0.88854431219E+00  0.88000000000E+00 0. -1.
        -11    1    4    4    0    0 -0.92645567231E-02  0.24466245899E-01  0.84452316499E-02  0.27495677084E-01  0.51100000000E-03 0. -1.
         11    1    4    4    0    0 -0.39389005902E-01  0.72940887307E-01  0.63242271830E-01  0.10426750642E+00  0.51100000000E-03 0.  1.
</event>
<event>
 8    1  0.1106168E+005  0.1043930E+01  0.7957747E-01            NaN
         13   -1    0    0    0    0  0.00000000000E+00  0.00000000000E+00  0.74505805969E-08  0.10566000000E+00  0.10566000000E+00 0. -1.
     999900   -1    0    0    0    0 -0.00000000000E+00 -0.00000000000E+00 -0.74505805969E-08  0.93827000000E+00  0.93827000000E+00 0.  1.
     999902    2    1    2    0    0  0.21017919703E-01 -0.10038845081E-01  0.39962757736E-02  0.10202973620E+01  0.10200236298E+01 0.  0.
     999903    2    3    3    0    0 -0.15920504074E-01 -0.12290117457E+00  0.39813102171E-01  0.13159876425E+00  0.19364671115E-01 0.  0.
         14    1    1    2    0    0 -0.21017919703E-01  0.10038845081E-01 -0.39962757736E-02  0.23632638009E-01  0.00000000000E+00 0. -1.
     999901    1    3    3    0    0  0.36938423777E-01  0.11286232949E+00 -0.35816826398E-01  0.88869859774E+00  0.88000000000E+00 0. -1.
        -11    1    4    4    0    0 -0.14023304333E-01 -0.11975538171E+00  0.35057623301E-01  0.12556792021E+00  0.51100000000E-03 0. -1.
         11    1    4    4    0    0 -0.18971997410E-02 -0.31457928570E-02  0.47554788701E-02  0.60308440405E-02  0.51100000000E-03 0.  1.
</event>
<event>
 8    1  0.1106168E+005  0.1043930E+01  0.7957747E-01            NaN
         13   -1    0    0    0    0  0.00000000000E+00  0.00000000000E+00  0.74505805969E-08  0.10566000000E+00  0.10566000000E+00 0. -1.
     999900   -1    0    0    0    0 -0.00000000000E+00 -0.00000000000E+00 -0.74505805969E-08  0.93827000000E+00  0.93827000000E+00 0. -1.
     999902    2    1    2    0    0 -0.57252205848E-02 -0.15457432604E-02 -0.23024536068E-01  0.10201540303E+01  0.10198769283E+01 0.  0.
     999903    2    3    3    0    0  0.59581428044E-01  0.67945199327E-01 -0.94501976871E-01  0.13212082486E+00  0.18941806941E-01 0.  0.
         14    1    1    2    0    0  0.57252205848E-02  0.15457432604E-02  0.23024536068E-01  0.23775969678E-01  0.00000000000E+00 0. -1.
     999901    1    3    3    0    0 -0.65306648628E-01 -0.69490942587E-01  0.71477440803E-01  0.88803320546E+00  0.88000000000E+00 0. -1.
        -11    1    4    4    0    0  0.57879878557E-01  0.65538147463E-01 -0.84183184392E-01  0.12137709327E+00  0.51100000000E-03 0.  1.
         11    1    4    4    0    0  0.17015494864E-02  0.24070518634E-02 -0.10318792479E-01  0.10743731593E-01  0.51100000000E-03 0. -1.
</event>
<event>
 8    1  0.1106168E+005  0.1043930E+01  0.7957747E-01            NaN
         13   -1    0    0    0    0  0.00000000000E+00  0.00000000000E+00  0.74505805969E-08  0.10566000000E+00  0.10566000000E+00 0.  1.
     999900   -1    0    0    0    0 -0.00000000000E+00 -0.00000000000E+00 -0.74505805969E-08  0.93827000000E+00  0.93827000000E+00 0. -1.
     999902    2    1    2    0    0 -0.20966134458E-01 -0.76355488602E-02 -0.94106906253E-02  0.10197134458E+01  0.10194258531E+01 0.  0.
     999903    2    3    3    0    0  0.10452793546E-01 -0.11479654162E+00 -0.59763112892E-01  0.13122822145E+00  0.19018664038E-01 0.  0.
         14    1    1    2    0    0  0.20966134458E-01  0.76355488602E-02  0.94106906253E-02  0.24216554225E-01  0.00000000000E+00 0. -1.
     999901    1    3    3    0    0 -0.31418928004E-01  0.10716099276E+00  0.50352422267E-01  0.88848522432E+00  0.88000000000E+00 0. -1.
        -11    1    4    4    0    0 -0.47594640176E-02 -0.34456469680E-01 -0.21999761223E-01  0.41160070644E-01  0.51100000000E-03 0. -1.
         11    1    4    4    0    0  0.15212257564E-01 -0.80340071944E-01 -0.37763351670E-01  0.90068150811E-01  0.51100000000E-03 0.  1.
</event>
<event>
 8    1  0.1106168E+005  0.1043930E+01  0.7957747E-01            NaN
         13   -1    0    0    0    0  0.00000000000E+00  0.00000000000E+00  0.74505805969E-08  0.10566000000E+00  0.10566000000E+00 0. -1.
     999900   -1    0    0    0    0 -0.00000000000E+00 -0.00000000000E+00 -0.74505805969E-08  0.93827000000E+00  0.93827000000E+00 0. -1.
     999902    2    1    2    0    0 -0.20919200462E-01  0.12049143056E-01 -0.19269831718E-02  0.10197120715E+01  0.10194244458E+01 0.  0.
     999903    2    3    3    0    0  0.29586829420E-02  0.11604493764E+00 -0.58552395970E-01  0.13146001495E+00  0.19446621785E-01 0.  0.
         14    1    1    2    0    0  0.20919200462E-01 -0.12049143056E-01  0.19269831718E-02  0.24217928493E-01  0.00000000000E+00 0. -1.
     999901    1    3    3    0    0 -0.23877883404E-01 -0.10399579459E+00  0.56625412798E-01  0.88825205656E+00  0.88000000000E+00 0.  1.
        -11    1    4    4    0    0 -0.71359698394E-02  0.73400592059E-01 -0.39651860765E-01  0.83732312540E-01  0.51100000000E-03 0.  1.
         11    1    4    4    0    0  0.10094652781E-01  0.42644345585E-01 -0.18900535204E-01  0.47727702408E-01  0.51100000000E-03 0. -1.
</event>
<event>
 7    1  0.1106168E+005  0.1043930E+01  0.7957747E-01            NaN
         13   -1    0    0    0    0  0.00000000000E+00  0.00000000000E+00  0.74505805969E-08  0.10566000000E+00  0.10566000000E+00 0. -1.
     999900   -1    0    0    0    0 -0.00000000000E+00 -0.00000000000E+00 -0.74505805969E-08  0.93827000000E+00  0.93827000000E+00 0. -1.
     999903    2    1    2    0    0  0.95184625451E-01  0.27464172526E-01 -0.50045993125E-01  0.11271445813E+00  0.19635527691E-01 0.  0.
         14    1    1    2    0    0  0.23481671930E-01  0.25630757108E-01  0.22167942469E-01  0.41227931064E-01  0.00000000000E+00 0. -1.
     999901    1    1    2    0    0 -0.11866629738E+00 -0.53094929634E-01  0.27878050657E-01  0.88998761081E+00  0.88000000000E+00 0.  1.
        -11    1    3    3    0    0  0.10934295100E-01  0.96970432303E-02 -0.44703182455E-02  0.15291707653E-01  0.51100000000E-03 0. -1.
         11    1    3    3    0    0  0.84250330352E-01  0.17767129296E-01 -0.45575674880E-01  0.97422750472E-01  0.51100000000E-03 0.  1.
</event>
<event>
 8    1  0.1106168E+005  0.1043930E+01  0.7957747E-01            NaN
         13   -1    0    0    0    0  0.00000000000E+00  0.00000000000E+00  0.74505805969E-08  0.10566000000E+00  0.10566000000E+00 0.  1.
     999900   -1    0    0    0    0 -0.00000000000E+00 -0.00000000000E+00 -0.74505805969E-08  0.93827000000E+00  0.93827000000E+00 0. -1.
     999902    2    1    2    0    0 -0.22334690911E-01 -0.64757728068E-03  0.58597883578E-02  0.10208303270E+01  0.10205689401E+01 0.  0.
     999903    2    3    3    0    0 -0.10692472831E+00  0.76213937907E-01 -0.11977038025E-01  0.13325986818E+00  0.19320485831E-01 0.  0.
         14    1    1    2    0    0  0.22334690911E-01  0.64757728068E-03 -0.58597883578E-02  0.23099673028E-01  0.00000000000E+00 0. -1.
     999901    1    3    3    0    0  0.84590037396E-01 -0.76861515188E-01  0.17836826383E-01  0.88757045879E+00  0.88000000000E+00 0. -1.
        -11    1    4    4    0    0 -0.22897138603E-01  0.16795702309E-01  0.53385054433E-02  0.28898708166E-01  0.51100000000E-03 0. -1.
         11    1    4    4    0    0 -0.84027589704E-01  0.59418235598E-01 -0.17315543469E-01  0.10436116001E+00  0.51100000000E-03 0.  1.
</event>
<event>
 8    1  0.1106168E+005  0.1043930E+01  0.7957747E-01            NaN
         13   -1    0    0    0    0  0.00000000000E+00  0.00000000000E+00  0.74505805969E-08  0.10566000000E+00  0.10566000000E+00 0.  1.
     999900   -1    0    0    0    0 -0.00000000000E+00 -0.00000000000E+00 -0.74505805969E-08  0.93827000000E+00  0.93827000000E+00 0.  1.
     999902    2    1    2    0    0  0.71808190261E-02  0.31995436337E-02 -0.17088290291E-01  0.10251201381E+01  0.10249475531E+01 0.  0.
     999903    2    3    3    0    0 -0.10188915647E+00 -0.14335487238E-01 -0.85861504262E-01  0.13555086485E+00  0.20369895607E-01 0.  0.
         14    1    1    2    0    0 -0.71808190261E-02 -0.31995436337E-02  0.17088290291E-01  0.18809861946E-01  0.00000000000E+00 0.  1.
     999901    1    3    3    0    0  0.10906997550E+00  0.17535030872E-01  0.68773213970E-01  0.88956927320E+00  0.88000000000E+00 0.  1.
        -11    1    4    4    0    0 -0.22841944764E-01 -0.80332112458E-02 -0.11385320231E-01  0.26761419269E-01  0.51100000000E-03 0. -1.
         11    1    4    4    0    0 -0.79047211711E-01 -0.63022759922E-02 -0.74476184030E-01  0.10878944558E+00  0.51100000000E-03 0.  1.
</event>
<event>
 8    1  0.1106168E+005  0.1043930E+01  0.7957747E-01            NaN
         13   -1    0    0    0    0  0.00000000000E+00  0.00000000000E+00  0.74505805969E-08  0.10566000000E+00  0.10566000000E+00 0. -1.
     999900   -1    0    0    0    0 -0.00000000000E+00 -0.00000000000E+00 -0.74505805969E-08  0.93827000000E+00  0.93827000000E+00 0.  1.
     999902    2    1    2    0    0 -0.61408127922E-02 -0.16911995805E-01  0.60271585452E-02  0.10249549684E+01  0.10247793106E+01 0.  0.
     999903    2    3    3    0    0 -0.85919885700E-02  0.12678106311E+00  0.33269240129E-01  0.13288107323E+00  0.20081759220E-01 0.  0.
         14    1    1    2    0    0  0.61408127922E-02  0.16911995805E-01 -0.60271585452E-02  0.18975031594E-01  0.00000000000E+00 0.  1.
     999901    1    3    3    0    0  0.24511757777E-02 -0.14369305892E+00 -0.27242081584E-01  0.89207389517E+00  0.88000000000E+00 0. -1.
        -11    1    4    4    0    0 -0.14800738601E-01  0.92215858135E-01  0.26817250696E-01  0.97171253005E-01  0.51100000000E-03 0. -1.
         11    1    4    4    0    0  0.62087500314E-02  0.34565204975E-01  0.64519894330E-02  0.35709820226E-01  0.51100000000E-03 0.  1.
</event>
<event>
 8    1  0.1106168E+005  0.1043930E+01  0.7957747E-01            NaN
         13   -1    0    0    0    0  0.00000000000E+00  0.00000000000E+00  0.74505805969E-08  0.10566000000E+00  0.10566000000E+00 0. -1.
     999900   -1    0    0    0    0 -0.00000000000E+00 -0.00000000000E+00 -0.74505805969E-08  0.93827000000E+00  0.93827000000E+00 0.  1.
     999902    2    1    2    0    0 -0.43868322174E-02 -0.76606588901E-02  0.20312068318E-01  0.10217825371E+01  0.10215424823E+01 0.  0.
     999903    2    3    3    0    0 -0.68852555005E-02 -0.12174855417E-01  0.13231244416E+00  0.13466884416E+00  0.20820203169E-01 0.  0.
         14    1    1    2    0    0  0.43868322174E-02  0.76606588901E-02 -0.20312068318E-01  0.22147462855E-01  0.00000000000E+00 0.  1.
     999901    1    3    3    0    0  0.24984232830E-02  0.45141965269E-02 -0.11200037584E+00  0.88711369298E+00  0.88000000000E+00 0.  1.
        -11    1    4    4    0    0 -0.10049932361E-01 -0.14680991449E-01  0.12532808495E+00  0.12658563366E+00  0.51100000000E-03 0. -1.
         11    1    4    4    0    0  0.31646768608E-02  0.25061360319E-02  0.69843592128E-02  0.80832105044E-02  0.51100000000E-03 0.  1.
</event>
<event>
 8    1  0.1106168E+005  0.1043930E+01  0.7957747E-01            NaN
         13   -1    0    0    0    0  0.00000000000E+00  0.00000000000E+00  0.74505805969E-08  0.10566000000E+00  0.10566000000E+00 0.  1.
     999900   -1    0    0    0    0 -0.00000000000E+00 -0.00000000000E+00 -0.74505805969E-08  0.93827000000E+00  0.93827000000E+00 0.  1.
     999902    2    1    2    0    0  0.20884468382E-01 -0.23627207124E-02  0.81290034885E-02  0.10213950457E+01  0.10211464220E+01 0.  0.
     999903    2    3    3    0    0  0.42834909103E-01 -0.10480328560E+00 -0.65138817459E-01  0.13215713332E+00  0.20096871337E-01 0.  0.
         14    1    1    2    0    0 -0.20884468382E-01  0.23627207124E-02 -0.81290034885E-02  0.22534954326E-01  0.00000000000E+00 0. -1.
     999901    1    3    3    0    0 -0.21950440721E-01  0.10244056489E+00  0.73267820947E-01  0.88923791235E+00  0.88000000000E+00 0. -1.
        -11    1    4    4    0    0  0.25796764220E-01 -0.39706934894E-01 -0.31969617677E-01  0.57135201919E-01  0.51100000000E-03 0. -1.
         11    1    4    4    0    0  0.17038144882E-01 -0.65096350704E-01 -0.33169199782E-01  0.75021931401E-01  0.51100000000E-03 0.  1.
</event>
<event>
 8    1  0.1106168E+005  0.1043930E+01  0.7957747E-01            NaN
         13   -1    0    0    0    0  0.00000000000E+00  0.00000000000E+00  0.74505805969E-08  0.10566000000E+00  0.10566000000E+00 0.  1.
     999900   -1    0    0    0    0 -0.00000000000E+00 -0.00000000000E+00 -0.74505805969E-08  0.93827000000E+00  0.93827000000E+00 0. -1.
     999902    2    1    2    0    0  0.91320005317E-02  0.20497194213E-01  0.91055127857E-02  0.10197135022E+01  0.10194259109E+01 0.  0.
     999903    2    3    3    0    0 -0.79688367640E-01 -0.92549173399E-01 -0.29799500271E-01  0.12719899860E+00  0.19390451114E-01 0.  0.
         14    1    1    2    0    0 -0.91320005317E-02 -0.20497194213E-01 -0.91055127857E-02  0.24216497836E-01  0.00000000000E+00 0. -1.
     999901    1    3    3    0    0  0.88820368171E-01  0.11304636761E+00  0.38905013057E-01  0.89251450356E+00  0.88000000000E+00 0. -1.
        -11    1    4    4    0    0 -0.60465206772E-01 -0.80576179832E-01 -0.21061367360E-01  0.10291940683E+00  0.51100000000E-03 0. -1.
         11    1    4    4    0    0 -0.19223160867E-01 -0.11972993568E-01 -0.87381329115E-02  0.24279591769E-01  0.51100000000E-03 0.  1.
</event>
<event>
 8    1  0.1106168E+005  0.1043930E+01  0.7957747E-01            NaN
         13   -1    0    0    0    0  0.00000000000E+00  0.00000000000E+00  0.74505805969E-08  0.10566000000E+00  0.10566000000E+00 0. -1.
     999900   -1    0    0    0    0 -0.00000000000E+00 -0.00000000000E+00 -0.74505805969E-08  0.93827000000E+00  0.93827000000E+00 0.  1.
     999902    2    1    2    0    0 -0.26385482262E-02  0.20202087807E-01 -0.66018519406E-02  0.10225134004E+01  0.10222890899E+01 0.  0.
     999903    2    3    3    0    0 -0.28855261325E-02 -0.72550377577E-01  0.10639740968E+00  0.13045291258E+00  0.20631773268E-01 0.  0.
         14    1    1    2    0    0  0.26385482262E-02 -0.20202087807E-01  0.66018519406E-02  0.21416599580E-01  0.00000000000E+00 0. -1.
     999901    1    3    3    0    0  0.24697790622E-03  0.92752465385E-01 -0.11299926162E+00  0.89206048784E+00  0.88000000000E+00 0.  1.
        -11    1    4    4    0    0 -0.11795722230E-01 -0.44386529799E-01  0.65674615261E-01  0.80141869838E-01  0.51100000000E-03 0.  1.
         11    1    4    4    0    0  0.89101960970E-02 -0.28163847779E-01  0.40722794414E-01  0.50311042745E-01  0.51100000000E-03 0. -1.
</event>
<event>
 8    1  0.1106168E+005  0.1043930E+01  0.7957747E-01            NaN
         13   -1    0    0    0    0  0.00000000000E+00  0.00000000000E+00  0.74505805969E-08  0.10566000000E+00  0.10566000000E+00 0. -1.
     999900   -1    0    0    0    0 -0.00000000000E+00 -0.00000000000E+00 -0.74505805969E-08  0.93827000000E+00  0.93827000000E+00 0. -1.
     999902    2    1    2    0    0 -0.53520478147E-03 -0.22686883063E-01 -0.76877474711E-02  0.10199699798E+01  0.10196885196E+01 0.  0.
     999903    2    3    3    0    0 -0.56254682708E-01  0.46489824347E-01  0.10398122776E+00  0.12847682945E+00  0.19191323191E-01 0.  0.
         14    1    1    2    0    0  0.53520478147E-03  0.22686883063E-01  0.76877474711E-02  0.23960020209E-01  0.00000000000E+00 0.  1.
     999901    1    3    3    0    0  0.55719477927E-01 -0.69176707409E-01 -0.11166897523E+00  0.89149315034E+00  0.88000000000E+00 0. -1.
        -11    1    4    4    0    0 -0.61293880472E-02  0.13769893428E-01  0.27392904238E-01  0.31269980596E-01  0.51100000000E-03 0.  1.
         11    1    4    4    0    0 -0.50125294661E-01  0.32719930919E-01  0.76588323521E-01  0.97206848858E-01  0.51100000000E-03 0. -1.
</event>
<event>
 8    1  0.1106168E+005  0.1043930E+01  0.7957747E-01            NaN
         13   -1    0    0    0    0  0.00000000000E+00  0.00000000000E+00  0.74505805969E-08  0.10566000000E+00  0.10566000000E+00 0. -1.
     999900   -1    0    0    0    0 -0.00000000000E+00 -0.00000000000E+00 -0.74505805969E-08  0.93827000000E+00  0.93827000000E+00 0. -1.
     999902    2    1    2    0    0  0.18012227823E-01  0.71963139331E-02 -0.12371831919E-01  0.10209237072E+01  0.10206644533E+01 0.  0.
     999903    2    3    3    0    0 -0.36392692170E-01 -0.14723856748E-01  0.12112296060E+00  0.12892524929E+00  0.20241746932E-01 0.  0.
         14    1    1    2    0    0 -0.18012227823E-01 -0.71963139331E-02  0.12371831919E-01  0.23006292844E-01  0.00000000000E+00 0. -1.
     999901    1    3    3    0    0  0.54404919993E-01  0.21920170681E-01 -0.13349479252E+00  0.89199845786E+00  0.88000000000E+00 0.  1.
        -11    1    4    4    0    0 -0.68040149342E-02 -0.12007812399E-01  0.49277268438E-01  0.51176092891E-01  0.51100000000E-03 0.  1.
         11    1    4    4    0    0 -0.29588677236E-01 -0.27160443495E-02  0.71845692164E-01  0.77749156401E-01  0.51100000000E-03 0. -1.
</event>
<event>
 8    1  0.1106168E+005  0.1043930E+01  0.7957747E-01            NaN
         13   -1    0    0    0    0  0.00000000000E+00  0.00000000000E+00  0.74505805969E-08  0.10566000000E+00  0.10566000000E+00 0. -1.
     999900   -1    0    0    0    0 -0.00000000000E+00 -0.00000000000E+00 -0.74505805969E-08  0.93827000000E+00  0.93827000000E+00 0. -1.
     999902    2    1    2    0    0 -0.39040063946E-02  0.33360887495E-03  0.22959875768E-01  0.10206381891E+01  0.10203723852E+01 0.  0.
     999903    2    3    3    0    0 -0.33055416554E-02  0.46083992752E-02 -0.12633437129E+00  0.12805351287E+00  0.20128706858E-01 0.  0.
         14    1    1    2    0    0  0.39040063946E-02 -0.33360887495E-03 -0.22959875768E-01  0.23291810923E-01  0.00000000000E+00 0.  1.
     999901    1    3    3    0    0 -0.59846473921E-03 -0.42747904003E-02  0.14929424706E+00  0.89258467621E+00  0.88000000000E+00 0.  1.
        -11    1    4    4    0    0  0.52668492206E-02  0.95628792570E-02 -0.71405559081E-01  0.72237132758E-01  0.51100000000E-03 0.  1.
         11    1    4    4    0    0 -0.85723908760E-02 -0.49544799817E-02 -0.54928812209E-01  0.55816380113E-01  0.51100000000E-03 0. -1.
</event>
<event>
 7    1  0.1106168E+005  0.1043930E+01  0.7957747E-01            NaN
         13   -1    0    0    0    0  0.00000000000E+00  0.00000000000E+00  0.74505805969E-08  0.10566000000E+00  0.10566000000E+00 0.  1.
     999900   -1    0    0    0    0 -0.00000000000E+00 -0.00000000000E+00 -0.74505805969E-08  0.93827000000E+00  0.93827000000E+00 0.  1.
     999903    2    1    2    0    0 -0.44794384103E-01 -0.95638480548E-01  0.66862766082E-02  0.10772623436E+00  0.20173732092E-01 0.  0.
         14    1    1    2    0    0 -0.40221935531E-01 -0.16550292388E-01 -0.11558662232E-01  0.45003543734E-01  0.00000000000E+00 0. -1.
     999901    1    1    2    0    0  0.85016319635E-01  0.11218877294E+00  0.48723856235E-02  0.89120022190E+00  0.88000000000E+00 0. -1.
        -11    1    3    3    0    0 -0.16089263380E-01 -0.37743573408E-01  0.12362860160E-01  0.42854908261E-01  0.51100000000E-03 0.  1.
         11    1    3    3    0    0 -0.28705120723E-01 -0.57894907141E-01 -0.56765835517E-02  0.64871326103E-01  0.51100000000E-03 0. -1.
</event>
<event>
 8    1  0.1106168E+005  0.1043930E+01  0.7957747E-01            NaN
         13   -1    0    0    0    0  0.00000000000E+00  0.00000000000E+00  0.74505805969E-08  0.10566000000E+00  0.10566000000E+00 0. -1.
     999900   -1    0    0    0    0 -0.00000000000E+00 -0.00000000000E+00 -0.74505805969E-08  0.93827000000E+00  0.93827000000E+00 0.  1.
     999902    2    1    2    0    0  0.19163735942E-01  0.67915972938E-03  0.14393174420E-01  0.10199534802E+01  0.10196716276E+01 0.  0.
     999903    2    3    3    0    0 -0.79667395650E-03 -0.10013966702E+00 -0.79426098831E-01  0.12901862856E+00  0.17570251518E-01 0.  0.
         14    1    1    2    0    0 -0.19163735942E-01 -0.67915972938E-03 -0.14393174420E-01  0.23976519828E-01  0.00000000000E+00 0.  1.
     999901    1    3    3    0    0  0.19960409899E-01  0.10081882675E+00  0.93819273250E-01  0.89093485162E+00  0.88000000000E+00 0. -1.
        -11    1    4    4    0    0  0.31668256469E-02 -0.17635888171E-01 -0.72811982737E-02  0.19347617568E-01  0.51100000000E-03 0.  1.
         11    1    4    4    0    0 -0.39634996035E-02 -0.82503778851E-01 -0.72144900557E-01  0.10967101099E+00  0.51100000000E-03 0. -1.
</event>
<event>
 8    1  0.1106168E+005  0.1043930E+01  0.7957747E-01            NaN
         13   -1    0    0    0    0  0.00000000000E+00  0.00000000000E+00  0.74505805969E-08  0.10566000000E+00  0.10566000000E+00 0. -1.
     999900   -1    0    0    0    0 -0.00000000000E+00 -0.00000000000E+00 -0.74505805969E-08  0.93827000000E+00  0.93827000000E+00 0. -1.
     999902    2    1    2    0    0 -0.57295967163E-02  0.42833593520E-02  0.34399556083E-01  0.10087944780E+01  0.10081824210E+01 0.  0.
     999903    2    3    3    0    0 -0.86712034203E-01 -0.65168000590E-01  0.52642391950E-01  0.12216352456E+00  0.19668760161E-01 0.  0.
         14    1    1    2    0    0  0.57295967163E-02 -0.42833593520E-02 -0.34399556083E-01  0.35135521977E-01  0.00000000000E+00 0.  1.
     999901    1    3    3    0    0  0.80982437486E-01  0.69451359942E-01 -0.18242835867E-01  0.88663095346E+00  0.88000000000E+00 0. -1.
        -11    1    4    4    0    0 -0.64423833971E-01 -0.45135148092E-01  0.47091808128E-01  0.91681576615E-01  0.51100000000E-03 0. -1.
         11    1    4    4    0    0 -0.22288200232E-01 -0.20032852498E-01  0.55505838221E-02  0.30481947945E-01  0.51100000000E-03 0.  1.
</event>
<event>
 8    1  0.1106168E+005  0.1043930E+01  0.7957747E-01            NaN
         13   -1    0    0    0    0  0.00000000000E+00  0.00000000000E+00  0.74505805969E-08  0.10566000000E+00  0.10566000000E+00 0. -1.
     999900   -1    0    0    0    0 -0.00000000000E+00 -0.00000000000E+00 -0.74505805969E-08  0.93827000000E+00  0.93827000000E+00 0.  1.
     999902    2    1    2    0    0  0.54964923712E-02  0.61168294032E-02  0.20037817607E-01  0.10222703332E+01  0.10220408470E+01 0.  0.
     999903    2    3    3    0    0 -0.10103045886E+00  0.36995326000E-01 -0.71145858774E-01  0.13063367195E+00  0.20678860286E-01 0.  0.
         14    1    1    2    0    0 -0.54964923712E-02 -0.61168294032E-02 -0.20037817607E-01  0.21659666775E-01  0.00000000000E+00 0.  1.
     999901    1    3    3    0    0  0.10652695123E+00 -0.30878496596E-01  0.91183676381E-01  0.89163666127E+00  0.88000000000E+00 0. -1.
        -11    1    4    4    0    0 -0.15546384434E-01  0.10733521651E-01 -0.20407642404E-01  0.27814232787E-01  0.51100000000E-03 0. -1.
         11    1    4    4    0    0 -0.85484074428E-01  0.26261804348E-01 -0.50738216370E-01  0.10281943916E+00  0.51100000000E-03 0.  1.
</event>
<event>
 8    1  0.1106168E+005  0.1043930E+01  0.7957747E-01            NaN
         13   -1    0    0    0    0  0.00000000000E+00  0.00000000000E+00  0.74505805969E-08  0.10566000000E+00  0.10566000000E+00 0. -1.
     999900   -1    0    0    0    0 -0.00000000000E+00 -0.00000000000E+00 -0.74505805969E-08  0.93827000000E+00  0.93827000000E+00 0.  1.
     999902    2    1    2    0    0  0.18798591180E-01 -0.60173523144E-02 -0.12580583625E-01  0.10205234487E+01  0.10202549891E+01 0.  0.
     999903    2    3    3    0    0 -0.79116916614E-01 -0.10153593529E+00 -0.40235314493E-02  0.12991440457E+00  0.17103539366E-01 0.  0.
         14    1    1    2    0    0 -0.18798591180E-01  0.60173523144E-02  0.12580583625E-01  0.23406551296E-01  0.00000000000E+00 0. -1.
     999901    1    3    3    0    0  0.97915507794E-01  0.95518582974E-01 -0.85570521753E-02  0.89060904414E+00  0.88000000000E+00 0. -1.
        -11    1    4    4    0    0 -0.62715202368E-01 -0.81300980706E-01 -0.10058481803E-01  0.10317209046E+00  0.51100000000E-03 0.  1.
         11    1    4    4    0    0 -0.16401714246E-01 -0.20234954583E-01  0.60349503541E-02  0.26742314110E-01  0.51100000000E-03 0. -1.
</event>
<event>
 8    1  0.1106168E+005  0.1043930E+01  0.7957747E-01            NaN
         13   -1    0    0    0    0  0.00000000000E+00  0.00000000000E+00  0.74505805969E-08  0.10566000000E+00  0.10566000000E+00 0. -1.
     999900   -1    0    0    0    0 -0.00000000000E+00 -0.00000000000E+00 -0.74505805969E-08  0.93827000000E+00  0.93827000000E+00 0.  1.
     999902    2    1    2    0    0  0.67667052687E-02 -0.17243326692E-01  0.14648882206E-01  0.10203141078E+01  0.10200407679E+01 0.  0.
     999903    2    3    3    0    0  0.28955608764E-01 -0.12192657664E+00  0.41373277028E-01  0.13342903995E+00  0.19673415521E-01 0.  0.
         14    1    1    2    0    0 -0.67667052687E-02  0.17243326692E-01 -0.14648882206E-01  0.23615892223E-01  0.00000000000E+00 0. -1.
     999901    1    3    3    0    0 -0.22188903496E-01  0.10468324995E+00 -0.26724394822E-01  0.88688506783E+00  0.88000000000E+00 0. -1.
        -11    1    4    4    0    0  0.90621454586E-02 -0.70043153810E-01  0.29852035738E-01  0.76678360929E-01  0.51100000000E-03 0. -1.
         11    1    4    4    0    0  0.19893463306E-01 -0.51883422834E-01  0.11521241290E-01  0.56750679019E-01  0.51100000000E-03 0.  1.
</event>
<event>
 8    1  0.1106168E+005  0.1043930E+01  0.7957747E-01            NaN
         13   -1    0    0    0    0  0.00000000000E+00  0.00000000000E+00  0.74505805969E-08  0.10566000000E+00  0.10566000000E+00 0.  1.
     999900   -1    0    0    0    0 -0.00000000000E+00 -0.00000000000E+00 -0.74505805969E-08  0.93827000000E+00  0.93827000000E+00 0.  1.
     999902    2    1    2    0    0  0.10473754623E-02 -0.24429496413E-02  0.23921034233E-01  0.10198617454E+01  0.10195777062E+01 0.  0.
     999903    2    3    3    0    0 -0.59055297419E-01  0.96807499833E-01 -0.57067000219E-01  0.12855818059E+00  0.20281595239E-01 0.  0.
         14    1    1    2    0    0 -0.10473754623E-02  0.24429496413E-02 -0.23921034233E-01  0.24068254550E-01  0.00000000000E+00 0. -1.
     999901    1    3    3    0    0  0.60102672882E-01 -0.99250449474E-01  0.80988034452E-01  0.89130356486E+00  0.88000000000E+00 0.  1.
        -11    1    4    4    0    0 -0.35279226133E-01  0.50784272305E-01 -0.41472924737E-01  0.74457576629E-01  0.51100000000E-03 0. -1.
         11    1    4    4    0    0 -0.23776071286E-01  0.46023227527E-01 -0.15594075481E-01  0.54100603961E-01  0.51100000000E-03 0.  1.
</event>
<event>
 8    1  0.1106168E+005  0.1043930E+01  0.7957747E-01            NaN
         13   -1    0    0    0    0  0.00000000000E+00  0.00000000000E+00  0.74505805969E-08  0.10566000000E+00  0.10566000000E+00 0.  1.
     999900   -1    0    0    0    0 -0.00000000000E+00 -0.00000000000E+00 -0.74505805969E-08  0.93827000000E+00  0.93827000000E+00 0. -1.
     999902    2    1    2    0    0 -0.20677506074E-01 -0.21688792231E-02 -0.93158474262E-02  0.10211473683E+01  0.10208931871E+01 0.  0.
     999903    2    3    3    0    0  0.92313970050E-01 -0.79771339021E-01 -0.39941328506E-01  0.13000925579E+00  0.20536827260E-01 0.  0.
         14    1    1    2    0    0  0.20677506074E-01  0.21688792231E-02  0.93158474262E-02  0.22782631714E-01  0.00000000000E+00 0. -1.
     999901    1    3    3    0    0 -0.11299147612E+00  0.77602459798E-01  0.30625481079E-01  0.89113811249E+00  0.88000000000E+00 0.  1.
        -11    1    4    4    0    0  0.12209120493E-01 -0.21007457678E-01 -0.61289051070E-02  0.25063928265E-01  0.51100000000E-03 0.  1.
         11    1    4    4    0    0  0.80104849558E-01 -0.58763881343E-01 -0.33812423399E-01  0.10494532753E+00  0.51100000000E-03 0. -1.
</event>
<event>
 8    1  0.1106168E+005  0.1043930E+01  0.7957747E-01            NaN
         13   -1    0    0    0    0  0.00000000000E+00  0.00000000000E+00  0.74505805969E-08  0.10566000000E+00  0.10566000000E+00 0.  1.
     999900   -1    0    0    0    0 -0.00000000000E+00 -0.00000000000E+00 -0.74505805969E-08  0.93827000000E+00  0.93827000000E+00 0. -1.
     999902    2    1    2    0    0 -0.19189727742E-01  0.97959857870E-02  0.93345060065E-02  0.10204493699E+01  0.10201791884E+01 0.  0.
     999903    2    3    3    0    0  0.82243353228E-01 -0.61512405429E-01  0.75898760773E-01  0.12926793124E+00  0.20045722427E-01 0.  0.
         14    1    1    2    0    0  0.19189727742E-01 -0.97959857870E-02 -0.93345060065E-02  0.23480630118E-01  0.00000000000E+00 0. -1.
     999901    1    3    3    0    0 -0.10143308097E+00  0.71308391216E-01 -0.66564254767E-01  0.89118143865E+00  0.88000000000E+00 0.  1.
        -11    1    4    4    0    0  0.32330637394E-01 -0.18821141094E-01  0.38503450730E-01  0.53686891375E-01  0.51100000000E-03 0.  1.
         11    1    4    4    0    0  0.49912715834E-01 -0.42691264335E-01  0.37395310043E-01  0.75581039862E-01  0.51100000000E-03 0. -1.
</event>
<event>
 8    1  0.1106168E+005  0.1043930E+01  0.7957747E-01            NaN
         13   -1    0    0    0    0  0.00000000000E+00  0.00000000000E+00  0.74505805969E-08  0.10566000000E+00  0.10566000000E+00 0. -1.
     999900   -1    0    0    0    0 -0.00000000000E+00 -0.00000000000E+00 -0.74505805969E-08  0.93827000000E+00  0.93827000000E+00 0.  1.
     999902    2    1    2    0    0  0.97333141163E-02 -0.18463059864E-01  0.11213336176E-01  0.10202369442E+01  0.10199617941E+01 0.  0.
     999903    2    3    3    0    0 -0.11694627204E+00 -0.36500006999E-01  0.40215497104E-01  0.13050992186E+00  0.20171079302E-01 0.  0.
         14    1    1    2    0    0 -0.97333141163E-02  0.18463059864E-01 -0.11213336176E-01  0.23693055763E-01  0.00000000000E+00 0.  1.
     999901    1    3    3    0    0  0.12667958616E+00  0.18036947135E-01 -0.29002160928E-01  0.88972702238E+00  0.88000000000E+00 0.  1.
        -11    1    4    4    0    0 -0.80408189820E-01 -0.29180772786E-01  0.36685415215E-01  0.93075642899E-01  0.51100000000E-03 0.  1.
         11    1    4    4    0    0 -0.36538082224E-01 -0.73192342131E-02  0.35300818889E-02  0.37434278960E-01  0.51100000000E-03 0. -1.
</event>
<event>
 8    1  0.1106168E+005  0.1043930E+01  0.7957747E-01            NaN
         13   -1    0    0    0    0  0.00000000000E+00  0.00000000000E+00  0.74505805969E-08  0.10566000000E+00  0.10566000000E+00 0. -1.
     999900   -1    0    0    0    0 -0.00000000000E+00 -0.00000000000E+00 -0.74505805969E-08  0.93827000000E+00  0.93827000000E+00 0.  1.
     999902    2    1    2    0    0  0.21113064415E-01 -0.53807201767E-02 -0.61134205071E-02  0.10213006485E+01  0.10210499141E+01 0.  0.
     999903    2    3    3    0    0 -0.45875820415E-02  0.84708850277E-01 -0.96994683216E-01  0.13167372792E+00  0.27080746419E-01 0.  0.
         14    1    1    2    0    0 -0.21113064415E-01  0.53807201767E-02  0.61134205071E-02  0.22629351491E-01  0.00000000000E+00 0.  1.
     999901    1    3    3    0    0  0.25700646457E-01 -0.90089570454E-01  0.90881262709E-01  0.88962692059E+00  0.88000000000E+00 0. -1.
        -11    1    4    4    0    0  0.25907423888E-02  0.77517101486E-01 -0.92022994690E-01  0.12034992996E+00  0.51100000000E-03 0. -1.
         11    1    4    4    0    0 -0.71783244302E-02  0.71917487911E-02 -0.49716885259E-02  0.11323797954E-01  0.51100000000E-03 0.  1.
</event>
<event>
 8    1  0.1106168E+005  0.1043930E+01  0.7957747E-01            NaN
         13   -1    0    0    0    0  0.00000000000E+00  0.00000000000E+00  0.74505805969E-08  0.10566000000E+00  0.10566000000E+00 0.  1.
     999900   -1    0    0    0    0 -0.00000000000E+00 -0.00000000000E+00 -0.74505805969E-08  0.93827000000E+00  0.93827000000E+00 0.  1.
     999902    2    1    2    0    0 -0.22584643119E-01  0.41044603021E-02 -0.43432763530E-02  0.10205681347E+01  0.10203007110E+01 0.  0.
     999903    2    3    3    0    0  0.91773426449E-01  0.39690557069E-01 -0.79423400145E-01  0.12928750365E+00  0.20235611844E-01 0.  0.
         14    1    1    2    0    0  0.22584643119E-01 -0.41044603021E-02  0.43432763530E-02  0.23361865265E-01  0.00000000000E+00 0. -1.
     999901    1    3    3    0    0 -0.11435806957E+00 -0.35586096767E-01  0.75080123792E-01  0.89128063108E+00  0.88000000000E+00 0.  1.
        -11    1    4    4    0    0  0.27316505526E-01  0.78942355973E-02 -0.33725588034E-01  0.44115607659E-01  0.51100000000E-03 0. -1.
         11    1    4    4    0    0  0.64456920923E-01  0.31796321472E-01 -0.45697812111E-01  0.85171895991E-01  0.51100000000E-03 0.  1.
</event>
<event>
 8    1  0.1106168E+005  0.1043930E+01  0.7957747E-01            NaN
         13   -1    0    0    0    0  0.00000000000E+00  0.00000000000E+00  0.74505805969E-08  0.10566000000E+00  0.10566000000E+00 0. -1.
     999900   -1    0    0    0    0 -0.00000000000E+00 -0.00000000000E+00 -0.74505805969E-08  0.93827000000E+00  0.93827000000E+00 0. -1.
     999902    2    1    2    0    0 -0.17704905200E-01  0.12725951438E-01 -0.77962260105E-02  0.10207741228E+01  0.10205114478E+01 0.  0.
     999903    2    3    3    0    0  0.73527838990E-01 -0.41715346776E-01 -0.97604685348E-01  0.12984605168E+00  0.13667818873E-01 0.  0.
         14    1    1    2    0    0  0.17704905200E-01 -0.12725951438E-01  0.77962260105E-02  0.23155877184E-01  0.00000000000E+00 0. -1.
     999901    1    3    3    0    0 -0.91232744190E-01  0.54441298214E-01  0.89808459338E-01  0.89092807113E+00  0.88000000000E+00 0. -1.
        -11    1    4    4    0    0  0.51150220810E-01 -0.27317993248E-01 -0.75811617932E-01  0.95447788756E-01  0.51100000000E-03 0. -1.
         11    1    4    4    0    0  0.22377618180E-01 -0.14397353528E-01 -0.21793067416E-01  0.34398262927E-01  0.51100000000E-03 0.  1.
</event>
<event>
 8    1  0.1106168E+005  0.1043930E+01  0.7957747E-01            NaN
         13   -1    0    0    0    0  0.00000000000E+00  0.00000000000E+00  0.74505805969E-08  0.10566000000E+00  0.10566000000E+00 0. -1.
     999900   -1    0    0    0    0 -0.00000000000E+00 -0.00000000000E+00 -0.74505805969E-08  0.93827000000E+00  0.93827000000E+00 0.  1.
     999902    2    1    2    0    0 -0.99925156534E-02 -0.16938231701E-01  0.13725117351E-01  0.10199480712E+01  0.10196660900E+01 0.  0.
     999903    2    3    3    0    0  0.17573237866E-01 -0.12010417106E+00 -0.46360064592E-01  0.13145872918E+00  0.19957737701E-01 0.  0.
         14    1    1    2    0    0  0.99925156534E-02  0.16938231701E-01 -0.13725117351E-01  0.23981928791E-01  0.00000000000E+00 0.  1.
     999901    1    3    3    0    0 -0.27565753520E-01  0.10316593936E+00  0.60085181944E-01  0.88848934203E+00  0.88000000000E+00 0. -1.
        -11    1    4    4    0    0 -0.19187243532E-02 -0.38655314523E-01 -0.89207626350E-02  0.39720976461E-01  0.51100000000E-03 0.  1.
         11    1    4    4    0    0  0.19491962219E-01 -0.81448856534E-01 -0.37439301957E-01  0.91737752719E-01  0.51100000000E-03 0. -1.
</event>
<event>
 8    1  0.1106168E+005  0.1043930E+01  0.7957747E-01            NaN
         13   -1    0    0    0    0  0.00000000000E+00  0.00000000000E+00  0.74505805969E-08  0.10566000000E+00  0.10566000000E+00 0.  1.
     999900   -1    0    0    0    0 -0.00000000000E+00 -0.00000000000E+00 -0.74505805969E-08  0.93827000000E+00  0.93827000000E+00 0.  1.
     999902    2    1    2    0    0 -0.17175394653E-01  0.25107246680E-02 -0.15775271046E-01  0.10204745721E+01  0.10202049771E+01 0.  0.
     999903    2    3    3    0    0  0.24556410193E-01 -0.65505357285E-02  0.12428998110E+00  0.12837484406E+00  0.19651320192E-01 0.  0.
         14    1    1    2    0    0  0.17175394653E-01 -0.25107246680E-02  0.15775271046E-01  0.23455427867E-01  0.00000000000E+00 0.  1.
     999901    1    3    3    0    0 -0.41731804847E-01  0.90612603965E-02 -0.14006525214E+00  0.89209972808E+00  0.88000000000E+00 0.  1.
        -11    1    4    4    0    0  0.30742306526E-02  0.47657408269E-02  0.97718305044E-02  0.11309861721E-01  0.51100000000E-03 0.  1.
         11    1    4    4    0    0  0.21482179541E-01 -0.11316276555E-01  0.11451815059E+00  0.11706498234E+00  0.51100000000E-03 0. -1.
</event>
<event>
 8    1  0.1106168E+005  0.1043930E+01  0.7957747E-01            NaN
         13   -1    0    0    0    0  0.00000000000E+00  0.00000000000E+00  0.74505805969E-08  0.10566000000E+00  0.10566000000E+00 0. -1.
     999900   -1    0    0    0    0 -0.00000000000E+00 -0.00000000000E+00 -0.74505805969E-08  0.93827000000E+00  0.93827000000E+00 0. -1.
     999902    2    1    2    0    0  0.21361185179E-01 -0.51604041262E-02  0.96880011726E-02  0.10199136021E+01  0.10196308000E+01 0.  0.
     999903    2    3    3    0    0  0.83982796558E-01  0.59292991618E-01  0.80599420818E-01  0.13249930430E+00  0.22159197466E-01 0.  0.
         14    1    1    2    0    0 -0.21361185179E-01  0.51604041262E-02 -0.96880011726E-02  0.24016397934E-01  0.00000000000E+00 0.  1.
     999901    1    3    3    0    0 -0.62621611378E-01 -0.64453395745E-01 -0.70911419645E-01  0.88741429776E+00  0.88000000000E+00 0.  1.
        -11    1    4    4    0    0  0.76917321408E-01  0.44765334429E-01  0.67706939800E-01  0.11182441736E+00  0.51100000000E-03 0. -1.
         11    1    4    4    0    0  0.70654751492E-02  0.14527657189E-01  0.12892481018E-01  0.20674886947E-01  0.51100000000E-03 0.  1.
</event>
<event>
 8    1  0.1106168E+005  0.1043930E+01  0.7957747E-01            NaN
         13   -1    0    0    0    0  0.00000000000E+00  0.00000000000E+00  0.74505805969E-08  0.10566000000E+00  0.10566000000E+00 0.  1.
     999900   -1    0    0    0    0 -0.00000000000E+00 -0.00000000000E+00 -0.74505805969E-08  0.93827000000E+00  0.93827000000E+00 0. -1.
     999902    2    1    2    0    0  0.22608950924E-02  0.22781691035E-01 -0.54007869846E-02  0.10204079764E+01  0.10201368304E+01 0.  0.
     999903    2    3    3    0    0 -0.56778129210E-01 -0.25944491688E-02  0.11500423837E+00  0.12988738429E+00  0.20353639291E-01 0.  0.
         14    1    1    2    0    0 -0.22608950924E-02 -0.22781691035E-01  0.54007869846E-02  0.23522023576E-01  0.00000000000E+00 0.  1.
     999901    1    3    3    0    0  0.59039024302E-01  0.25376140204E-01 -0.12040502535E+00  0.89052059213E+00  0.88000000000E+00 0. -1.
        -11    1    4    4    0    0 -0.19829316785E-01 -0.58992533258E-02  0.60610792036E-01  0.64046328748E-01  0.51100000000E-03 0.  1.
         11    1    4    4    0    0 -0.36948812424E-01  0.33048041570E-02  0.54393446333E-01  0.65841055543E-01  0.51100000000E-03 0. -1.
</event>
<event>
 8    1  0.1106168E+005  0.1043930E+01  0.7957747E-01            NaN
         13   -1    0    0    0    0  0.00000000000E+00  0.00000000000E+00  0.74505805969E-08  0.10566000000E+00  0.10566000000E+00 0.  1.
     999900   -1    0    0    0    0 -0.00000000000E+00 -0.00000000000E+00 -0.74505805969E-08  0.93827000000E+00  0.93827000000E+00 0. -1.
     999902    2    1    2    0    0  0.52760621131E-02 -0.21359221265E-01 -0.91107058752E-02  0.10201170177E+01  0.10198390420E+01 0.  0.
     999903    2    3    3    0    0 -0.82677527259E-03 -0.12997542929E+00  0.19876813256E-01  0.13294454206E+00  0.19618047347E-01 0.  0.
         14    1    1    2    0    0 -0.52760621131E-02  0.21359221265E-01  0.91107058752E-02  0.23812982300E-01  0.00000000000E+00 0.  1.
     999901    1    3    3    0    0  0.61028373857E-02  0.10861620803E+00 -0.28987519132E-01  0.88717247564E+00  0.88000000000E+00 0.  1.
        -11    1    4    4    0    0 -0.86712575731E-02 -0.10222201021E+00  0.14694301537E-01  0.10363741457E+00  0.51100000000E-03 0.  1.
         11    1    4    4    0    0  0.78444823005E-02 -0.27753419080E-01  0.51825117192E-02  0.29307127493E-01  0.51100000000E-03 0. -1.
</event>
<event>
 8    1  0.1106168E+005  0.1043930E+01  0.7957747E-01            NaN
         13   -1    0    0    0    0  0.00000000000E+00  0.00000000000E+00  0.74505805969E-08  0.10566000000E+00  0.10566000000E+00 0.  1.
     999900   -1    0    0    0    0 -0.00000000000E+00 -0.00000000000E+00 -0.74505805969E-08  0.93827000000E+00  0.93827000000E+00 0.  1.
     999902    2    1    2    0    0 -0.18551634355E-01  0.66129409640E-02  0.13304469587E-01  0.10201623111E+01  0.10198854043E+01 0.  0.
     999903    2    3    3    0    0  0.10963202528E+00 -0.27867009632E-01 -0.54955206134E-01  0.12759337766E+00  0.21546325625E-01 0.  0.
         14    1    1    2    0    0  0.18551634355E-01 -0.66129409640E-02 -0.13304469587E-01  0.23767688916E-01  0.00000000000E+00 0. -1.
     999901    1    3    3    0    0 -0.12818365963E+00  0.34479950596E-01  0.68259675720E-01  0.89256893343E+00  0.88000000000E+00 0. -1.
        -11    1    4    4    0    0  0.89542744829E-01 -0.17334620823E-01 -0.36094111359E-01  0.98088930192E-01  0.51100000000E-03 0. -1.
         11    1    4    4    0    0  0.20089280451E-01 -0.10532388809E-01 -0.18861094775E-01  0.29504447464E-01  0.51100000000E-03 0.  1.
</event>
<event>
 8    1  0.1106168E+005  0.1043930E+01  0.7957747E-01            NaN
         13   -1    0    0    0    0  0.00000000000E+00  0.00000000000E+00  0.74505805969E-08  0.10566000000E+00  0.10566000000E+00 0.  1.
     999900   -1    0    0    0    0 -0.00000000000E+00 -0.00000000000E+00 -0.74505805969E-08  0.93827000000E+00  0.93827000000E+00 0.  1.
     999902    2    1    2    0    0 -0.11503844524E-01  0.17749184926E-01 -0.87125852083E-02  0.10210546608E+01  0.10207983832E+01 0.  0.
     999903    2    3    3    0    0  0.90602313831E-01  0.84754656940E-01 -0.40273194918E-01  0.13206001908E+00  0.20634613280E-01 0.  0.
         14    1    1    2    0    0  0.11503844524E-01 -0.17749184926E-01  0.87125852083E-02  0.22875339241E-01  0.00000000000E+00 0. -1.
     999901    1    3    3    0    0 -0.10210615835E+00 -0.67005472014E-01  0.31560609710E-01  0.88899464168E+00  0.88000000000E+00 0. -1.
        -11    1    4    4    0    0  0.29572710803E-01  0.39146942108E-01 -0.21640351440E-01  0.53624567430E-01  0.51100000000E-03 0.  1.
         11    1    4    4    0    0  0.61029603028E-01  0.45607714832E-01 -0.18632843478E-01  0.78435451647E-01  0.51100000000E-03 0. -1.
</event>
<event>
 8    1  0.1106168E+005  0.1043930E+01  0.7957747E-01            NaN
         13   -1    0    0    0    0  0.00000000000E+00  0.00000000000E+00  0.74505805969E-08  0.10566000000E+00  0.10566000000E+00 0. -1.
     999900   -1    0    0    0    0 -0.00000000000E+00 -0.00000000000E+00 -0.74505805969E-08  0.93827000000E+00  0.93827000000E+00 0.  1.
     999902    2    1    2    0    0  0.72947862950E-02  0.20382215250E-01 -0.83139855165E-02  0.10207401108E+01  0.10204766547E+01 0.  0.
     999903    2    3    3    0    0  0.10090586520E+00  0.84844551347E-01 -0.29073093944E-02  0.13341398192E+00  0.20254545105E-01 0.  0.
         14    1    1    2    0    0 -0.72947862950E-02 -0.20382215250E-01  0.83139855165E-02  0.23189889192E-01  0.00000000000E+00 0. -1.
     999901    1    3    3    0    0 -0.93611078905E-01 -0.64462336098E-01 -0.54066761221E-02  0.88732612889E+00  0.88000000000E+00 0. -1.
        -11    1    4    4    0    0  0.54754044002E-02  0.55487672930E-05  0.13125437203E-02  0.56536692645E-02  0.51100000000E-03 0.  1.
         11    1    4    4    0    0  0.95430460800E-01  0.84839002580E-01 -0.42198531148E-02  0.12776031265E+00  0.51100000000E-03 0. -1.
</event>
<event>
 8    1  0.1106168E+005  0.1043930E+01  0.7957747E-01            NaN
         13   -1    0    0    0    0  0.00000000000E+00  0.00000000000E+00  0.74505805969E-08  0.10566000000E+00  0.10566000000E+00 0. -1.
     999900   -1    0    0    0    0 -0.00000000000E+00 -0.00000000000E+00 -0.74505805969E-08  0.93827000000E+00  0.93827000000E+00 0. -1.
     999902    2    1    2    0    0 -0.76897147203E-02  0.39613274286E-02  0.21743825187E-01  0.10205287658E+01  0.10202604295E+01 0.  0.
     999903    2    3    3    0    0  0.40637396382E-01 -0.64381643683E-01  0.10658565814E+00  0.13249475296E+00  0.19949010326E-01 0.  0.
         14    1    1    2    0    0  0.76897147203E-02 -0.39613274286E-02 -0.21743825187E-01  0.23401234182E-01  0.00000000000E+00 0.  1.
     999901    1    3    3    0    0 -0.48327111102E-01  0.68342971111E-01 -0.84841832955E-01  0.88803401285E+00  0.88000000000E+00 0. -1.
        -11    1    4    4    0    0  0.56163320786E-02 -0.83131290352E-02  0.28298953185E-01  0.30029038824E-01  0.51100000000E-03 0. -1.
         11    1    4    4    0    0  0.35021064304E-01 -0.56068514647E-01  0.78286704958E-01  0.10246571414E+00  0.51100000000E-03 0.  1.
</event>
<event>
 8    1  0.1106168E+005  0.1043930E+01  0.7957747E-01            NaN
         13   -1    0    0    0    0  0.00000000000E+00  0.00000000000E+00  0.74505805969E-08  0.10566000000E+00  0.10566000000E+00 0. -1.
     999900   -1    0    0    0    0 -0.00000000000E+00 -0.00000000000E+00 -0.74505805969E-08  0.93827000000E+00  0.93827000000E+00 0.  1.
     999902    2    1    2    0    0 -0.75821791359E-02  0.13009257342E-01 -0.17834239543E-01  0.10205892563E+01  0.10203223215E+01 0.  0.
     999903    2    3    3    0    0  0.40379667802E-01 -0.11476527788E+00  0.35382625305E-01  0.12848012321E+00  0.21298481338E-01 0.  0.
         14    1    1    2    0    0  0.75821791359E-02 -0.13009257342E-01  0.17834239543E-01  0.23340743714E-01  0.00000000000E+00 0. -1.
     999901    1    3    3    0    0 -0.47961846938E-01  0.12777453523E+00 -0.53216864847E-01  0.89210913308E+00  0.88000000000E+00 0.  1.
        -11    1    4    4    0    0  0.43485397723E-02 -0.31811205651E-01  0.16440509231E-01  0.36075117018E-01  0.51100000000E-03 0. -1.
         11    1    4    4    0    0  0.36031128029E-01 -0.82954072232E-01  0.18942116074E-01  0.92405006192E-01  0.51100000000E-03 0.  1.
</event>
<event>
 8    1  0.1106168E+005  0.1043930E+01  0.7957747E-01            NaN
         13   -1    0    0    0    0  0.00000000000E+00  0.00000000000E+00  0.74505805969E-08  0.10566000000E+00  0.10566000000E+00 0.  1.
     999900   -1    0    0    0    0 -0.00000000000E+00 -0.00000000000E+00 -0.74505805969E-08  0.93827000000E+00  0.93827000000E+00 0. -1.
     999902    2    1    2    0    0 -0.10459761211E-01 -0.56749347166E-02  0.20347366500E-01  0.10203582624E+01  0.10200859556E+01 0.  0.
     999903    2    3    3    0    0  0.85115354681E-01  0.22241997376E-01  0.95730601216E-01  0.13154073900E+00  0.19982191029E-01 0.  0.
         14    1    1    2    0    0  0.10459761211E-01  0.56749347166E-02 -0.20347366500E-01  0.23571737571E-01  0.00000000000E+00 0. -1.
     999901    1    3    3    0    0 -0.95575115892E-01 -0.27916932093E-01 -0.75383234716E-01  0.88881752343E+00  0.88000000000E+00 0. -1.
        -11    1    4    4    0    0  0.51545485539E-01  0.18479817255E-01  0.71040000798E-01  0.89696062119E-01  0.51100000000E-03 0.  1.
         11    1    4    4    0    0  0.33569869142E-01  0.37621801212E-02  0.24690600418E-01  0.41844676883E-01  0.51100000000E-03 0. -1.
</event>
<event>
 8    1  0.1106168E+005  0.1043930E+01  0.7957747E-01            NaN
         13   -1    0    0    0    0  0.00000000000E+00  0.00000000000E+00  0.74505805969E-08  0.10566000000E+00  0.10566000000E+00 0. -1.
     999900   -1    0    0    0    0 -0.00000000000E+00 -0.00000000000E+00 -0.74505805969E-08  0.93827000000E+00  0.93827000000E+00 0.  1.
     999902    2    1    2    0    0  0.11647236257E-01  0.19644825876E-01 -0.33474189429E-02  0.10208479180E+01  0.10205869337E+01 0.  0.
     999903    2    3    3    0    0  0.13037290924E+00 -0.90788702535E-02 -0.76138778397E-02  0.13240037378E+00  0.19808243082E-01 0.  0.
         14    1    1    2    0    0 -0.11647236257E-01 -0.19644825876E-01  0.33474189429E-02  0.23082082005E-01  0.00000000000E+00 0. -1.
     999901    1    3    3    0    0 -0.11872567298E+00  0.28723696129E-01  0.42664588968E-02  0.88844754421E+00  0.88000000000E+00 0. -1.
        -11    1    4    4    0    0  0.50384826288E-01 -0.11669750403E-01 -0.81966257360E-02  0.52366588480E-01  0.51100000000E-03 0. -1.
         11    1    4    4    0    0  0.79988082950E-01  0.25908801494E-02  0.58274789630E-03  0.80033785304E-01  0.51100000000E-03 0.  1.
</event>
<event>
 8    1  0.1106168E+005  0.1043930E+01  0.7957747E-01            NaN
         13   -1    0    0    0    0  0.00000000000E+00  0.00000000000E+00  0.74505805969E-08  0.10566000000E+00  0.10566000000E+00 0. -1.
     999900   -1    0    0    0    0 -0.00000000000E+00 -0.00000000000E+00 -0.74505805969E-08  0.93827000000E+00  0.93827000000E+00 0.  1.
     999902    2    1    2    0    0 -0.11929704277E-01 -0.12579260140E-01 -0.16201774595E-01  0.10202012594E+01  0.10199252701E+01 0.  0.
     999903    2    3    3    0    0  0.83924635595E-01 -0.73329335232E-01 -0.66724622639E-01  0.13147678902E+00  0.20333099127E-01 0.  0.
         14    1    1    2    0    0  0.11929704277E-01  0.12579260140E-01  0.16201774595E-01  0.23728740587E-01  0.00000000000E+00 0. -1.
     999901    1    3    3    0    0 -0.95854339872E-01  0.60750075093E-01  0.50522848044E-01  0.88872447039E+00  0.88000000000E+00 0.  1.
        -11    1    4    4    0    0  0.65890348871E-01 -0.45623470050E-01 -0.44980311010E-01  0.91904997651E-01  0.51100000000E-03 0.  1.
         11    1    4    4    0    0  0.18034286724E-01 -0.27705865182E-01 -0.21744311629E-01  0.39571791372E-01  0.51100000000E-03 0. -1.
</event>
<event>
 8    1  0.1106168E+005  0.1043930E+01  0.7957747E-01            NaN
         13   -1    0    0    0    0  0.00000000000E+00  0.00000000000E+00  0.74505805969E-08  0.10566000000E+00  0.10566000000E+00 0. -1.
     999900   -1    0    0    0    0 -0.00000000000E+00 -0.00000000000E+00 -0.74505805969E-08  0.93827000000E+00  0.93827000000E+00 0.  1.
     999902    2    1    2    0    0 -0.14192800988E-01 -0.15899494827E-01 -0.93999073445E-02  0.10206364860E+01  0.10203706429E+01 0.  0.
     999903    2    3    3    0    0  0.92919888833E-02 -0.23493103161E-01 -0.12823200485E+00  0.13230644282E+00  0.20573788961E-01 0.  0.
         14    1    1    2    0    0  0.14192800988E-01  0.15899494827E-01  0.93999073445E-02  0.23293513984E-01  0.00000000000E+00 0. -1.
     999901    1    3    3    0    0 -0.23484789871E-01  0.75936083339E-02  0.11883209750E+00  0.88833004319E+00  0.88000000000E+00 0. -1.
        -11    1    4    4    0    0  0.79786361558E-02 -0.15918517472E-01 -0.11879791347E+00  0.12012603048E+00  0.51100000000E-03 0.  1.
         11    1    4    4    0    0  0.13133527274E-02 -0.75745856886E-02 -0.94340913786E-02  0.12180412344E-01  0.51100000000E-03 0. -1.
</event>
<event>
 8    1  0.1106168E+005  0.1043930E+01  0.7957747E-01            NaN
         13   -1    0    0    0    0  0.00000000000E+00  0.00000000000E+00  0.74505805969E-08  0.10566000000E+00  0.10566000000E+00 0.  1.
     999900   -1    0    0    0    0 -0.00000000000E+00 -0.00000000000E+00 -0.74505805969E-08  0.93827000000E+00  0.93827000000E+00 0. -1.
     999902    2    1    2    0    0  0.23586174490E-01  0.24109473969E-01  0.67013395985E-02  0.10095427594E+01  0.10089569370E+01 0.  0.
     999903    2    3    3    0    0  0.43387149260E-01  0.11268567703E+00 -0.21981134341E-01  0.12440971481E+00  0.20349455617E-01 0.  0.
         14    1    1    2    0    0 -0.23586174490E-01 -0.24109473969E-01 -0.67013395985E-02  0.34387240577E-01  0.00000000000E+00 0. -1.
     999901    1    3    3    0    0 -0.19800974771E-01 -0.88576203062E-01  0.28682473940E-01  0.88513304461E+00  0.88000000000E+00 0.  1.
        -11    1    4    4    0    0  0.27257165573E-01  0.90366530834E-01 -0.21766907782E-01  0.96866518289E-01  0.51100000000E-03 0.  1.
         11    1    4    4    0    0  0.16129983687E-01  0.22319146197E-01 -0.21422655957E-03  0.27543196523E-01  0.51100000000E-03 0. -1.
</event>
<event>
 8    1  0.1106168E+005  0.1043930E+01  0.7957747E-01            NaN
         13   -1    0    0    0    0  0.00000000000E+00  0.00000000000E+00  0.74505805969E-08  0.10566000000E+00  0.10566000000E+00 0. -1.
     999900   -1    0    0    0    0 -0.00000000000E+00 -0.00000000000E+00 -0.74505805969E-08  0.93827000000E+00  0.93827000000E+00 0.  1.
     999902    2    1    2    0    0  0.18833930863E-01 -0.52884953178E-02  0.12802576365E-01  0.10205507122E+01  0.10202828849E+01 0.  0.
     999903    2    3    3    0    0  0.10463958591E+00  0.67236787841E-01 -0.39615322343E-01  0.13186057319E+00  0.18644259734E-01 0.  0.
         14    1    1    2    0    0 -0.18833930863E-01  0.52884953178E-02 -0.12802576365E-01  0.23379287758E-01  0.00000000000E+00 0. -1.
     999901    1    3    3    0    0 -0.85805655043E-01 -0.72525283159E-01  0.52417898708E-01  0.88869013905E+00  0.88000000000E+00 0. -1.
        -11    1    4    4    0    0  0.25599206438E-01  0.17680496814E-01 -0.17129405555E-02  0.31162712080E-01  0.51100000000E-03 0.  1.
         11    1    4    4    0    0  0.79040379468E-01  0.49556291028E-01 -0.37902381787E-01  0.10069786111E+00  0.51100000000E-03 0. -1.
</event>
<event>
 8    1  0.1106168E+005  0.1043930E+01  0.7957747E-01            NaN
         13   -1    0    0    0    0  0.00000000000E+00  0.00000000000E+00  0.74505805969E-08  0.10566000000E+00  0.10566000000E+00 0.  1.
     999900   -1    0    0    0    0 -0.00000000000E+00 -0.00000000000E+00 -0.74505805969E-08  0.93827000000E+00  0.93827000000E+00 0.  1.
     999902    2    1    2    0    0 -0.20086252570E-01  0.11080666507E-01  0.68588499735E-02  0.10199866808E+01  0.10197056175E+01 0.  0.
     999903    2    3    3    0    0  0.10306444333E+00  0.25390845369E-01 -0.68557769754E-01  0.12810185545E+00  0.21046212690E-01 0.  0.
         14    1    1    2    0    0  0.20086252570E-01 -0.11080666507E-01 -0.68588499735E-02  0.23943319225E-01  0.00000000000E+00 0. -1.
     999901    1    3    3    0    0 -0.12315069590E+00 -0.14310178862E-01  0.75416619727E-01  0.89188482533E+00  0.88000000000E+00 0. -1.
        -11    1    4    4    0    0  0.90287896288E-01  0.14939015163E-01 -0.55331647810E-01  0.10694358681E+00  0.51100000000E-03 0.  1.
         11    1    4    4    0    0  0.12776547038E-01  0.10451830207E-01 -0.13226121944E-01  0.21158268633E-01  0.51100000000E-03 0. -1.
</event>
<event>
 8    1  0.1106168E+005  0.1043930E+01  0.7957747E-01            NaN
         13   -1    0    0    0    0  0.00000000000E+00  0.00000000000E+00  0.74505805969E-08  0.10566000000E+00  0.10566000000E+00 0.  1.
     999900   -1    0    0    0    0 -0.00000000000E+00 -0.00000000000E+00 -0.74505805969E-08  0.93827000000E+00  0.93827000000E+00 0.  1.
     999902    2    1    2    0    0  0.23861449915E-01 -0.66114037973E-02  0.24178968150E-03  0.10191683782E+01  0.10188675307E+01 0.  0.
     999903    2    3    3    0    0 -0.48116570801E-01  0.57718400030E-01 -0.10193329250E+00  0.12801243979E+00  0.18712844120E-01 0.  0.
         14    1    1    2    0    0 -0.23861449915E-01  0.66114037973E-02 -0.24178968150E-03  0.24761621806E-01  0.00000000000E+00 0.  1.
     999901    1    3    3    0    0  0.71978020716E-01 -0.64329803827E-01  0.10217508218E+00  0.89115593840E+00  0.88000000000E+00 0. -1.
        -11    1    4    4    0    0 -0.23303841065E-01  0.15662702803E-01 -0.44560751493E-01  0.52671728300E-01  0.51100000000E-03 0. -1.
         11    1    4    4    0    0 -0.24812729737E-01  0.42055697227E-01 -0.57372541005E-01  0.75340711495E-01  0.51100000000E-03 0.  1.
</event>
<event>
 8    1  0.1106168E+005  0.1043930E+01  0.7957747E-01            NaN
         13   -1    0    0    0    0  0.00000000000E+00  0.00000000000E+00  0.74505805969E-08  0.10566000000E+00  0.10566000000E+00 0. -1.
     999900   -1    0    0    0    0 -0.00000000000E+00 -0.00000000000E+00 -0.74505805969E-08  0.93827000000E+00  0.93827000000E+00 0. -1.
     999902    2    1    2    0    0 -0.16457015716E-02  0.20145346794E-01 -0.11661713771E-01  0.10205946427E+01  0.10203278325E+01 0.  0.
     999903    2    3    3    0    0 -0.43283204624E-01 -0.53502654948E-02  0.12021692294E+00  0.12942929178E+00  0.19944218870E-01 0.  0.
         14    1    1    2    0    0  0.16457015716E-02 -0.20145346794E-01  0.11661713771E-01  0.23335357276E-01  0.00000000000E+00 0. -1.
     999901    1    3    3    0    0  0.41637503052E-01  0.25495612288E-01 -0.13187863671E+00  0.89116535095E+00  0.88000000000E+00 0. -1.
        -11    1    4    4    0    0 -0.13055692156E-02  0.75665807722E-03  0.26614285444E-01  0.26661927033E-01  0.51100000000E-03 0.  1.
         11    1    4    4    0    0 -0.41977635408E-01 -0.61069235720E-02  0.93602637494E-01  0.10276736475E+00  0.51100000000E-03 0. -1.
</event>
<event>
 8    1  0.1106168E+005  0.1043930E+01  0.7957747E-01            NaN
         13   -1    0    0    0    0  0.00000000000E+00  0.00000000000E+00  0.74505805969E-08  0.10566000000E+00  0.10566000000E+00 0. -1.
     999900   -1    0    0    0    0 -0.00000000000E+00 -0.00000000000E+00 -0.74505805969E-08  0.93827000000E+00  0.93827000000E+00 0.  1.
     999902    2    1    2    0    0 -0.15543918883E-01  0.15868971811E-01 -0.89192055611E-02  0.10199927924E+01  0.10197118743E+01 0.  0.
     999903    2    3    3    0    0 -0.99483454504E-02  0.13060349000E+00 -0.47029371015E-02  0.13251710425E+00  0.19555667354E-01 0.  0.
         14    1    1    2    0    0  0.15543918883E-01 -0.15868971811E-01  0.89192055611E-02  0.23937207615E-01  0.00000000000E+00 0. -1.
     999901    1    3    3    0    0 -0.55955734324E-02 -0.11473451819E+00 -0.42162684596E-02  0.88747568813E+00  0.88000000000E+00 0. -1.
        -11    1    4    4    0    0 -0.62469725159E-02  0.23871621081E-01 -0.71375215017E-02  0.25692105652E-01  0.51100000000E-03 0.  1.
         11    1    4    4    0    0 -0.37013729345E-02  0.10673186892E+00  0.24345844002E-02  0.10682499860E+00  0.51100000000E-03 0. -1.
</event>
<event>
 8    1  0.1106168E+005  0.1043930E+01  0.7957747E-01            NaN
         13   -1    0    0    0    0  0.00000000000E+00  0.00000000000E+00  0.74505805969E-08  0.10566000000E+00  0.10566000000E+00 0.  1.
     999900   -1    0    0    0    0 -0.00000000000E+00 -0.00000000000E+00 -0.74505805969E-08  0.93827000000E+00  0.93827000000E+00 0. -1.
     999902    2    1    2    0    0 -0.49950350713E-02  0.59865564019E-02  0.22626662156E-01  0.10199976981E+01  0.10197168965E+01 0.  0.
     999903    2    3    3    0    0  0.66141690069E-01  0.10630085177E+00 -0.28795259008E-01  0.12995971832E+00  0.19640956996E-01 0.  0.
         14    1    1    2    0    0  0.49950350713E-02 -0.59865564019E-02 -0.22626662156E-01  0.23932301880E-01  0.00000000000E+00 0. -1.
     999901    1    3    3    0    0 -0.71136725140E-01 -0.10031429537E+00  0.51421921165E-01  0.89003797980E+00  0.88000000000E+00 0.  1.
        -11    1    4    4    0    0  0.40489766656E-01  0.77290927182E-01 -0.26380706134E-01  0.91156521465E-01  0.51100000000E-03 0.  1.
         11    1    4    4    0    0  0.25651923413E-01  0.29009924585E-01 -0.24145528744E-02  0.38803196850E-01  0.51100000000E-03 0. -1.
</event>
<event>
 8    1  0.1106168E+005  0.1043930E+01  0.7957747E-01            NaN
         13   -1    0    0    0    0  0.00000000000E+00  0.00000000000E+00  0.74505805969E-08  0.10566000000E+00  0.10566000000E+00 0. -1.
     999900   -1    0    0    0    0 -0.00000000000E+00 -0.00000000000E+00 -0.74505805969E-08  0.93827000000E+00  0.93827000000E+00 0. -1.
     999902    2    1    2    0    0 -0.21620879452E-01 -0.87593036608E-02  0.45790871584E-02  0.10201569929E+01  0.10198799607E+01 0.  0.
     999903    2    3    3    0    0  0.80797378929E-01  0.68231751706E-01 -0.68821156447E-01  0.12785395129E+00  0.20651704576E-01 0.  0.
         14    1    1    2    0    0  0.21620879452E-01  0.87593036608E-02 -0.45790871584E-02  0.23773007132E-01  0.00000000000E+00 0.  1.
     999901    1    3    3    0    0 -0.10241825838E+00 -0.76991055367E-01  0.73400243606E-01  0.89230304158E+00  0.88000000000E+00 0. -1.
        -11    1    4    4    0    0  0.29147453733E-01  0.33149964801E-01 -0.37876848810E-01  0.58167095700E-01  0.51100000000E-03 0.  1.
         11    1    4    4    0    0  0.51649925196E-01  0.35081786905E-01 -0.30944307637E-01  0.69686855585E-01  0.51100000000E-03 0. -1.
</event>
<event>
 8    1  0.1106168E+005  0.1043930E+01  0.7957747E-01            NaN
         13   -1    0    0    0    0  0.00000000000E+00  0.00000000000E+00  0.74505805969E-08  0.10566000000E+00  0.10566000000E+00 0.  1.
     999900   -1    0    0    0    0 -0.00000000000E+00 -0.00000000000E+00 -0.74505805969E-08  0.93827000000E+00  0.93827000000E+00 0. -1.
     999902    2    1    2    0    0  0.84650749149E-02  0.22187982696E-01 -0.45448684852E-02  0.10197510857E+01  0.10194643970E+01 0.  0.
     999903    2    3    3    0    0  0.69079610469E-01  0.76193730059E-01 -0.81441661666E-01  0.13267506892E+00  0.19810415799E-01 0.  0.
         14    1    1    2    0    0 -0.84650749149E-02 -0.22187982696E-01  0.45448684852E-02  0.24178914346E-01  0.00000000000E+00 0.  1.
     999901    1    3    3    0    0 -0.60614535555E-01 -0.54005747364E-01  0.76896793181E-01  0.88707601674E+00  0.88000000000E+00 0.  1.
        -11    1    4    4    0    0  0.36038222513E-01  0.27041052729E-01 -0.29141552379E-01  0.53660629987E-01  0.51100000000E-03 0.  1.
         11    1    4    4    0    0  0.33041387956E-01  0.49152677330E-01 -0.52300109288E-01  0.79014438929E-01  0.51100000000E-03 0. -1.
</event>
<event>
 8    1  0.1106168E+005  0.1043930E+01  0.7957747E-01            NaN
         13   -1    0    0    0    0  0.00000000000E+00  0.00000000000E+00  0.74505805969E-08  0.10566000000E+00  0.10566000000E+00 0. -1.
     999900   -1    0    0    0    0 -0.00000000000E+00 -0.00000000000E+00 -0.74505805969E-08  0.93827000000E+00  0.93827000000E+00 0.  1.
     999902    2    1    2    0    0 -0.69211764054E-02  0.16773427878E-01 -0.12130261538E-01  0.10221035525E+01  0.10218704802E+01 0.  0.
     999903    2    3    3    0    0 -0.30478657537E-01 -0.46428969796E-01  0.11654699969E+00  0.13019137322E+00  0.16792638932E-01 0.  0.
         14    1    1    2    0    0  0.69211764054E-02 -0.16773427878E-01  0.12130261538E-01  0.21826447503E-01  0.00000000000E+00 0. -1.
     999901    1    3    3    0    0  0.23557481131E-01  0.63202397675E-01 -0.12867726123E+00  0.89191217928E+00  0.88000000000E+00 0.  1.
        -11    1    4    4    0    0 -0.24287043052E-01 -0.22754964314E-01  0.73182333400E-01  0.80396292850E-01  0.51100000000E-03 0.  1.
         11    1    4    4    0    0 -0.61916144847E-02 -0.23674005482E-01  0.43364666289E-01  0.49795080368E-01  0.51100000000E-03 0. -1.
</event>
<event>
 8    1  0.1106168E+005  0.1043930E+01  0.7957747E-01            NaN
         13   -1    0    0    0    0  0.00000000000E+00  0.00000000000E+00  0.74505805969E-08  0.10566000000E+00  0.10566000000E+00 0. -1.
     999900   -1    0    0    0    0 -0.00000000000E+00 -0.00000000000E+00 -0.74505805969E-08  0.93827000000E+00  0.93827000000E+00 0.  1.
     999902    2    1    2    0    0 -0.20266538898E-01  0.69318303245E-02 -0.12063582605E-01  0.10193472236E+01  0.10190507590E+01 0.  0.
     999903    2    3    3    0    0  0.82134674268E-01  0.35109172484E-01 -0.92493246238E-01  0.12931975106E+00  0.13778196743E-01 0.  0.
         14    1    1    2    0    0  0.20266538898E-01 -0.69318303245E-02  0.12063582605E-01  0.24582776406E-01  0.00000000000E+00 0. -1.
     999901    1    3    3    0    0 -0.10240121317E+00 -0.28177342160E-01  0.80429663632E-01  0.89002747253E+00  0.88000000000E+00 0.  1.
        -11    1    4    4    0    0  0.36076399687E-01  0.10497560782E-01 -0.31582370141E-01  0.49085768014E-01  0.51100000000E-03 0.  1.
         11    1    4    4    0    0  0.46058274581E-01  0.24611611702E-01 -0.60910876097E-01  0.80233983048E-01  0.51100000000E-03 0. -1.
</event>
<event>
 8    1  0.1106168E+005  0.1043930E+01  0.7957747E-01            NaN
         13   -1    0    0    0    0  0.00000000000E+00  0.00000000000E+00  0.74505805969E-08  0.10566000000E+00  0.10566000000E+00 0. -1.
     999900   -1    0    0    0    0 -0.00000000000E+00 -0.00000000000E+00 -0.74505805969E-08  0.93827000000E+00  0.93827000000E+00 0.  1.
     999902    2    1    2    0    0 -0.29295587765E-02 -0.22503659507E-01 -0.93300711547E-02  0.10193933492E+01  0.10190980096E+01 0.  0.
     999903    2    3    3    0    0 -0.87376382295E-01 -0.85303470452E-01  0.44399399948E-01  0.13149586730E+00  0.20212425576E-01 0.  0.
         14    1    1    2    0    0  0.29295587765E-02  0.22503659507E-01  0.93300711547E-02  0.24536650822E-01  0.00000000000E+00 0.  1.
     999901    1    3    3    0    0  0.84446823518E-01  0.62799810945E-01 -0.53729471103E-01  0.88789748188E+00  0.88000000000E+00 0.  1.
        -11    1    4    4    0    0 -0.60986634749E-01 -0.46777677725E-01  0.23878256049E-01  0.80485731557E-01  0.51100000000E-03 0. -1.
         11    1    4    4    0    0 -0.26389747546E-01 -0.38525792727E-01  0.20521143899E-01  0.51010135745E-01  0.51100000000E-03 0.  1.
</event>
<event>
 8    1  0.1106168E+005  0.1043930E+01  0.7957747E-01            NaN
         13   -1    0    0    0    0  0.00000000000E+00  0.00000000000E+00  0.74505805969E-08  0.10566000000E+00  0.10566000000E+00 0. -1.
     999900   -1    0    0    0    0 -0.00000000000E+00 -0.00000000000E+00 -0.74505805969E-08  0.93827000000E+00  0.93827000000E+00 0.  1.
     999902    2    1    2    0    0  0.65356270406E-02 -0.18927838101E-01  0.44555863997E-03  0.10239006216E+01  0.10237046971E+01 0.  0.
     999903    2    3    3    0    0  0.18370251682E-01  0.70384864676E-01  0.10958595531E+00  0.13259346726E+00  0.16746660478E-01 0.  0.
         14    1    1    2    0    0 -0.65356270406E-02  0.18927838101E-01 -0.44555863997E-03  0.20029378385E-01  0.00000000000E+00 0.  1.
     999901    1    3    3    0    0 -0.11834624641E-01 -0.89312702777E-01 -0.10914039667E+00  0.89130715435E+00  0.88000000000E+00 0.  1.
        -11    1    4    4    0    0 -0.70799150564E-03  0.21781432894E-01  0.40505129339E-01  0.45998464046E-01  0.51100000000E-03 0.  1.
         11    1    4    4    0    0  0.19078243187E-01  0.48603431782E-01  0.69080825970E-01  0.86595003215E-01  0.51100000000E-03 0. -1.
</event>
<event>
 8    1  0.1106168E+005  0.1043930E+01  0.7957747E-01            NaN
         13   -1    0    0    0    0  0.00000000000E+00  0.00000000000E+00  0.74505805969E-08  0.10566000000E+00  0.10566000000E+00 0. -1.
     999900   -1    0    0    0    0 -0.00000000000E+00 -0.00000000000E+00 -0.74505805969E-08  0.93827000000E+00  0.93827000000E+00 0. -1.
     999902    2    1    2    0    0  0.21819885414E-02  0.29381151292E-02 -0.23532261756E-01  0.10201148591E+01  0.10198368324E+01 0.  0.
     999903    2    3    3    0    0 -0.58141833589E-01  0.69903560069E-01 -0.93914038355E-01  0.13271589084E+00  0.22949521928E-01 0.  0.
         14    1    1    2    0    0 -0.21819885414E-02 -0.29381151292E-02  0.23532261756E-01  0.23815140938E-01  0.00000000000E+00 0. -1.
     999901    1    3    3    0    0  0.60323822130E-01 -0.66965444940E-01  0.70381776599E-01  0.88739896823E+00  0.88000000000E+00 0.  1.
        -11    1    4    4    0    0 -0.24513587530E-01  0.39815630974E-01 -0.34510416127E-01  0.58115663858E-01  0.51100000000E-03 0.  1.
         11    1    4    4    0    0 -0.33628246059E-01  0.30087929095E-01 -0.59403622228E-01  0.74600226978E-01  0.51100000000E-03 0. -1.
</event>
<event>
 8    1  0.1106168E+005  0.1043930E+01  0.7957747E-01            NaN
         13   -1    0    0    0    0  0.00000000000E+00  0.00000000000E+00  0.74505805969E-08  0.10566000000E+00  0.10566000000E+00 0. -1.
     999900   -1    0    0    0    0 -0.00000000000E+00 -0.00000000000E+00 -0.74505805969E-08  0.93827000000E+00  0.93827000000E+00 0. -1.
     999902    2    1    2    0    0  0.36816407861E-03 -0.57063759554E-02 -0.23664585736E-01  0.10195843456E+01  0.10192936411E+01 0.  0.
     999903    2    3    3    0    0 -0.73148403796E-02 -0.77412272036E-01 -0.10581413435E+00  0.13282095412E+00  0.19965171496E-01 0.  0.
         14    1    1    2    0    0 -0.36816407861E-03  0.57063759554E-02  0.23664585736E-01  0.24345654425E-01  0.00000000000E+00 0. -1.
     999901    1    3    3    0    0  0.76830044582E-02  0.71705896080E-01  0.82149548616E-01  0.88676339146E+00  0.88000000000E+00 0.  1.
        -11    1    4    4    0    0 -0.82257692123E-03 -0.86359973525E-02 -0.25192633939E-01  0.26649334116E-01  0.51100000000E-03 0.  1.
         11    1    4    4    0    0 -0.64922634583E-02 -0.68776274683E-01 -0.80621500413E-01  0.10617162000E+00  0.51100000000E-03 0. -1.
</event>
<event>
 8    1  0.1106168E+005  0.1043930E+01  0.7957747E-01            NaN
         13   -1    0    0    0    0  0.00000000000E+00  0.00000000000E+00  0.74505805969E-08  0.10566000000E+00  0.10566000000E+00 0.  1.
     999900   -1    0    0    0    0 -0.00000000000E+00 -0.00000000000E+00 -0.74505805969E-08  0.93827000000E+00  0.93827000000E+00 0.  1.
     999902    2    1    2    0    0 -0.17902446439E-01 -0.80815900096E-02 -0.12400904543E-01  0.10207008778E+01  0.10204365192E+01 0.  0.
     999903    2    3    3    0    0 -0.14545907799E-01 -0.12867166110E+00 -0.20098868013E-01  0.13243712740E+00  0.19174160047E-01 0.  0.
         14    1    1    2    0    0  0.17902446439E-01  0.80815900096E-02  0.12400904543E-01  0.23229122219E-01  0.00000000000E+00 0.  1.
     999901    1    3    3    0    0 -0.33565386398E-02  0.12059007109E+00  0.76979634700E-02  0.88826375038E+00  0.88000000000E+00 0. -1.
        -11    1    4    4    0    0 -0.16073943984E-01 -0.65900668565E-01 -0.61343819866E-02  0.68111390794E-01  0.51100000000E-03 0.  1.
         11    1    4    4    0    0  0.15280361843E-02 -0.62770992539E-01 -0.13964486027E-01  0.64325736606E-01  0.51100000000E-03 0. -1.
</event>
<event>
 8    1  0.1106168E+005  0.1043930E+01  0.7957747E-01            NaN
         13   -1    0    0    0    0  0.00000000000E+00  0.00000000000E+00  0.74505805969E-08  0.10566000000E+00  0.10566000000E+00 0. -1.
     999900   -1    0    0    0    0 -0.00000000000E+00 -0.00000000000E+00 -0.74505805969E-08  0.93827000000E+00  0.93827000000E+00 0. -1.
     999902    2    1    2    0    0  0.21489030292E-01  0.79061609236E-02 -0.59493412745E-02  0.10202724332E+01  0.10199981165E+01 0.  0.
     999903    2    3    3    0    0  0.70679170270E-01  0.74464427812E-01  0.81821808456E-01  0.13204191840E+00  0.14133780703E-01 0.  0.
         14    1    1    2    0    0 -0.21489030292E-01 -0.79061609236E-02  0.59493412745E-02  0.23657566761E-01  0.00000000000E+00 0.  1.
     999901    1    3    3    0    0 -0.49190139978E-01 -0.66558266888E-01 -0.87771149730E-01  0.88823051484E+00  0.88000000000E+00 0.  1.
        -11    1    4    4    0    0  0.15000688396E-01  0.15323498025E-01  0.10217184240E-01  0.23758834544E-01  0.51100000000E-03 0.  1.
         11    1    4    4    0    0  0.55678481874E-01  0.59140929787E-01  0.71604624216E-01  0.10828308386E+00  0.51100000000E-03 0. -1.
</event>
<event>
 8    1  0.1106168E+005  0.1043930E+01  0.7957747E-01            NaN
         13   -1    0    0    0    0  0.00000000000E+00  0.00000000000E+00  0.74505805969E-08  0.10566000000E+00  0.10566000000E+00 0.  1.
     999900   -1    0    0    0    0 -0.00000000000E+00 -0.00000000000E+00 -0.74505805969E-08  0.93827000000E+00  0.93827000000E+00 0.  1.
     999902    2    1    2    0    0 -0.12355012386E-01 -0.17936800050E-01 -0.87403606586E-02  0.10204615311E+01  0.10201916327E+01 0.  0.
     999903    2    3    3    0    0 -0.11986636076E+00 -0.33574305023E-01  0.43188698592E-01  0.13226118841E+00  0.11514333442E-01 0.  0.
         14    1    1    2    0    0  0.12355012386E-01  0.17936800050E-01  0.87403606586E-02  0.23468468879E-01  0.00000000000E+00 0. -1.
     999901    1    3    3    0    0  0.10751134837E+00  0.15637504973E-01 -0.51929059251E-01  0.88820034271E+00  0.88000000000E+00 0.  1.
        -11    1    4    4    0    0 -0.57063554601E-01 -0.20436563110E-01  0.25006754755E-01  0.65570582427E-01  0.51100000000E-03 0. -1.
         11    1    4    4    0    0 -0.62802806160E-01 -0.13137741913E-01  0.18181943837E-01  0.66690605986E-01  0.51100000000E-03 0.  1.
</event>
<event>
 8    1  0.1106168E+005  0.1043930E+01  0.7957747E-01            NaN
         13   -1    0    0    0    0  0.00000000000E+00  0.00000000000E+00  0.74505805969E-08  0.10566000000E+00  0.10566000000E+00 0.  1.
     999900   -1    0    0    0    0 -0.00000000000E+00 -0.00000000000E+00 -0.74505805969E-08  0.93827000000E+00  0.93827000000E+00 0.  1.
     999902    2    1    2    0    0 -0.14664591069E-02 -0.14970710497E-01 -0.17883011797E-01  0.10205617569E+01  0.10202941854E+01 0.  0.
     999903    2    3    3    0    0  0.12876763206E+00  0.84971697669E-03  0.61364974767E-02  0.13051224071E+00  0.20346087767E-01 0.  0.
         14    1    1    2    0    0  0.14664591069E-02  0.14970710497E-01  0.17883011797E-01  0.23368243109E-01  0.00000000000E+00 0.  1.
     999901    1    3    3    0    0 -0.13023409117E+00 -0.15820427473E-01 -0.24019509274E-01  0.89004951618E+00  0.88000000000E+00 0. -1.
        -11    1    4    4    0    0  0.45012800938E-01 -0.12064116559E-02 -0.74257568623E-02  0.45640011650E-01  0.51100000000E-03 0. -1.
         11    1    4    4    0    0  0.83754831125E-01  0.20561286325E-02  0.13562254339E-01  0.84872229060E-01  0.51100000000E-03 0.  1.
</event>
<event>
 8    1  0.1106168E+005  0.1043930E+01  0.7957747E-01            NaN
         13   -1    0    0    0    0  0.00000000000E+00  0.00000000000E+00  0.74505805969E-08  0.10566000000E+00  0.10566000000E+00 0. -1.
     999900   -1    0    0    0    0 -0.00000000000E+00 -0.00000000000E+00 -0.74505805969E-08  0.93827000000E+00  0.93827000000E+00 0.  1.
     999902    2    1    2    0    0 -0.11222700388E-02  0.20663926859E-01 -0.11502054032E-01  0.10202539655E+01  0.10199792152E+01 0.  0.
     999903    2    3    3    0    0 -0.90587629319E-01  0.94135682906E-01  0.87490113803E-02  0.13244077844E+00  0.19909023373E-01 0.  0.
         14    1    1    2    0    0  0.11222700388E-02 -0.20663926859E-01  0.11502054032E-01  0.23676034512E-01  0.00000000000E+00 0.  1.
     999901    1    3    3    0    0  0.89465359280E-01 -0.73471756047E-01 -0.20251065413E-01  0.88781318705E+00  0.88000000000E+00 0. -1.
        -11    1    4    4    0    0 -0.19209372600E-01  0.28268456652E-01  0.88717209654E-02  0.35313937631E-01  0.51100000000E-03 0. -1.
         11    1    4    4    0    0 -0.71378256719E-01  0.65867226254E-01 -0.12270958513E-03  0.97126840807E-01  0.51100000000E-03 0.  1.
</event>
<event>
 8    1  0.1106168E+005  0.1043930E+01  0.7957747E-01            NaN
         13   -1    0    0    0    0  0.00000000000E+00  0.00000000000E+00  0.74505805969E-08  0.10566000000E+00  0.10566000000E+00 0. -1.
     999900   -1    0    0    0    0 -0.00000000000E+00 -0.00000000000E+00 -0.74505805969E-08  0.93827000000E+00  0.93827000000E+00 0.  1.
     999902    2    1    2    0    0  0.21320624353E-02 -0.14135313296E-01 -0.18748754601E-01  0.10203531348E+01  0.10200807082E+01 0.  0.
     999903    2    3    3    0    0 -0.12161820880E+00 -0.35691989776E-01 -0.28547432887E-01  0.13137910032E+00  0.19509106347E-01 0.  0.
         14    1    1    2    0    0 -0.21320624353E-02  0.14135313296E-01  0.18748754601E-01  0.23576865171E-01  0.00000000000E+00 0. -1.
     999901    1    3    3    0    0  0.12375027124E+00  0.21556676480E-01  0.97986782865E-02  0.88897403451E+00  0.88000000000E+00 0.  1.
        -11    1    4    4    0    0 -0.21056434351E-01 -0.91915275102E-02  0.17839651973E-02  0.23049973067E-01  0.51100000000E-03 0. -1.
         11    1    4    4    0    0 -0.10056177445E+00 -0.26500462266E-01 -0.30331398085E-01  0.10832912726E+00  0.51100000000E-03 0.  1.
</event>
<event>
 8    1  0.1106168E+005  0.1043930E+01  0.7957747E-01            NaN
         13   -1    0    0    0    0  0.00000000000E+00  0.00000000000E+00  0.74505805969E-08  0.10566000000E+00  0.10566000000E+00 0. -1.
     999900   -1    0    0    0    0 -0.00000000000E+00 -0.00000000000E+00 -0.74505805969E-08  0.93827000000E+00  0.93827000000E+00 0. -1.
     999902    2    1    2    0    0  0.15182382471E-01 -0.13777914922E-01 -0.12675396856E-01  0.10198260302E+01  0.10195411372E+01 0.  0.
     999903    2    3    3    0    0 -0.23071943998E-01 -0.12762649536E+00 -0.10427445738E-01  0.13166503909E+00  0.20152269721E-01 0.  0.
         14    1    1    2    0    0 -0.15182382471E-01  0.13777914922E-01  0.12675396856E-01  0.24103969850E-01  0.00000000000E+00 0.  1.
     999901    1    3    3    0    0  0.38254326469E-01  0.11384858044E+00 -0.22479511180E-02  0.88816099106E+00  0.88000000000E+00 0.  1.
        -11    1    4    4    0    0 -0.94647489088E-02 -0.47362021132E-01 -0.13640610621E-01  0.50190336686E-01  0.51100000000E-03 0. -1.
         11    1    4    4    0    0 -0.13607195089E-01 -0.80264474230E-01  0.32131648835E-02  0.81474702401E-01  0.51100000000E-03 0.  1.
</event>
<event>
 8    1  0.1106168E+005  0.1043930E+01  0.7957747E-01            NaN
         13   -1    0    0    0    0  0.00000000000E+00  0.00000000000E+00  0.74505805969E-08  0.10566000000E+00  0.10566000000E+00 0.  1.
     999900   -1    0    0    0    0 -0.00000000000E+00 -0.00000000000E+00 -0.74505805969E-08  0.93827000000E+00  0.93827000000E+00 0. -1.
     999902    2    1    2    0    0 -0.20162688080E-01 -0.64578740934E-02  0.10321196966E-01  0.10203765452E+01  0.10201046655E+01 0.  0.
     999903    2    3    3    0    0  0.80894480032E-01 -0.77122801724E-01 -0.61467375814E-01  0.12888359375E+00  0.18463450447E-01 0.  0.
         14    1    1    2    0    0  0.20162688080E-01  0.64578740934E-02 -0.10321196966E-01  0.23553454847E-01  0.00000000000E+00 0. -1.
     999901    1    3    3    0    0 -0.10105716811E+00  0.70664927631E-01  0.71788572780E-01  0.89149295141E+00  0.88000000000E+00 0.  1.
        -11    1    4    4    0    0  0.31740778563E-01 -0.42664177256E-01 -0.31166174192E-01  0.61638466719E-01  0.51100000000E-03 0.  1.
         11    1    4    4    0    0  0.49153701468E-01 -0.34458624468E-01 -0.30301201622E-01  0.67245127028E-01  0.51100000000E-03 0. -1.
</event>
<event>
 8    1  0.1106168E+005  0.1043930E+01  0.7957747E-01            NaN
         13   -1    0    0    0    0  0.00000000000E+00  0.00000000000E+00  0.74505805969E-08  0.10566000000E+00  0.10566000000E+00 0. -1.
     999900   -1    0    0    0    0 -0.00000000000E+00 -0.00000000000E+00 -0.74505805969E-08  0.93827000000E+00  0.93827000000E+00 0. -1.
     999902    2    1    2    0    0 -0.20517403347E-01 -0.63416686982E-02  0.13281781943E-01  0.10186795281E+01  0.10183665325E+01 0.  0.
     999903    2    3    3    0    0 -0.74114673489E-01 -0.92338790360E-01  0.54395646595E-01  0.13191094372E+00  0.20546865255E-01 0.  0.
         14    1    1    2    0    0  0.20517403347E-01  0.63416686982E-02 -0.13281781943E-01  0.25250471947E-01  0.00000000000E+00 0.  1.
     999901    1    3    3    0    0  0.53597270142E-01  0.85997121662E-01 -0.41113864653E-01  0.88676858434E+00  0.88000000000E+00 0.  1.
        -11    1    4    4    0    0 -0.20214544523E-01 -0.25073823309E-01  0.51000407053E-02  0.32612818980E-01  0.51100000000E-03 0.  1.
         11    1    4    4    0    0 -0.53900128966E-01 -0.67264967051E-01  0.49295605890E-01  0.99298124735E-01  0.51100000000E-03 0. -1.
</event>
<event>
 8    1  0.1106168E+005  0.1043930E+01  0.7957747E-01            NaN
         13   -1    0    0    0    0  0.00000000000E+00  0.00000000000E+00  0.74505805969E-08  0.10566000000E+00  0.10566000000E+00 0.  1.
     999900   -1    0    0    0    0 -0.00000000000E+00 -0.00000000000E+00 -0.74505805969E-08  0.93827000000E+00  0.93827000000E+00 0.  1.
     999902    2    1    2    0    0 -0.10573229232E-01 -0.21284387355E-01  0.35509789576E-02  0.10199002731E+01  0.10196171533E+01 0.  0.
     999903    2    3    3    0    0 -0.11461010284E+00  0.58084536368E-01 -0.60072211003E-02  0.13017309231E+00  0.19991453607E-01 0.  0.
         14    1    1    2    0    0  0.10573229232E-01  0.21284387355E-01 -0.35509789576E-02  0.24029726861E-01  0.00000000000E+00 0.  1.
     999901    1    3    3    0    0  0.10403687361E+00 -0.79368923723E-01  0.95582000579E-02  0.88972718083E+00  0.88000000000E+00 0. -1.
        -11    1    4    4    0    0 -0.93620275121E-01  0.39974164012E-01  0.17171778117E-04  0.10179858112E+00  0.51100000000E-03 0.  1.
         11    1    4    4    0    0 -0.20989827719E-01  0.18110372356E-01 -0.60243928784E-02  0.28374511187E-01  0.51100000000E-03 0. -1.
</event>
<event>
 8    1  0.1106168E+005  0.1043930E+01  0.7957747E-01            NaN
         13   -1    0    0    0    0  0.00000000000E+00  0.00000000000E+00  0.74505805969E-08  0.10566000000E+00  0.10566000000E+00 0.  1.
     999900   -1    0    0    0    0 -0.00000000000E+00 -0.00000000000E+00 -0.74505805969E-08  0.93827000000E+00  0.93827000000E+00 0. -1.
     999902    2    1    2    0    0  0.21591734589E-01 -0.89187758808E-02 -0.64358744775E-02  0.10196984494E+01  0.10194104961E+01 0.  0.
     999903    2    3    3    0    0 -0.26952066297E-01  0.11650380534E+00  0.41264640053E-01  0.12820382596E+00  0.20830264902E-01 0.  0.
         14    1    1    2    0    0 -0.21591734589E-01  0.89187758808E-02  0.64358744775E-02  0.24231550633E-01  0.00000000000E+00 0. -1.
     999901    1    3    3    0    0  0.48543800886E-01 -0.12542258122E+00 -0.47700514531E-01  0.89149462341E+00  0.88000000000E+00 0. -1.
        -11    1    4    4    0    0 -0.92481620479E-02  0.68188543537E-01  0.32106021253E-01  0.75935918330E-01  0.51100000000E-03 0. -1.
         11    1    4    4    0    0 -0.17703904249E-01  0.48315261799E-01  0.91586188002E-02  0.52267907627E-01  0.51100000000E-03 0.  1.
</event>
<event>
 8    1  0.1106168E+005  0.1043930E+01  0.7957747E-01            NaN
         13   -1    0    0    0    0  0.00000000000E+00  0.00000000000E+00  0.74505805969E-08  0.10566000000E+00  0.10566000000E+00 0.  1.
     999900   -1    0    0    0    0 -0.00000000000E+00 -0.00000000000E+00 -0.74505805969E-08  0.93827000000E+00  0.93827000000E+00 0. -1.
     999902    2    1    2    0    0 -0.12302289257E-01  0.18811708020E-01 -0.71896631847E-02  0.10203308912E+01  0.10200579442E+01 0.  0.
     999903    2    3    3    0    0 -0.12674640876E+00  0.30517388730E-01  0.13792643140E-01  0.13259515539E+00  0.19881526090E-01 0.  0.
         14    1    1    2    0    0  0.12302289257E-01 -0.18811708020E-01  0.71896631847E-02  0.23599108803E-01  0.00000000000E+00 0. -1.
     999901    1    3    3    0    0  0.11444411950E+00 -0.11705680709E-01 -0.20982306324E-01  0.88773573581E+00  0.88000000000E+00 0. -1.
        -11    1    4    4    0    0 -0.92744939521E-01  0.20594672639E-01  0.18715476592E-01  0.96831268364E-01  0.51100000000E-03 0.  1.
         11    1    4    4    0    0 -0.34001469239E-01  0.99227160903E-02 -0.49228334524E-02  0.35763887026E-01  0.51100000000E-03 0. -1.
</event>
<event>
 8    1  0.1106168E+005  0.1043930E+01  0.7957747E-01            NaN
         13   -1    0    0    0    0  0.00000000000E+00  0.00000000000E+00  0.74505805969E-08  0.10566000000E+00  0.10566000000E+00 0.  1.
     999900   -1    0    0    0    0 -0.00000000000E+00 -0.00000000000E+00 -0.74505805969E-08  0.93827000000E+00  0.93827000000E+00 0. -1.
     999902    2    1    2    0    0 -0.19044390874E-01  0.60678876579E-02  0.11575308439E-02  0.10239088122E+01  0.10237130495E+01 0.  0.
     999903    2    3    3    0    0  0.11212674926E+00 -0.14645807470E-01 -0.64124743153E-01  0.13155422992E+00  0.20189728806E-01 0.  0.
         14    1    1    2    0    0  0.19044390874E-01 -0.60678876579E-02 -0.11575308439E-02  0.20021187828E-01  0.00000000000E+00 0. -1.
     999901    1    3    3    0    0 -0.13117114013E+00  0.20713695128E-01  0.65282273997E-01  0.89235458225E+00  0.88000000000E+00 0.  1.
        -11    1    4    4    0    0  0.46138819225E-01 -0.16021794724E-01 -0.26088330865E-01  0.55374639267E-01  0.51100000000E-03 0.  1.
         11    1    4    4    0    0  0.65987930034E-01  0.13759872540E-02 -0.38036412288E-01  0.76179590652E-01  0.51100000000E-03 0. -1.
</event>
<event>
 8    1  0.1106168E+005  0.1043930E+01  0.7957747E-01            NaN
         13   -1    0    0    0    0  0.00000000000E+00  0.00000000000E+00  0.74505805969E-08  0.10566000000E+00  0.10566000000E+00 0. -1.
     999900   -1    0    0    0    0 -0.00000000000E+00 -0.00000000000E+00 -0.74505805969E-08  0.93827000000E+00  0.93827000000E+00 0.  1.
     999902    2    1    2    0    0 -0.22300824476E-01  0.44521651946E-02  0.80799212863E-02  0.10197963373E+01  0.10195107336E+01 0.  0.
     999903    2    3    3    0    0  0.86155326603E-01  0.88424807763E-01  0.31063958493E-01  0.12887411434E+00  0.20046967322E-01 0.  0.
         14    1    1    2    0    0  0.22300824476E-01 -0.44521651946E-02 -0.80799212863E-02  0.24133662698E-01  0.00000000000E+00 0.  1.
     999901    1    3    3    0    0 -0.10845615108E+00 -0.83972642568E-01 -0.22984037206E-01  0.89092222297E+00  0.88000000000E+00 0.  1.
        -11    1    4    4    0    0  0.17793822619E-01  0.14599575570E-01  0.13640719542E-01  0.26760008984E-01  0.51100000000E-03 0.  1.
         11    1    4    4    0    0  0.68361503984E-01  0.73825232193E-01  0.17423238950E-01  0.10211410535E+00  0.51100000000E-03 0. -1.
</event>
<event>
 8    1  0.1106168E+005  0.1043930E+01  0.7957747E-01            NaN
         13   -1    0    0    0    0  0.00000000000E+00  0.00000000000E+00  0.74505805969E-08  0.10566000000E+00  0.10566000000E+00 0.  1.
     999900   -1    0    0    0    0 -0.00000000000E+00 -0.00000000000E+00 -0.74505805969E-08  0.93827000000E+00  0.93827000000E+00 0.  1.
     999902    2    1    2    0    0 -0.14510226994E-01  0.22564678497E-01  0.27790044997E-02  0.10169590106E+01  0.10166012960E+01 0.  0.
     999903    2    3    3    0    0  0.18588013100E-01 -0.10179549362E+00 -0.66211868014E-01  0.12492723628E+00  0.22692865556E-01 0.  0.
         14    1    1    2    0    0  0.14510226994E-01 -0.22564678497E-01 -0.27790044997E-02  0.26970989398E-01  0.00000000000E+00 0.  1.
     999901    1    3    3    0    0 -0.33098240095E-01  0.12436017212E+00  0.68990872513E-01  0.89203177432E+00  0.88000000000E+00 0.  1.
        -11    1    4    4    0    0 -0.21772695714E-02 -0.11800639066E-01 -0.13934520724E-02  0.12091253650E-01  0.51100000000E-03 0.  1.
         11    1    4    4    0    0  0.20765282672E-01 -0.89994854552E-01 -0.64818415941E-01  0.11283598263E+00  0.51100000000E-03 0. -1.
</event>
<event>
 8    1  0.1106168E+005  0.1043930E+01  0.7957747E-01            NaN
         13   -1    0    0    0    0  0.00000000000E+00  0.00000000000E+00  0.74505805969E-08  0.10566000000E+00  0.10566000000E+00 0. -1.
     999900   -1    0    0    0    0 -0.00000000000E+00 -0.00000000000E+00 -0.74505805969E-08  0.93827000000E+00  0.93827000000E+00 0. -1.
     999902    2    1    2    0    0 -0.13420363702E-01  0.14315854378E-01 -0.17635868425E-01  0.10175467913E+01  0.10172046985E+01 0.  0.
     999903    2    3    3    0    0 -0.58379622767E-01  0.47111305168E-01  0.10190475020E+00  0.12772274344E+00  0.17345479245E-01 0.  0.
         14    1    1    2    0    0  0.13420363702E-01 -0.14315854378E-01  0.17635868425E-01  0.26383208743E-01  0.00000000000E+00 0. -1.
     999901    1    3    3    0    0  0.44959259065E-01 -0.32795450790E-01 -0.11954061862E+00  0.88982404781E+00  0.88000000000E+00 0. -1.
        -11    1    4    4    0    0 -0.34789162566E-01  0.32891968620E-01  0.51763053828E-01  0.70511291964E-01  0.51100000000E-03 0.  1.
         11    1    4    4    0    0 -0.23590460201E-01  0.14219336548E-01  0.50141696371E-01  0.57211451479E-01  0.51100000000E-03 0. -1.
</event>
<event>
 8    1  0.1106168E+005  0.1043930E+01  0.7957747E-01            NaN
         13   -1    0    0    0    0  0.00000000000E+00  0.00000000000E+00  0.74505805969E-08  0.10566000000E+00  0.10566000000E+00 0.  1.
     999900   -1    0    0    0    0 -0.00000000000E+00 -0.00000000000E+00 -0.74505805969E-08  0.93827000000E+00  0.93827000000E+00 0. -1.
     999902    2    1    2    0    0 -0.11303829597E-01 -0.60375996487E-02 -0.19127476248E-01  0.10209063270E+01  0.10206466768E+01 0.  0.
     999903    2    3    3    0    0  0.66819592300E-01  0.53615534313E-01  0.92935161690E-01  0.12837072527E+00  0.22419085486E-01 0.  0.
         14    1    1    2    0    0  0.11303829597E-01  0.60375996487E-02  0.19127476248E-01  0.23023673049E-01  0.00000000000E+00 0.  1.
     999901    1    3    3    0    0 -0.78123421896E-01 -0.59653133962E-01 -0.11206263794E+00  0.89253560168E+00  0.88000000000E+00 0. -1.
        -11    1    4    4    0    0  0.32727711899E-01  0.13439524658E-01  0.30898626335E-01  0.46975633892E-01  0.51100000000E-03 0.  1.
         11    1    4    4    0    0  0.34091880401E-01  0.40176009656E-01  0.62036535355E-01  0.81395091381E-01  0.51100000000E-03 0. -1.
</event>
<event>
 8    1  0.1106168E+005  0.1043930E+01  0.7957747E-01            NaN
         13   -1    0    0    0    0  0.00000000000E+00  0.00000000000E+00  0.74505805969E-08  0.10566000000E+00  0.10566000000E+00 0.  1.
     999900   -1    0    0    0    0 -0.00000000000E+00 -0.00000000000E+00 -0.74505805969E-08  0.93827000000E+00  0.93827000000E+00 0. -1.
     999902    2    1    2    0    0 -0.67547639020E-02  0.42346116086E-02 -0.21663909562E-01  0.10208457251E+01  0.10205846906E+01 0.  0.
     999903    2    3    3    0    0  0.84087983478E-01 -0.83033854913E-02 -0.10026666770E+00  0.13259576043E+00  0.19710298205E-01 0.  0.
         14    1    1    2    0    0  0.67547639020E-02 -0.42346116086E-02  0.21663909562E-01  0.23084274915E-01  0.00000000000E+00 0.  1.
     999901    1    3    3    0    0 -0.90842747380E-01  0.12537997100E-01  0.78602758143E-01  0.88824996466E+00  0.88000000000E+00 0.  1.
        -11    1    4    4    0    0  0.74819584086E-01 -0.13372592916E-01 -0.90678532748E-01  0.11832013280E+00  0.51100000000E-03 0.  1.
         11    1    4    4    0    0  0.92683993921E-02  0.50692074244E-02 -0.95881349570E-02  0.14275627627E-01  0.51100000000E-03 0. -1.
</event>
<event>
 8    1  0.1106168E+005  0.1043930E+01  0.7957747E-01            NaN
         13   -1    0    0    0    0  0.00000000000E+00  0.00000000000E+00  0.74505805969E-08  0.10566000000E+00  0.10566000000E+00 0.  1.
     999900   -1    0    0    0    0 -0.00000000000E+00 -0.00000000000E+00 -0.74505805969E-08  0.93827000000E+00  0.93827000000E+00 0.  1.
     999902    2    1    2    0    0  0.21564475698E-01 -0.10197572109E-01 -0.34501093791E-02  0.10198277108E+01  0.10195428581E+01 0.  0.
     999903    2    3    3    0    0 -0.45536323059E-01 -0.11995065655E+00  0.10653264285E-01  0.13036317421E+00  0.20477998542E-01 0.  0.
         14    1    1    2    0    0 -0.21564475698E-01  0.10197572109E-01  0.34501093791E-02  0.24102289181E-01  0.00000000000E+00 0.  1.
     999901    1    3    3    0    0  0.67100798757E-01  0.10975308444E+00 -0.14103373664E-01  0.88946453661E+00  0.88000000000E+00 0.  1.
        -11    1    4    4    0    0 -0.15301168857E-01 -0.45095174495E-01  0.13758628162E-01  0.49570772649E-01  0.51100000000E-03 0. -1.
         11    1    4    4    0    0 -0.30235154202E-01 -0.74855482059E-01 -0.31053638769E-02  0.80792401559E-01  0.51100000000E-03 0.  1.
</event>
<event>
 8    1  0.1106168E+005  0.1043930E+01  0.7957747E-01            NaN
         13   -1    0    0    0    0  0.00000000000E+00  0.00000000000E+00  0.74505805969E-08  0.10566000000E+00  0.10566000000E+00 0. -1.
     999900   -1    0    0    0    0 -0.00000000000E+00 -0.00000000000E+00 -0.74505805969E-08  0.93827000000E+00  0.93827000000E+00 0.  1.
     999902    2    1    2    0    0 -0.18133177522E-01 -0.45968393317E-02 -0.14393403376E-01  0.10203267562E+01  0.10200537124E+01 0.  0.
     999903    2    3    3    0    0  0.10500570914E+00 -0.69824070654E-01  0.17084004383E-01  0.12880636699E+00  0.19940340415E-01 0.  0.
         14    1    1    2    0    0  0.18133177522E-01  0.45968393317E-02  0.14393403376E-01  0.23603243837E-01  0.00000000000E+00 0. -1.
     999901    1    3    3    0    0 -0.12313888666E+00  0.65227231322E-01 -0.31477407759E-01  0.89152038917E+00  0.88000000000E+00 0. -1.
        -11    1    4    4    0    0  0.87359362756E-01 -0.57557936817E-01  0.21639609171E-01  0.10683214946E+00  0.51100000000E-03 0.  1.
         11    1    4    4    0    0  0.17646346387E-01 -0.12266133838E-01 -0.45556047879E-02  0.21974217531E-01  0.51100000000E-03 0. -1.
</event>
<event>
 8    1  0.1106168E+005  0.1043930E+01  0.7957747E-01            NaN
         13   -1    0    0    0    0  0.00000000000E+00  0.00000000000E+00  0.74505805969E-08  0.10566000000E+00  0.10566000000E+00 0. -1.
     999900   -1    0    0    0    0 -0.00000000000E+00 -0.00000000000E+00 -0.74505805969E-08  0.93827000000E+00  0.93827000000E+00 0. -1.
     999902    2    1    2    0    0  0.27326847459E-02 -0.20626615191E-01 -0.12409775464E-01  0.10197034165E+01  0.10194155827E+01 0.  0.
     999903    2    3    3    0    0  0.96959525505E-01  0.65181202055E-01  0.48960408878E-01  0.12840774249E+00  0.21016374700E-01 0.  0.
         14    1    1    2    0    0 -0.27326847459E-02  0.20626615191E-01  0.12409775464E-01  0.24226583483E-01  0.00000000000E+00 0. -1.
     999901    1    3    3    0    0 -0.94226840759E-01 -0.85807817247E-01 -0.61370184342E-01  0.89129567403E+00  0.88000000000E+00 0. -1.
        -11    1    4    4    0    0  0.31857770483E-01  0.33006557047E-01  0.15246961803E-01  0.48343368867E-01  0.51100000000E-03 0.  1.
         11    1    4    4    0    0  0.65101755022E-01  0.32174645008E-01  0.33713447075E-01  0.80064373619E-01  0.51100000000E-03 0. -1.
</event>
<event>
 8    1  0.1106168E+005  0.1043930E+01  0.7957747E-01            NaN
         13   -1    0    0    0    0  0.00000000000E+00  0.00000000000E+00  0.74505805969E-08  0.10566000000E+00  0.10566000000E+00 0.  1.
     999900   -1    0    0    0    0 -0.00000000000E+00 -0.00000000000E+00 -0.74505805969E-08  0.93827000000E+00  0.93827000000E+00 0. -1.
     999902    2    1    2    0    0  0.99262274801E-02  0.11814880495E-02 -0.23748568773E-01  0.10181633467E+01  0.10178372562E+01 0.  0.
     999903    2    3    3    0    0  0.52840966450E-01 -0.61855749323E-01  0.95211991559E-01  0.12689067063E+00  0.20435691707E-01 0.  0.
         14    1    1    2    0    0 -0.99262274801E-02 -0.11814880495E-02  0.23748568773E-01  0.25766653348E-01  0.00000000000E+00 0.  1.
     999901    1    3    3    0    0 -0.42914738970E-01  0.63037237373E-01 -0.11896056033E+00  0.89127267603E+00  0.88000000000E+00 0. -1.
        -11    1    4    4    0    0  0.58907782366E-03 -0.10717039166E-01  0.13162177365E-01  0.16991350010E-01  0.51100000000E-03 0. -1.
         11    1    4    4    0    0  0.52251888627E-01 -0.51138710157E-01  0.82049814194E-01  0.10989932062E+00  0.51100000000E-03 0.  1.
</event>
<event>
 8    1  0.1106168E+005  0.1043930E+01  0.7957747E-01            NaN
         13   -1    0    0    0    0  0.00000000000E+00  0.00000000000E+00  0.74505805969E-08  0.10566000000E+00  0.10566000000E+00 0.  1.
     999900   -1    0    0    0    0 -0.00000000000E+00 -0.00000000000E+00 -0.74505805969E-08  0.93827000000E+00  0.93827000000E+00 0.  1.
     999902    2    1    2    0    0 -0.19306438669E-01 -0.14578661819E-03  0.12577935613E-01  0.10208873376E+01  0.10206272540E+01 0.  0.
     999903    2    3    3    0    0  0.90982520716E-02  0.38534037656E-01 -0.12159953193E+00  0.12942418742E+00  0.19912907303E-01 0.  0.
         14    1    1    2    0    0  0.19306438669E-01  0.14578661819E-03 -0.12577935613E-01  0.23042662436E-01  0.00000000000E+00 0. -1.
     999901    1    3    3    0    0 -0.28404690741E-01 -0.38679824275E-01  0.13417746754E+00  0.89146315014E+00  0.88000000000E+00 0. -1.
        -11    1    4    4    0    0  0.71454865177E-02  0.29929856066E-01 -0.62484695808E-01  0.69652369615E-01  0.51100000000E-03 0. -1.
         11    1    4    4    0    0  0.19527655539E-02  0.86041815899E-02 -0.59114836117E-01  0.59771817810E-01  0.51100000000E-03 0.  1.
</event>
<event>
 8    1  0.1106168E+005  0.1043930E+01  0.7957747E-01            NaN
         13   -1    0    0    0    0  0.00000000000E+00  0.00000000000E+00  0.74505805969E-08  0.10566000000E+00  0.10566000000E+00 0. -1.
     999900   -1    0    0    0    0 -0.00000000000E+00 -0.00000000000E+00 -0.74505805969E-08  0.93827000000E+00  0.93827000000E+00 0. -1.
     999902    2    1    2    0    0  0.23381759423E-02 -0.21198677097E-01  0.11812955028E-01  0.10195497440E+01  0.10192582026E+01 0.  0.
     999903    2    3    3    0    0  0.50248316832E-02  0.89698975749E-01  0.90697581202E-01  0.12908453310E+00  0.19120937913E-01 0.  0.
         14    1    1    2    0    0 -0.23381759423E-02  0.21198677097E-01 -0.11812955028E-01  0.24380256026E-01  0.00000000000E+00 0.  1.
     999901    1    3    3    0    0 -0.26866557410E-02 -0.11089765285E+00 -0.78884626174E-01  0.89046521087E+00  0.88000000000E+00 0.  1.
        -11    1    4    4    0    0  0.56075087774E-02  0.55370774884E-01  0.43096256340E-01  0.70391159228E-01  0.51100000000E-03 0. -1.
         11    1    4    4    0    0 -0.58267709411E-03  0.34328200865E-01  0.47601324862E-01  0.58693373875E-01  0.51100000000E-03 0.  1.
</event>
<event>
 8    1  0.1106168E+005  0.1043930E+01  0.7957747E-01            NaN
         13   -1    0    0    0    0  0.00000000000E+00  0.00000000000E+00  0.74505805969E-08  0.10566000000E+00  0.10566000000E+00 0.  1.
     999900   -1    0    0    0    0 -0.00000000000E+00 -0.00000000000E+00 -0.74505805969E-08  0.93827000000E+00  0.93827000000E+00 0. -1.
     999902    2    1    2    0    0 -0.18459446262E-01  0.14931925573E-01  0.55944698887E-02  0.10195371393E+01  0.10192452928E+01 0.  0.
     999903    2    3    3    0    0  0.86739266128E-01  0.86852823899E-01 -0.35917758948E-01  0.12938959548E+00  0.19607873495E-01 0.  0.
         14    1    1    2    0    0  0.18459446262E-01 -0.14931925573E-01 -0.55944698887E-02  0.24392860655E-01  0.00000000000E+00 0.  1.
     999901    1    3    3    0    0 -0.10519871239E+00 -0.71920898326E-01  0.41512228836E-01  0.89014754386E+00  0.88000000000E+00 0.  1.
        -11    1    4    4    0    0  0.13379564558E-01  0.50288638062E-02 -0.58682525873E-02  0.15459616049E-01  0.51100000000E-03 0.  1.
         11    1    4    4    0    0  0.73359701570E-01  0.81823960093E-01 -0.30049506360E-01  0.11392997943E+00  0.51100000000E-03 0. -1.
</event>
<event>
 8    1  0.1106168E+005  0.1043930E+01  0.7957747E-01            NaN
         13   -1    0    0    0    0  0.00000000000E+00  0.00000000000E+00  0.74505805969E-08  0.10566000000E+00  0.10566000000E+00 0. -1.
     999900   -1    0    0    0    0 -0.00000000000E+00 -0.00000000000E+00 -0.74505805969E-08  0.93827000000E+00  0.93827000000E+00 0.  1.
     999902    2    1    2    0    0 -0.17361784966E-01  0.15786094642E-01 -0.38683406668E-03  0.10204612548E+01  0.10201913500E+01 0.  0.
     999903    2    3    3    0    0 -0.35078585890E-01  0.10889583219E+00  0.64982196344E-01  0.13296115992E+00  0.19161804403E-01 0.  0.
         14    1    1    2    0    0  0.17361784966E-01 -0.15786094642E-01  0.38683406668E-03  0.23468745213E-01  0.00000000000E+00 0.  1.
     999901    1    3    3    0    0  0.17716800924E-01 -0.93109737547E-01 -0.65369030410E-01  0.88750009487E+00  0.88000000000E+00 0.  1.
        -11    1    4    4    0    0 -0.18619530202E-01  0.31833795991E-01  0.25349663152E-01  0.44754262535E-01  0.51100000000E-03 0. -1.
         11    1    4    4    0    0 -0.16459055688E-01  0.77062036198E-01  0.39632533192E-01  0.88206897380E-01  0.51100000000E-03 0.  1.
</event>
<event>
 8    1  0.1106168E+005  0.1043930E+01  0.7957747E-01            NaN
         13   -1    0    0    0    0  0.00000000000E+00  0.00000000000E+00  0.74505805969E-08  0.10566000000E+00  0.10566000000E+00 0.  1.
     999900   -1    0    0    0    0 -0.00000000000E+00 -0.00000000000E+00 -0.74505805969E-08  0.93827000000E+00  0.93827000000E+00 0.  1.
     999902    2    1    2    0    0  0.27956626903E-01  0.28875987251E-02  0.31964118001E-02  0.10156434615E+01  0.10152494829E+01 0.  0.
     999903    2    3    3    0    0 -0.78127124689E-01 -0.25570518824E-01 -0.90397746071E-01  0.12389041650E+00  0.20478861318E-01 0.  0.
         14    1    1    2    0    0 -0.27956626903E-01 -0.28875987251E-02 -0.31964118001E-02  0.28286538540E-01  0.00000000000E+00 0. -1.
     999901    1    3    3    0    0  0.10608375159E+00  0.28458117549E-01  0.93594157871E-01  0.89175304496E+00  0.88000000000E+00 0. -1.
        -11    1    4    4    0    0 -0.70676962924E-01 -0.17024420233E-01 -0.83028141666E-01  0.11035849492E+00  0.51100000000E-03 0. -1.
         11    1    4    4    0    0 -0.74501617650E-02 -0.85460985919E-02 -0.73696044049E-02  0.13531921576E-01  0.51100000000E-03 0.  1.
</event>
<event>
 8    1  0.1106168E+005  0.1043930E+01  0.7957747E-01            NaN
         13   -1    0    0    0    0  0.00000000000E+00  0.00000000000E+00  0.74505805969E-08  0.10566000000E+00  0.10566000000E+00 0.  1.
     999900   -1    0    0    0    0 -0.00000000000E+00 -0.00000000000E+00 -0.74505805969E-08  0.93827000000E+00  0.93827000000E+00 0.  1.
     999902    2    1    2    0    0  0.16394471623E-01  0.14236615799E-01 -0.79535040635E-02  0.10208060264E+01  0.10205440830E+01 0.  0.
     999903    2    3    3    0    0  0.83127104978E-01 -0.24651842326E-01  0.96291963593E-01  0.13129342160E+00  0.21165807115E-01 0.  0.
         14    1    1    2    0    0 -0.16394471623E-01 -0.14236615799E-01  0.79535040635E-02  0.23123973623E-01  0.00000000000E+00 0. -1.
     999901    1    3    3    0    0 -0.66732633354E-01  0.38888458126E-01 -0.10424546766E+00  0.88951260478E+00  0.88000000000E+00 0.  1.
        -11    1    4    4    0    0  0.75465965585E-01 -0.16858066767E-01  0.77068784303E-01  0.10917492849E+00  0.51100000000E-03 0. -1.
         11    1    4    4    0    0  0.76611393931E-02 -0.77937755593E-02  0.19223179290E-01  0.22118493106E-01  0.51100000000E-03 0.  1.
</event>
<event>
 8    1  0.1106168E+005  0.1043930E+01  0.7957747E-01            NaN
         13   -1    0    0    0    0  0.00000000000E+00  0.00000000000E+00  0.74505805969E-08  0.10566000000E+00  0.10566000000E+00 0. -1.
     999900   -1    0    0    0    0 -0.00000000000E+00 -0.00000000000E+00 -0.74505805969E-08  0.93827000000E+00  0.93827000000E+00 0.  1.
     999902    2    1    2    0    0  0.15097379712E-01 -0.17823941580E-01  0.52204933580E-02  0.10199951443E+01  0.10197142821E+01 0.  0.
     999903    2    3    3    0    0  0.90162333700E-01  0.58439713702E-01 -0.70966394457E-01  0.13024499153E+00  0.19572483772E-01 0.  0.
         14    1    1    2    0    0 -0.15097379712E-01  0.17823941580E-01 -0.52204933580E-02  0.23934855724E-01  0.00000000000E+00 0.  1.
     999901    1    3    3    0    0 -0.75064953988E-01 -0.76263655283E-01  0.76186887815E-01  0.88975015274E+00  0.88000000000E+00 0. -1.
        -11    1    4    4    0    0  0.84100136112E-01  0.47859304430E-01 -0.60149712037E-01  0.11393680219E+00  0.51100000000E-03 0.  1.
         11    1    4    4    0    0  0.60621975881E-02  0.10580409272E-01 -0.10816682420E-01  0.16308189340E-01  0.51100000000E-03 0. -1.
</event>
<event>
 8    1  0.1106168E+005  0.1043930E+01  0.7957747E-01            NaN
         13   -1    0    0    0    0  0.00000000000E+00  0.00000000000E+00  0.74505805969E-08  0.10566000000E+00  0.10566000000E+00 0. -1.
     999900   -1    0    0    0    0 -0.00000000000E+00 -0.00000000000E+00 -0.74505805969E-08  0.93827000000E+00  0.93827000000E+00 0.  1.
     999902    2    1    2    0    0  0.21229424329E-01  0.32197084383E-02 -0.10359248447E-01  0.10200895091E+01  0.10198108832E+01 0.  0.
     999903    2    3    3    0    0 -0.53602816105E-01 -0.11546372283E+00 -0.57487489294E-02  0.12896276287E+00  0.19829596829E-01 0.  0.
         14    1    1    2    0    0 -0.21229424329E-01 -0.32197084383E-02  0.10359248447E-01  0.23840490937E-01  0.00000000000E+00 0. -1.
     999901    1    3    3    0    0  0.74832240433E-01  0.11868343127E+00 -0.46104995176E-02  0.89112674619E+00  0.88000000000E+00 0.  1.
        -11    1    4    4    0    0 -0.24416212386E-01 -0.71456415956E-01  0.22707679069E-02  0.75548582491E-01  0.51100000000E-03 0.  1.
         11    1    4    4    0    0 -0.29186603719E-01 -0.44007306872E-01 -0.80195168363E-02  0.53414180384E-01  0.51100000000E-03 0. -1.
</event>
<event>
 8    1  0.1106168E+005  0.1043930E+01  0.7957747E-01            NaN
         13   -1    0    0    0    0  0.00000000000E+00  0.00000000000E+00  0.74505805969E-08  0.10566000000E+00  0.10566000000E+00 0. -1.
     999900   -1    0    0    0    0 -0.00000000000E+00 -0.00000000000E+00 -0.74505805969E-08  0.93827000000E+00  0.93827000000E+00 0.  1.
     999902    2    1    2    0    0 -0.16330202113E-01 -0.16417825811E-01  0.28926996408E-02  0.10205935860E+01  0.10203267514E+01 0.  0.
     999903    2    3    3    0    0  0.58271668142E-02  0.11521660881E+00  0.54154142755E-01  0.12905205087E+00  0.20320871980E-01 0.  0.
         14    1    1    2    0    0  0.16330202113E-01  0.16417825811E-01 -0.28926996408E-02  0.23336413962E-01  0.00000000000E+00 0.  1.
     999901    1    3    3    0    0 -0.22157368927E-01 -0.13163443462E+00 -0.51261443114E-01  0.89154153517E+00  0.88000000000E+00 0.  1.
        -11    1    4    4    0    0  0.43522515125E-02  0.10750244814E+00  0.55507001847E-01  0.12106612583E+00  0.51100000000E-03 0.  1.
         11    1    4    4    0    0  0.14749153017E-02  0.77141606746E-02 -0.13528590923E-02  0.79859250425E-02  0.51100000000E-03 0. -1.
</event>
<event>
 8    1  0.1106168E+005  0.1043930E+01  0.7957747E-01            NaN
         13   -1    0    0    0    0  0.00000000000E+00  0.00000000000E+00  0.74505805969E-08  0.10566000000E+00  0.10566000000E+00 0. -1.
     999900   -1    0    0    0    0 -0.00000000000E+00 -0.00000000000E+00 -0.74505805969E-08  0.93827000000E+00  0.93827000000E+00 0. -1.
     999902    2    1    2    0    0  0.21367005499E-01 -0.10111617788E-01 -0.91809078174E-02  0.10185709226E+01  0.10182551947E+01 0.  0.
     999903    2    3    3    0    0  0.19407553643E-01 -0.12728393091E+00 -0.27740282216E-02  0.13077914604E+00  0.22751650481E-01 0.  0.
         14    1    1    2    0    0 -0.21367005499E-01  0.10111617788E-01  0.91809078174E-02  0.25359077401E-01  0.00000000000E+00 0.  1.
     999901    1    3    3    0    0  0.19594518562E-02  0.11717231313E+00 -0.64068795958E-02  0.88779177656E+00  0.88000000000E+00 0. -1.
        -11    1    4    4    0    0  0.19779510847E-01 -0.60623184757E-01  0.31830874644E-02  0.63849767002E-01  0.51100000000E-03 0.  1.
         11    1    4    4    0    0 -0.37195720420E-03 -0.66660746157E-01 -0.59571156860E-02  0.66929379040E-01  0.51100000000E-03 0. -1.
</event>
<event>
 8    1  0.1106168E+005  0.1043930E+01  0.7957747E-01            NaN
         13   -1    0    0    0    0  0.00000000000E+00  0.00000000000E+00  0.74505805969E-08  0.10566000000E+00  0.10566000000E+00 0. -1.
     999900   -1    0    0    0    0 -0.00000000000E+00 -0.00000000000E+00 -0.74505805969E-08  0.93827000000E+00  0.93827000000E+00 0. -1.
     999902    2    1    2    0    0 -0.20580616882E-01  0.60069674792E-03 -0.11275435734E-01  0.10204553737E+01  0.10201853320E+01 0.  0.
     999903    2    3    3    0    0  0.95366812811E-01  0.62998295907E-03  0.82575326533E-01  0.12790186110E+00  0.21094446138E-01 0.  0.
         14    1    1    2    0    0  0.20580616882E-01 -0.60069674792E-03  0.11275435734E-01  0.23474626277E-01  0.00000000000E+00 0.  1.
     999901    1    3    3    0    0 -0.11594742969E+00 -0.29286211153E-04 -0.93850762267E-01  0.89255351262E+00  0.88000000000E+00 0. -1.
        -11    1    4    4    0    0  0.40692507775E-01  0.10603195738E-01  0.33743326864E-01  0.53918282407E-01  0.51100000000E-03 0.  1.
         11    1    4    4    0    0  0.54674305036E-01 -0.99732127787E-02  0.48831999669E-01  0.73983578698E-01  0.51100000000E-03 0. -1.
</event>
<event>
 8    1  0.1106168E+005  0.1043930E+01  0.7957747E-01            NaN
         13   -1    0    0    0    0  0.00000000000E+00  0.00000000000E+00  0.74505805969E-08  0.10566000000E+00  0.10566000000E+00 0.  1.
     999900   -1    0    0    0    0 -0.00000000000E+00 -0.00000000000E+00 -0.74505805969E-08  0.93827000000E+00  0.93827000000E+00 0.  1.
     999902    2    1    2    0    0  0.16102703120E-01 -0.11752917494E-02  0.16983998077E-01  0.10204963799E+01  0.10202272918E+01 0.  0.
     999903    2    3    3    0    0 -0.35609341677E-01 -0.10065657910E+00 -0.69858056271E-01  0.12914223903E+00  0.19944867643E-01 0.  0.
         14    1    1    2    0    0 -0.16102703120E-01  0.11752917494E-02 -0.16983998077E-01  0.23433620060E-01  0.00000000000E+00 0. -1.
     999901    1    3    3    0    0  0.51712044797E-01  0.99481287351E-01  0.86842054348E-01  0.89135414091E+00  0.88000000000E+00 0. -1.
        -11    1    4    4    0    0 -0.28358120853E-01 -0.66106288353E-01 -0.56203875338E-01  0.91287245014E-01  0.51100000000E-03 0.  1.
         11    1    4    4    0    0 -0.72512208237E-02 -0.34550290747E-01 -0.13654180933E-01  0.37854994018E-01  0.51100000000E-03 0. -1.
</event>
<event>
 8    1  0.1106168E+005  0.1043930E+01  0.7957747E-01            NaN
         13   -1    0    0    0    0  0.00000000000E+00  0.00000000000E+00  0.74505805969E-08  0.10566000000E+00  0.10566000000E+00 0.  1.
     999900   -1    0    0    0    0 -0.00000000000E+00 -0.00000000000E+00 -0.74505805969E-08  0.93827000000E+00  0.93827000000E+00 0.  1.
     999902    2    1    2    0    0 -0.18511837048E-01  0.29965253737E-02  0.13969683645E-01  0.10205458315E+01  0.10202778910E+01 0.  0.
     999903    2    3    3    0    0  0.89887842100E-02 -0.25523367317E-01  0.12813330718E+00  0.13228742237E+00  0.18696983439E-01 0.  0.
         14    1    1    2    0    0  0.18511837048E-01 -0.29965253737E-02 -0.13969683645E-01  0.23384168498E-01  0.00000000000E+00 0.  1.
     999901    1    3    3    0    0 -0.27500621258E-01  0.28519892691E-01 -0.11416362353E+00  0.88825840913E+00  0.88000000000E+00 0.  1.
        -11    1    4    4    0    0 -0.25811034465E-02 -0.49960229892E-02  0.75810983141E-02  0.94528574176E-02  0.51100000000E-03 0. -1.
         11    1    4    4    0    0  0.11569887657E-01 -0.20527344328E-01  0.12055220886E+00  0.12283456496E+00  0.51100000000E-03 0.  1.
</event>
<event>
 8    1  0.1106168E+005  0.1043930E+01  0.7957747E-01            NaN
         13   -1    0    0    0    0  0.00000000000E+00  0.00000000000E+00  0.74505805969E-08  0.10566000000E+00  0.10566000000E+00 0.  1.
     999900   -1    0    0    0    0 -0.00000000000E+00 -0.00000000000E+00 -0.74505805969E-08  0.93827000000E+00  0.93827000000E+00 0.  1.
     999902    2    1    2    0    0 -0.65610524257E-02 -0.13378058624E-01 -0.18384766114E-01  0.10202652691E+01  0.10199907842E+01 0.  0.
     999903    2    3    3    0    0  0.53379437944E-01 -0.97127360315E-02 -0.11915631377E+00  0.13248083484E+00  0.20229751647E-01 0.  0.
         14    1    1    2    0    0  0.65610524257E-02  0.13378058624E-01  0.18384766114E-01  0.23664730858E-01  0.00000000000E+00 0.  1.
     999901    1    3    3    0    0 -0.59940490369E-01 -0.36653225928E-02  0.10077154766E+00  0.88778443430E+00  0.88000000000E+00 0. -1.
        -11    1    4    4    0    0  0.13830279340E-01 -0.11661276505E-01 -0.42723483183E-01  0.46398482008E-01  0.51100000000E-03 0.  1.
         11    1    4    4    0    0  0.39549158603E-01  0.19485404733E-02 -0.76432830587E-01  0.86082352830E-01  0.51100000000E-03 0. -1.
</event>
<event>
 8    1  0.1106168E+005  0.1043930E+01  0.7957747E-01            NaN
         13   -1    0    0    0    0  0.00000000000E+00  0.00000000000E+00  0.74505805969E-08  0.10566000000E+00  0.10566000000E+00 0. -1.
     999900   -1    0    0    0    0 -0.00000000000E+00 -0.00000000000E+00 -0.74505805969E-08  0.93827000000E+00  0.93827000000E+00 0.  1.
     999902    2    1    2    0    0  0.43196687366E-02 -0.18285119522E-01 -0.12907526980E-01  0.10211350579E+01  0.10208805988E+01 0.  0.
     999903    2    3    3    0    0  0.12065912487E+00  0.31992934080E-02 -0.50861586323E-01  0.13240733822E+00  0.19389233051E-01 0.  0.
         14    1    1    2    0    0 -0.43196687366E-02  0.18285119522E-01  0.12907526980E-01  0.22794942129E-01  0.00000000000E+00 0. -1.
     999901    1    3    3    0    0 -0.11633945614E+00 -0.21484412930E-01  0.37954059343E-01  0.88872771965E+00  0.88000000000E+00 0.  1.
        -11    1    4    4    0    0  0.20804872658E-01 -0.44591832038E-02 -0.32974155090E-02  0.21537435112E-01  0.51100000000E-03 0. -1.
         11    1    4    4    0    0  0.99854252215E-01  0.76584766118E-02 -0.47564170814E-01  0.11086990311E+00  0.51100000000E-03 0.  1.
</event>
<event>
 8    1  0.1106168E+005  0.1043930E+01  0.7957747E-01            NaN
         13   -1    0    0    0    0  0.00000000000E+00  0.00000000000E+00  0.74505805969E-08  0.10566000000E+00  0.10566000000E+00 0. -1.
     999900   -1    0    0    0    0 -0.00000000000E+00 -0.00000000000E+00 -0.74505805969E-08  0.93827000000E+00  0.93827000000E+00 0. -1.
     999902    2    1    2    0    0  0.18227003931E-01 -0.95013126909E-02  0.11975342688E-01  0.10201411907E+01  0.10198637858E+01 0.  0.
     999903    2    3    3    0    0  0.10068447470E+00 -0.66654353585E-01 -0.49956417574E-01  0.13227788619E+00  0.20533612004E-01 0.  0.
         14    1    1    2    0    0 -0.18227003931E-01  0.95013126909E-02 -0.11975342688E-01  0.23788809294E-01  0.00000000000E+00 0.  1.
     999901    1    3    3    0    0 -0.82457470768E-01  0.57153040895E-01  0.61931760262E-01  0.88786330451E+00  0.88000000000E+00 0.  1.
        -11    1    4    4    0    0  0.68584059002E-01 -0.53193128291E-01 -0.42643042508E-01  0.96705595711E-01  0.51100000000E-03 0.  1.
         11    1    4    4    0    0  0.32100415697E-01 -0.13461225295E-01 -0.73133750658E-02  0.35572290483E-01  0.51100000000E-03 0. -1.
</event>
<event>
 8    1  0.1106168E+005  0.1043930E+01  0.7957747E-01            NaN
         13   -1    0    0    0    0  0.00000000000E+00  0.00000000000E+00  0.74505805969E-08  0.10566000000E+00  0.10566000000E+00 0.  1.
     999900   -1    0    0    0    0 -0.00000000000E+00 -0.00000000000E+00 -0.74505805969E-08  0.93827000000E+00  0.93827000000E+00 0.  1.
     999902    2    1    2    0    0 -0.19807428956E-01  0.10862137475E-01 -0.18982994928E-03  0.10213389330E+01  0.10210890558E+01 0.  0.
     999903    2    3    3    0    0 -0.47010291658E-01  0.15689336280E-01  0.12134981292E+00  0.13255595479E+00  0.19727677514E-01 0.  0.
         14    1    1    2    0    0  0.19807428956E-01 -0.10862137475E-01  0.18982994928E-03  0.22591066991E-01  0.00000000000E+00 0.  1.
     999901    1    3    3    0    0  0.27202862702E-01 -0.48271988057E-02 -0.12153964287E+00  0.88878297822E+00  0.88000000000E+00 0.  1.
        -11    1    4    4    0    0 -0.45565338081E-01  0.92467898397E-02  0.10182932241E+00  0.11194273170E+00  0.51100000000E-03 0.  1.
         11    1    4    4    0    0 -0.14449535768E-02  0.64425464407E-02  0.19520490505E-01  0.20613223087E-01  0.51100000000E-03 0. -1.
</event>
<event>
 8    1  0.1106168E+005  0.1043930E+01  0.7957747E-01            NaN
         13   -1    0    0    0    0  0.00000000000E+00  0.00000000000E+00  0.74505805969E-08  0.10566000000E+00  0.10566000000E+00 0. -1.
     999900   -1    0    0    0    0 -0.00000000000E+00 -0.00000000000E+00 -0.74505805969E-08  0.93827000000E+00  0.93827000000E+00 0. -1.
     999902    2    1    2    0    0  0.29653104283E-02 -0.22025509136E-01  0.84833063103E-02  0.10201417129E+01  0.10198643203E+01 0.  0.
     999903    2    3    3    0    0  0.12565211165E+00 -0.33283356669E-01  0.47639938328E-02  0.13155146781E+00  0.19668707483E-01 0.  0.
         14    1    1    2    0    0 -0.29653104283E-02  0.22025509136E-01 -0.84833063103E-02  0.23788287130E-01  0.00000000000E+00 0. -1.
     999901    1    3    3    0    0 -0.12268680122E+00  0.11257847533E-01  0.37193124775E-02  0.88859024506E+00  0.88000000000E+00 0.  1.
        -11    1    4    4    0    0  0.47098731315E-01 -0.12976492607E-01 -0.77098024405E-02  0.49460914130E-01  0.51100000000E-03 0.  1.
         11    1    4    4    0    0  0.78553380332E-01 -0.20306864062E-01  0.12473796273E-01  0.82090553684E-01  0.51100000000E-03 0. -1.
</event>
<event>
 8    1  0.1106168E+005  0.1043930E+01  0.7957747E-01            NaN
         13   -1    0    0    0    0  0.00000000000E+00  0.00000000000E+00  0.74505805969E-08  0.10566000000E+00  0.10566000000E+00 0.  1.
     999900   -1    0    0    0    0 -0.00000000000E+00 -0.00000000000E+00 -0.74505805969E-08  0.93827000000E+00  0.93827000000E+00 0.  1.
     999902    2    1    2    0    0 -0.18628051263E-02 -0.25619032186E-01 -0.89687256112E-02  0.10167225949E+01  0.10163584959E+01 0.  0.
     999903    2    3    3    0    0  0.15197840331E-01  0.15893518106E-01 -0.12454884161E+00  0.12803079193E+00  0.19897021578E-01 0.  0.
         14    1    1    2    0    0  0.18628051263E-02  0.25619032186E-01  0.89687256112E-02  0.27207405098E-01  0.00000000000E+00 0.  1.
     999901    1    3    3    0    0 -0.17060645457E-01 -0.41512550292E-01  0.11558011600E+00  0.88869180297E+00  0.88000000000E+00 0. -1.
        -11    1    4    4    0    0  0.13129113766E-01  0.11188595938E-02 -0.79145250233E-01  0.80236258827E-01  0.51100000000E-03 0.  1.
         11    1    4    4    0    0  0.20687265646E-02  0.14774658512E-01 -0.45403591376E-01  0.47794533103E-01  0.51100000000E-03 0. -1.
</event>
<event>
 8    1  0.1106168E+005  0.1043930E+01  0.7957747E-01            NaN
         13   -1    0    0    0    0  0.00000000000E+00  0.00000000000E+00  0.74505805969E-08  0.10566000000E+00  0.10566000000E+00 0.  1.
     999900   -1    0    0    0    0 -0.00000000000E+00 -0.00000000000E+00 -0.74505805969E-08  0.93827000000E+00  0.93827000000E+00 0.  1.
     999902    2    1    2    0    0  0.79796442104E-02 -0.13477433281E-01 -0.18000596313E-01  0.10200692080E+01  0.10197901017E+01 0.  0.
     999903    2    3    3    0    0  0.25661603824E-02 -0.11890553751E+00  0.50918716638E-01  0.13108424595E+00  0.21100990561E-01 0.  0.
         14    1    1    2    0    0 -0.79796442104E-02  0.13477433281E-01  0.18000596313E-01  0.23860792048E-01  0.00000000000E+00 0.  1.
     999901    1    3    3    0    0  0.54134838280E-02  0.10542810423E+00 -0.68919312951E-01  0.88898496200E+00  0.88000000000E+00 0.  1.
        -11    1    4    4    0    0  0.57287097291E-02 -0.11049220258E-01  0.88003883179E-02  0.15251601195E-01  0.51100000000E-03 0. -1.
         11    1    4    4    0    0 -0.31625493467E-02 -0.10785631725E+00  0.42118328321E-01  0.11583264475E+00  0.51100000000E-03 0.  1.
</event>
<event>
 8    1  0.1106168E+005  0.1043930E+01  0.7957747E-01            NaN
         13   -1    0    0    0    0  0.00000000000E+00  0.00000000000E+00  0.74505805969E-08  0.10566000000E+00  0.10566000000E+00 0. -1.
     999900   -1    0    0    0    0 -0.00000000000E+00 -0.00000000000E+00 -0.74505805969E-08  0.93827000000E+00  0.93827000000E+00 0.  1.
     999902    2    1    2    0    0  0.21176405534E-01 -0.10339650239E-02 -0.25466199845E-01  0.10107933651E+01  0.10102500633E+01 0.  0.
     999903    2    3    3    0    0 -0.98777150671E-01 -0.39275982929E-01  0.49087075192E-01  0.11871181147E+00  0.19581238540E-01 0.  0.
         14    1    1    2    0    0 -0.21176405534E-01  0.10339650239E-02  0.25466199845E-01  0.33136634856E-01  0.00000000000E+00 0. -1.
     999901    1    3    3    0    0  0.11995355621E+00  0.38242017905E-01 -0.74553275037E-01  0.89208155367E+00  0.88000000000E+00 0. -1.
        -11    1    4    4    0    0 -0.27551147326E-01 -0.19809159888E-01  0.19686735853E-01  0.39233878523E-01  0.51100000000E-03 0. -1.
         11    1    4    4    0    0 -0.71226003346E-01 -0.19466823041E-01  0.29400339338E-01  0.79477932951E-01  0.51100000000E-03 0.  1.
</event>
<event>
 8    1  0.1106168E+005  0.1043930E+01  0.7957747E-01            NaN
         13   -1    0    0    0    0  0.00000000000E+00  0.00000000000E+00  0.74505805969E-08  0.10566000000E+00  0.10566000000E+00 0.  1.
     999900   -1    0    0    0    0 -0.00000000000E+00 -0.00000000000E+00 -0.74505805969E-08  0.93827000000E+00  0.93827000000E+00 0.  1.
     999902    2    1    2    0    0 -0.21912205521E-01  0.91053140627E-02 -0.37098103070E-02  0.10199130438E+01  0.10196302284E+01 0.  0.
     999903    2    3    3    0    0  0.43191461631E-01 -0.93039572303E-01 -0.75192764287E-01  0.12874421687E+00  0.19981421501E-01 0.  0.
         14    1    1    2    0    0  0.21912205521E-01 -0.91053140627E-02  0.37098103070E-02  0.24016956249E-01  0.00000000000E+00 0.  1.
     999901    1    3    3    0    0 -0.65103667152E-01  0.10214488637E+00  0.71482953980E-01  0.89116882688E+00  0.88000000000E+00 0. -1.
        -11    1    4    4    0    0  0.70655800488E-02 -0.43371772657E-02 -0.94075614696E-02  0.12549775371E-01  0.51100000000E-03 0.  1.
         11    1    4    4    0    0  0.36125881582E-01 -0.88702395037E-01 -0.65785202818E-01  0.11619444150E+00  0.51100000000E-03 0. -1.
</event>
<event>
 8    1  0.1106168E+005  0.1043930E+01  0.7957747E-01            NaN
         13   -1    0    0    0    0  0.00000000000E+00  0.00000000000E+00  0.74505805969E-08  0.10566000000E+00  0.10566000000E+00 0.  1.
     999900   -1    0    0    0    0 -0.00000000000E+00 -0.00000000000E+00 -0.74505805969E-08  0.93827000000E+00  0.93827000000E+00 0.  1.
     999902    2    1    2    0    0  0.85004797864E-02  0.12040192840E-01 -0.19438079368E-01  0.10195360801E+01  0.10192442078E+01 0.  0.
     999903    2    3    3    0    0 -0.55598523660E-02 -0.11862209249E-01  0.12498202860E+00  0.12733308447E+00  0.20532485536E-01 0.  0.
         14    1    1    2    0    0 -0.85004797864E-02 -0.12040192840E-01  0.19438079368E-01  0.24393919933E-01  0.00000000000E+00 0.  1.
     999901    1    3    3    0    0  0.14060332152E-01  0.23902402089E-01 -0.14442010796E+00  0.89220299560E+00  0.88000000000E+00 0.  1.
        -11    1    4    4    0    0  0.46807584575E-02 -0.12630992265E-01  0.56646407685E-01  0.58228241344E-01  0.51100000000E-03 0. -1.
         11    1    4    4    0    0 -0.10240610824E-01  0.76878301613E-03  0.68335620911E-01  0.69104843127E-01  0.51100000000E-03 0.  1.
</event>
<event>
 8    1  0.1106168E+005  0.1043930E+01  0.7957747E-01            NaN
         13   -1    0    0    0    0  0.00000000000E+00  0.00000000000E+00  0.74505805969E-08  0.10566000000E+00  0.10566000000E+00 0. -1.
     999900   -1    0    0    0    0 -0.00000000000E+00 -0.00000000000E+00 -0.74505805969E-08  0.93827000000E+00  0.93827000000E+00 0.  1.
     999902    2    1    2    0    0  0.67919647638E-02  0.20275554009E-01  0.90121530592E-02  0.10207255224E+01  0.10204617310E+01 0.  0.
     999903    2    3    3    0    0 -0.72880261113E-02 -0.79621627922E-01  0.10068461934E+00  0.13023041624E+00  0.20732819042E-01 0.  0.
         14    1    1    2    0    0 -0.67919647638E-02 -0.20275554009E-01 -0.90121530592E-02  0.23204477553E-01  0.00000000000E+00 0.  1.
     999901    1    3    3    0    0  0.14079990875E-01  0.99897181931E-01 -0.91672466281E-01  0.89049510620E+00  0.88000000000E+00 0.  1.
        -11    1    4    4    0    0  0.18407697835E-02 -0.65742291844E-01  0.76505807719E-01  0.10089022305E+00  0.51100000000E-03 0.  1.
         11    1    4    4    0    0 -0.91287958948E-02 -0.13879336077E-01  0.24178811621E-01  0.29340193197E-01  0.51100000000E-03 0. -1.
</event>
<event>
 8    1  0.1106168E+005  0.1043930E+01  0.7957747E-01            NaN
         13   -1    0    0    0    0  0.00000000000E+00  0.00000000000E+00  0.74505805969E-08  0.10566000000E+00  0.10566000000E+00 0.  1.
     999900   -1    0    0    0    0 -0.00000000000E+00 -0.00000000000E+00 -0.74505805969E-08  0.93827000000E+00  0.93827000000E+00 0.  1.
     999902    2    1    2    0    0  0.11064861107E-01 -0.74511438643E-02  0.20622350633E-01  0.10193692174E+01  0.10190732895E+01 0.  0.
     999903    2    3    3    0    0 -0.72039527917E-01 -0.70330926208E-01  0.81611160416E-01  0.13112384510E+00  0.19923566065E-01 0.  0.
         14    1    1    2    0    0 -0.11064861107E-01  0.74511438643E-02 -0.20622350633E-01  0.24560782598E-01  0.00000000000E+00 0. -1.
     999901    1    3    3    0    0  0.83104389024E-01  0.62879782344E-01 -0.60988809783E-01  0.88824537231E+00  0.88000000000E+00 0. -1.
        -11    1    4    4    0    0 -0.46810985115E-01 -0.57621683683E-01  0.62080054082E-01  0.96776655210E-01  0.51100000000E-03 0. -1.
         11    1    4    4    0    0 -0.25228542802E-01 -0.12709242526E-01  0.19531106334E-01  0.34347189886E-01  0.51100000000E-03 0.  1.
</event>
<event>
 8    1  0.1106168E+005  0.1043930E+01  0.7957747E-01            NaN
         13   -1    0    0    0    0  0.00000000000E+00  0.00000000000E+00  0.74505805969E-08  0.10566000000E+00  0.10566000000E+00 0. -1.
     999900   -1    0    0    0    0 -0.00000000000E+00 -0.00000000000E+00 -0.74505805969E-08  0.93827000000E+00  0.93827000000E+00 0. -1.
     999902    2    1    2    0    0 -0.43268891241E-02 -0.21614463508E-01 -0.78204285588E-02  0.10205405557E+01  0.10202724929E+01 0.  0.
     999903    2    3    3    0    0  0.48596623713E-01 -0.18699501820E-01  0.11746953987E+00  0.13008731638E+00  0.20305513530E-01 0.  0.
         14    1    1    2    0    0  0.43268891241E-02  0.21614463508E-01  0.78204285588E-02  0.23389444309E-01  0.00000000000E+00 0.  1.
     999901    1    3    3    0    0 -0.52923512837E-01 -0.29149616876E-02 -0.12528996843E+00  0.89045323931E+00  0.88000000000E+00 0. -1.
        -11    1    4    4    0    0  0.28919342044E-01 -0.57051809718E-02  0.44323871497E-01  0.53232923456E-01  0.51100000000E-03 0.  1.
         11    1    4    4    0    0  0.19677281669E-01 -0.12994320848E-01  0.73145668377E-01  0.76854392923E-01  0.51100000000E-03 0. -1.
</event>
<event>
 8    1  0.1106168E+005  0.1043930E+01  0.7957747E-01            NaN
         13   -1    0    0    0    0  0.00000000000E+00  0.00000000000E+00  0.74505805969E-08  0.10566000000E+00  0.10566000000E+00 0. -1.
     999900   -1    0    0    0    0 -0.00000000000E+00 -0.00000000000E+00 -0.74505805969E-08  0.93827000000E+00  0.93827000000E+00 0.  1.
     999902    2    1    2    0    0 -0.16942940524E-01 -0.15005885977E-01 -0.39823726270E-02  0.10209495923E+01  0.10206909282E+01 0.  0.
     999903    2    3    3    0    0 -0.10165908433E+00  0.79422518466E-01  0.16566821531E-01  0.13161511191E+00  0.20138824187E-01 0.  0.
         14    1    1    2    0    0  0.16942940524E-01  0.15005885977E-01  0.39823726270E-02  0.22980407727E-01  0.00000000000E+00 0. -1.
     999901    1    3    3    0    0  0.84716143809E-01 -0.94428404442E-01 -0.20549194158E-01  0.88933448037E+00  0.88000000000E+00 0.  1.
        -11    1    4    4    0    0 -0.76125438023E-01  0.57629067091E-01  0.20964994035E-01  0.97754712336E-01  0.51100000000E-03 0. -1.
         11    1    4    4    0    0 -0.25533646311E-01  0.21793451374E-01 -0.43981725041E-02  0.33860399571E-01  0.51100000000E-03 0.  1.
</event>
<event>
 8    1  0.1106168E+005  0.1043930E+01  0.7957747E-01            NaN
         13   -1    0    0    0    0  0.00000000000E+00  0.00000000000E+00  0.74505805969E-08  0.10566000000E+00  0.10566000000E+00 0. -1.
     999900   -1    0    0    0    0 -0.00000000000E+00 -0.00000000000E+00 -0.74505805969E-08  0.93827000000E+00  0.93827000000E+00 0.  1.
     999902    2    1    2    0    0 -0.25888877691E-02  0.21089378614E-01 -0.10382293324E-01  0.10202814008E+01  0.10200072944E+01 0.  0.
     999903    2    3    3    0    0 -0.87586591363E-01  0.53619839951E-01 -0.81632021249E-01  0.13272331014E+00  0.20129380009E-01 0.  0.
         14    1    1    2    0    0  0.25888877691E-02 -0.21089378614E-01  0.10382293324E-01  0.23648599216E-01  0.00000000000E+00 0.  1.
     999901    1    3    3    0    0  0.84997703594E-01 -0.32530461336E-01  0.71249727925E-01  0.88755809064E+00  0.88000000000E+00 0. -1.
        -11    1    4    4    0    0 -0.21121654931E-01  0.22276016060E-01 -0.29885854353E-01  0.42845893735E-01  0.51100000000E-03 0. -1.
         11    1    4    4    0    0 -0.66464936432E-01  0.31343823890E-01 -0.51746166896E-01  0.89877416409E-01  0.51100000000E-03 0.  1.
</event>
<event>
 8    1  0.1106168E+005  0.1043930E+01  0.7957747E-01            NaN
         13   -1    0    0    0    0  0.00000000000E+00  0.00000000000E+00  0.74505805969E-08  0.10566000000E+00  0.10566000000E+00 0.  1.
     999900   -1    0    0    0    0 -0.00000000000E+00 -0.00000000000E+00 -0.74505805969E-08  0.93827000000E+00  0.93827000000E+00 0.  1.
     999902    2    1    2    0    0 -0.20940412075E-01 -0.13787271828E-02  0.12097862342E-01  0.10197068701E+01  0.10194191194E+01 0.  0.
     999903    2    3    3    0    0  0.63774134449E-01 -0.67323361083E-02  0.11119034915E+00  0.13008642498E+00  0.21135743291E-01 0.  0.
         14    1    1    2    0    0  0.20940412075E-01  0.13787271828E-02 -0.12097862342E-01  0.24223129851E-01  0.00000000000E+00 0. -1.
     999901    1    3    3    0    0 -0.84714546524E-01  0.53536089256E-02 -0.99092486812E-01  0.88962044517E+00  0.88000000000E+00 0.  1.
        -11    1    4    4    0    0  0.53191663103E-01 -0.80713397238E-02  0.74655674834E-01  0.92022988729E-01  0.51100000000E-03 0.  1.
         11    1    4    4    0    0  0.10582471346E-01  0.13390036155E-02  0.36534674321E-01  0.38063436250E-01  0.51100000000E-03 0. -1.
</event>
<event>
 8    1  0.1106168E+005  0.1043930E+01  0.7957747E-01            NaN
         13   -1    0    0    0    0  0.00000000000E+00  0.00000000000E+00  0.74505805969E-08  0.10566000000E+00  0.10566000000E+00 0. -1.
     999900   -1    0    0    0    0 -0.00000000000E+00 -0.00000000000E+00 -0.74505805969E-08  0.93827000000E+00  0.93827000000E+00 0. -1.
     999902    2    1    2    0    0  0.23360493902E-01  0.18047239167E-01 -0.64057241927E-02  0.10137232322E+01  0.10132730840E+01 0.  0.
     999903    2    3    3    0    0  0.53273758987E-01 -0.64764707061E-01  0.88742236841E-01  0.12422575817E+00  0.22897460904E-01 0.  0.
         14    1    1    2    0    0 -0.23360493902E-01 -0.18047239167E-01  0.64057241927E-02  0.30206767774E-01  0.00000000000E+00 0.  1.
     999901    1    3    3    0    0 -0.29913265085E-01  0.82811946228E-01 -0.95147961033E-01  0.88949747406E+00  0.88000000000E+00 0. -1.
        -11    1    4    4    0    0  0.27438978178E-01 -0.16156593309E-01  0.30851768837E-01  0.44339889402E-01  0.51100000000E-03 0. -1.
         11    1    4    4    0    0  0.25834780809E-01 -0.48608113752E-01  0.57890468003E-01  0.79885868767E-01  0.51100000000E-03 0.  1.
</event>
<event>
 8    1  0.1106168E+005  0.1043930E+01  0.7957747E-01            NaN
         13   -1    0    0    0    0  0.00000000000E+00  0.00000000000E+00  0.74505805969E-08  0.10566000000E+00  0.10566000000E+00 0.  1.
     999900   -1    0    0    0    0 -0.00000000000E+00 -0.00000000000E+00 -0.74505805969E-08  0.93827000000E+00  0.93827000000E+00 0. -1.
     999902    2    1    2    0    0  0.16840814935E-01 -0.30594842277E-02 -0.16475838975E-01  0.10201723326E+01  0.10198956620E+01 0.  0.
     999903    2    3    3    0    0  0.53620241803E-01 -0.11865999502E+00 -0.15528191773E-02  0.13172486601E+00  0.19841983989E-01 0.  0.
         14    1    1    2    0    0 -0.16840814935E-01  0.30594842277E-02  0.16475838975E-01  0.23757667423E-01  0.00000000000E+00 0.  1.
     999901    1    3    3    0    0 -0.36779426868E-01  0.11560051079E+00 -0.14923019798E-01  0.88844746657E+00  0.88000000000E+00 0.  1.
        -11    1    4    4    0    0  0.34961263413E-01 -0.53816081237E-01  0.12531872054E-02  0.64189501776E-01  0.51100000000E-03 0. -1.
         11    1    4    4    0    0  0.18658978390E-01 -0.64843913781E-01 -0.28060063827E-02  0.67535364231E-01  0.51100000000E-03 0.  1.
</event>
<event>
 8    1  0.1106168E+005  0.1043930E+01  0.7957747E-01            NaN
         13   -1    0    0    0    0  0.00000000000E+00  0.00000000000E+00  0.74505805969E-08  0.10566000000E+00  0.10566000000E+00 0. -1.
     999900   -1    0    0    0    0 -0.00000000000E+00 -0.00000000000E+00 -0.74505805969E-08  0.93827000000E+00  0.93827000000E+00 0. -1.
     999902    2    1    2    0    0 -0.19418558443E-01  0.11304105549E-01 -0.80019304892E-02  0.10200784989E+01  0.10197996126E+01 0.  0.
     999903    2    3    3    0    0 -0.77910803743E-02  0.10547649270E+00  0.74855193280E-01  0.13110777961E+00  0.19998961673E-01 0.  0.
         14    1    1    2    0    0  0.19418558443E-01 -0.11304105549E-01  0.80019304892E-02  0.23851501123E-01  0.00000000000E+00 0. -1.
     999901    1    3    3    0    0 -0.11627478069E-01 -0.94172387153E-01 -0.82857123769E-01  0.88897071926E+00  0.88000000000E+00 0.  1.
        -11    1    4    4    0    0 -0.12978082538E-01  0.78633418684E-01  0.61544590111E-01  0.10069579362E+00  0.51100000000E-03 0. -1.
         11    1    4    4    0    0  0.51870021638E-02  0.26843074018E-01  0.13310603169E-01  0.30411985991E-01  0.51100000000E-03 0.  1.
</event>
<event>
 8    1  0.1106168E+005  0.1043930E+01  0.7957747E-01            NaN
         13   -1    0    0    0    0  0.00000000000E+00  0.00000000000E+00  0.74505805969E-08  0.10566000000E+00  0.10566000000E+00 0. -1.
     999900   -1    0    0    0    0 -0.00000000000E+00 -0.00000000000E+00 -0.74505805969E-08  0.93827000000E+00  0.93827000000E+00 0. -1.
     999902    2    1    2    0    0  0.13313657787E-03  0.22990977015E-01  0.90207362165E-02  0.10192322991E+01  0.10189330219E+01 0.  0.
     999903    2    3    3    0    0 -0.76707082104E-01  0.10103458455E+00  0.31474020064E-01  0.13215881066E+00  0.19579927888E-01 0.  0.
         14    1    1    2    0    0 -0.13313657787E-03 -0.22990977015E-01 -0.90207362165E-02  0.24697700932E-01  0.00000000000E+00 0.  1.
     999901    1    3    3    0    0  0.76840218682E-01 -0.78043607532E-01 -0.22453283847E-01  0.88707348841E+00  0.88000000000E+00 0. -1.
        -11    1    4    4    0    0 -0.58913828305E-01  0.87900532344E-01  0.29995476592E-01  0.10998787428E+00  0.51100000000E-03 0.  1.
         11    1    4    4    0    0 -0.17793253800E-01  0.13134052203E-01  0.14785434722E-02  0.22170936377E-01  0.51100000000E-03 0. -1.
</event>
<event>
 8    1  0.1106168E+005  0.1043930E+01  0.7957747E-01            NaN
         13   -1    0    0    0    0  0.00000000000E+00  0.00000000000E+00  0.74505805969E-08  0.10566000000E+00  0.10566000000E+00 0. -1.
     999900   -1    0    0    0    0 -0.00000000000E+00 -0.00000000000E+00 -0.74505805969E-08  0.93827000000E+00  0.93827000000E+00 0.  1.
     999902    2    1    2    0    0 -0.38124723014E-02 -0.14056982773E-01 -0.19493504637E-01  0.10195962696E+01  0.10193058533E+01 0.  0.
     999903    2    3    3    0    0 -0.56080510228E-01  0.46795590472E-01  0.10240714939E+00  0.12757903164E+00  0.21315115577E-01 0.  0.
         14    1    1    2    0    0  0.38124723014E-02  0.14056982773E-01  0.19493504637E-01  0.24333730351E-01  0.00000000000E+00 0. -1.
     999901    1    3    3    0    0  0.52268037927E-01 -0.60852573245E-01 -0.12190065403E+00  0.89201723801E+00  0.88000000000E+00 0.  1.
        -11    1    4    4    0    0 -0.19912342247E-01  0.19482098075E-01  0.22925633337E-01  0.36081841750E-01  0.51100000000E-03 0. -1.
         11    1    4    4    0    0 -0.36168167981E-01  0.27313492397E-01  0.79481516053E-01  0.91497189887E-01  0.51100000000E-03 0.  1.
</event>
<event>
 8    1  0.1106168E+005  0.1043930E+01  0.7957747E-01            NaN
         13   -1    0    0    0    0  0.00000000000E+00  0.00000000000E+00  0.74505805969E-08  0.10566000000E+00  0.10566000000E+00 0. -1.
     999900   -1    0    0    0    0 -0.00000000000E+00 -0.00000000000E+00 -0.74505805969E-08  0.93827000000E+00  0.93827000000E+00 0. -1.
     999902    2    1    2    0    0 -0.27851396491E-02 -0.18628109806E-02  0.23247893553E-01  0.10204418834E+01  0.10201715276E+01 0.  0.
     999903    2    3    3    0    0 -0.11863719449E+00 -0.47939979293E-01 -0.18162034763E-01  0.13068934126E+00  0.19411823206E-01 0.  0.
         14    1    1    2    0    0  0.27851396491E-02  0.18628109806E-02 -0.23247893553E-01  0.23488116618E-01  0.00000000000E+00 0.  1.
     999901    1    3    3    0    0  0.11585205484E+00  0.46077168312E-01  0.41409928315E-01  0.88975254212E+00  0.88000000000E+00 0.  1.
        -11    1    4    4    0    0 -0.17151768550E-01 -0.11612228874E-01  0.27062000127E-02  0.20895254565E-01  0.51100000000E-03 0. -1.
         11    1    4    4    0    0 -0.10148542594E+00 -0.36327750418E-01 -0.20868234775E-01  0.10979408669E+00  0.51100000000E-03 0.  1.
</event>
<event>
 8    1  0.1106168E+005  0.1043930E+01  0.7957747E-01            NaN
         13   -1    0    0    0    0  0.00000000000E+00  0.00000000000E+00  0.74505805969E-08  0.10566000000E+00  0.10566000000E+00 0.  1.
     999900   -1    0    0    0    0 -0.00000000000E+00 -0.00000000000E+00 -0.74505805969E-08  0.93827000000E+00  0.93827000000E+00 0.  1.
     999902    2    1    2    0    0 -0.36718722485E-02  0.23498650167E-01 -0.30808163752E-03  0.10201442034E+01  0.10198668696E+01 0.  0.
     999903    2    3    3    0    0 -0.12623768146E+00 -0.20399534912E-01 -0.18372246800E-01  0.13038258235E+00  0.17606393186E-01 0.  0.
         14    1    1    2    0    0  0.36718722485E-02 -0.23498650167E-01  0.30808163752E-03  0.23785796597E-01  0.00000000000E+00 0. -1.
     999901    1    3    3    0    0  0.12256580921E+00  0.43898185079E-01  0.18064165163E-01  0.88976162106E+00  0.88000000000E+00 0.  1.
        -11    1    4    4    0    0 -0.10070142741E+00 -0.21927129756E-01 -0.18945435976E-01  0.10478915577E+00  0.51100000000E-03 0. -1.
         11    1    4    4    0    0 -0.25536254049E-01  0.15275948442E-02  0.57318917581E-03  0.25593426572E-01  0.51100000000E-03 0.  1.
</event>
<event>
 8    1  0.1106168E+005  0.1043930E+01  0.7957747E-01            NaN
         13   -1    0    0    0    0  0.00000000000E+00  0.00000000000E+00  0.74505805969E-08  0.10566000000E+00  0.10566000000E+00 0. -1.
     999900   -1    0    0    0    0 -0.00000000000E+00 -0.00000000000E+00 -0.74505805969E-08  0.93827000000E+00  0.93827000000E+00 0.  1.
     999902    2    1    2    0    0  0.10616386381E-02  0.12819594983E-01 -0.19211789180E-01  0.10208094045E+01  0.10205475385E+01 0.  0.
     999903    2    3    3    0    0  0.12238445077E-01 -0.90556797267E-01  0.87735905227E-01  0.12825721623E+00  0.20050221421E-01 0.  0.
         14    1    1    2    0    0 -0.10616386381E-02 -0.12819594983E-01  0.19211789180E-01  0.23120595486E-01  0.00000000000E+00 0. -1.
     999901    1    3    3    0    0 -0.11176806439E-01  0.10337639225E+00 -0.10694769441E+00  0.89255218829E+00  0.88000000000E+00 0.  1.
        -11    1    4    4    0    0  0.16664043668E-01 -0.69032296700E-01  0.60778288788E-01  0.93474113251E-01  0.51100000000E-03 0.  1.
         11    1    4    4    0    0 -0.44255985911E-02 -0.21524500568E-01  0.26957616439E-01  0.34783102976E-01  0.51100000000E-03 0. -1.
</event>
<event>
 8    1  0.1106168E+005  0.1043930E+01  0.7957747E-01            NaN
         13   -1    0    0    0    0  0.00000000000E+00  0.00000000000E+00  0.74505805969E-08  0.10566000000E+00  0.10566000000E+00 0. -1.
     999900   -1    0    0    0    0 -0.00000000000E+00 -0.00000000000E+00 -0.74505805969E-08  0.93827000000E+00  0.93827000000E+00 0. -1.
     999902    2    1    2    0    0 -0.15865246772E-01  0.17059351680E-01  0.70466283079E-02  0.10195910907E+01  0.10193005493E+01 0.  0.
     999903    2    3    3    0    0 -0.16290800026E-01 -0.98726641742E-01  0.78624348912E-01  0.12912495017E+00  0.21888914057E-01 0.  0.
         14    1    1    2    0    0  0.15865246772E-01 -0.17059351680E-01 -0.70466283079E-02  0.24338909289E-01  0.00000000000E+00 0.  1.
     999901    1    3    3    0    0  0.42555325466E-03  0.11578599342E+00 -0.71577720604E-01  0.89046614054E+00  0.88000000000E+00 0. -1.
        -11    1    4    4    0    0 -0.57547159519E-02 -0.46669035922E-01  0.50569792350E-01  0.69055634737E-01  0.51100000000E-03 0.  1.
         11    1    4    4    0    0 -0.10536084075E-01 -0.52057605820E-01  0.28054556562E-01  0.60069315430E-01  0.51100000000E-03 0. -1.
</event>
<event>
 8    1  0.1106168E+005  0.1043930E+01  0.7957747E-01            NaN
         13   -1    0    0    0    0  0.00000000000E+00  0.00000000000E+00  0.74505805969E-08  0.10566000000E+00  0.10566000000E+00 0. -1.
     999900   -1    0    0    0    0 -0.00000000000E+00 -0.00000000000E+00 -0.74505805969E-08  0.93827000000E+00  0.93827000000E+00 0. -1.
     999902    2    1    2    0    0  0.18533989824E-01 -0.15323986594E-01 -0.74227949012E-03  0.10198699850E+01  0.10195861425E+01 0.  0.
     999903    2    3    3    0    0 -0.91239119587E-01  0.85820216464E-01  0.94864879140E-02  0.12724189163E+00  0.20268671257E-01 0.  0.
         14    1    1    2    0    0 -0.18533989824E-01  0.15323986594E-01  0.74227949012E-03  0.24060015020E-01  0.00000000000E+00 0.  1.
     999901    1    3    3    0    0  0.10977310941E+00 -0.10114420306E+00 -0.10228767404E-01  0.89262809335E+00  0.88000000000E+00 0.  1.
        -11    1    4    4    0    0 -0.80452773967E-01  0.68045620801E-01  0.28457074513E-02  0.10540974585E+00  0.51100000000E-03 0. -1.
         11    1    4    4    0    0 -0.10786345621E-01  0.17774595664E-01  0.66407804627E-02  0.21832145772E-01  0.51100000000E-03 0.  1.
</event>
<event>
 8    1  0.1106168E+005  0.1043930E+01  0.7957747E-01            NaN
         13   -1    0    0    0    0  0.00000000000E+00  0.00000000000E+00  0.74505805969E-08  0.10566000000E+00  0.10566000000E+00 0. -1.
     999900   -1    0    0    0    0 -0.00000000000E+00 -0.00000000000E+00 -0.74505805969E-08  0.93827000000E+00  0.93827000000E+00 0. -1.
     999902    2    1    2    0    0  0.14502381065E-01  0.54415332487E-02 -0.17805366518E-01  0.10203299912E+01  0.10200570231E+01 0.  0.
     999903    2    3    3    0    0 -0.45869327509E-01 -0.72491765066E-01  0.92861256014E-01  0.12793689194E+00  0.19636299101E-01 0.  0.
         14    1    1    2    0    0 -0.14502381065E-01 -0.54415332487E-02  0.17805366518E-01  0.23600008845E-01  0.00000000000E+00 0. -1.
     999901    1    3    3    0    0  0.60371708574E-01  0.77933298315E-01 -0.11066662253E+00  0.89239309921E+00  0.88000000000E+00 0. -1.
        -11    1    4    4    0    0 -0.41928156963E-01 -0.51932982304E-01  0.65884403730E-01  0.93787103448E-01  0.51100000000E-03 0. -1.
         11    1    4    4    0    0 -0.39411705459E-02 -0.20558782763E-01  0.26976852284E-01  0.34149788493E-01  0.51100000000E-03 0.  1.
</event>
<event>
 8    1  0.1106168E+005  0.1043930E+01  0.7957747E-01            NaN
         13   -1    0    0    0    0  0.00000000000E+00  0.00000000000E+00  0.74505805969E-08  0.10566000000E+00  0.10566000000E+00 0. -1.
     999900   -1    0    0    0    0 -0.00000000000E+00 -0.00000000000E+00 -0.74505805969E-08  0.93827000000E+00  0.93827000000E+00 0.  1.
     999902    2    1    2    0    0  0.38973239959E-02 -0.99839400156E-02 -0.23590230248E-01  0.10180192463E+01  0.10176894510E+01 0.  0.
     999903    2    3    3    0    0  0.30621916556E-01 -0.46700334692E-01 -0.11779424357E+00  0.13182700217E+00  0.19602337837E-01 0.  0.
         14    1    1    2    0    0 -0.38973239959E-02  0.99839400156E-02  0.23590230248E-01  0.25910753669E-01  0.00000000000E+00 0. -1.
     999901    1    3    3    0    0 -0.26724592560E-01  0.36716394676E-01  0.94204013323E-01  0.88619224416E+00  0.88000000000E+00 0. -1.
        -11    1    4    4    0    0  0.46813625749E-02 -0.81069800381E-02 -0.40927456406E-01  0.41987570658E-01  0.51100000000E-03 0. -1.
         11    1    4    4    0    0  0.25940553981E-01 -0.38593354654E-01 -0.76866787165E-01  0.89839431511E-01  0.51100000000E-03 0.  1.
</event>
<event>
 8    1  0.1106168E+005  0.1043930E+01  0.7957747E-01            NaN
         13   -1    0    0    0    0  0.00000000000E+00  0.00000000000E+00  0.74505805969E-08  0.10566000000E+00  0.10566000000E+00 0.  1.
     999900   -1    0    0    0    0 -0.00000000000E+00 -0.00000000000E+00 -0.74505805969E-08  0.93827000000E+00  0.93827000000E+00 0.  1.
     999902    2    1    2    0    0 -0.82874389024E-02  0.18239335951E-01  0.12537933345E-01  0.10202962362E+01  0.10200224776E+01 0.  0.
     999903    2    3    3    0    0  0.10652399667E+00  0.73083613067E-01  0.95444969267E-02  0.13114016376E+00  0.20446729915E-01 0.  0.
         14    1    1    2    0    0  0.82874389024E-02 -0.18239335951E-01 -0.12537933345E-01  0.23633763815E-01  0.00000000000E+00 0. -1.
     999901    1    3    3    0    0 -0.11481143557E+00 -0.54844277115E-01  0.29934364181E-02  0.88915607243E+00  0.88000000000E+00 0. -1.
        -11    1    4    4    0    0  0.28239798351E-01  0.91567868209E-02  0.33427716263E-02  0.29879226880E-01  0.51100000000E-03 0.  1.
         11    1    4    4    0    0  0.78284198317E-01  0.63926826246E-01  0.62017253004E-02  0.10126093688E+00  0.51100000000E-03 0. -1.
</event>
<event>
 8    1  0.1106168E+005  0.1043930E+01  0.7957747E-01            NaN
         13   -1    0    0    0    0  0.00000000000E+00  0.00000000000E+00  0.74505805969E-08  0.10566000000E+00  0.10566000000E+00 0.  1.
     999900   -1    0    0    0    0 -0.00000000000E+00 -0.00000000000E+00 -0.74505805969E-08  0.93827000000E+00  0.93827000000E+00 0. -1.
     999902    2    1    2    0    0 -0.94868982414E-02  0.21343917192E-01 -0.32126010953E-02  0.10203527897E+01  0.10200803550E+01 0.  0.
     999903    2    3    3    0    0 -0.56721981802E-01  0.10309597325E+00 -0.59622003349E-01  0.13350636983E+00  0.20567075214E-01 0.  0.
         14    1    1    2    0    0  0.94868982414E-02 -0.21343917192E-01  0.32126010953E-02  0.23577210291E-01  0.00000000000E+00 0.  1.
     999901    1    3    3    0    0  0.47235083561E-01 -0.81752056054E-01  0.56409402254E-01  0.88684641988E+00  0.88000000000E+00 0.  1.
        -11    1    4    4    0    0 -0.34247852575E-01  0.80934268623E-01 -0.44266764479E-01  0.98402636153E-01  0.51100000000E-03 0.  1.
         11    1    4    4    0    0 -0.22474129227E-01  0.22161704623E-01 -0.15355238870E-01  0.35103733677E-01  0.51100000000E-03 0. -1.
</event>
<event>
 8    1  0.1106168E+005  0.1043930E+01  0.7957747E-01            NaN
         13   -1    0    0    0    0  0.00000000000E+00  0.00000000000E+00  0.74505805969E-08  0.10566000000E+00  0.10566000000E+00 0. -1.
     999900   -1    0    0    0    0 -0.00000000000E+00 -0.00000000000E+00 -0.74505805969E-08  0.93827000000E+00  0.93827000000E+00 0. -1.
     999902    2    1    2    0    0 -0.18612006653E-01 -0.68975388950E-02  0.16454885386E-01  0.10181473297E+01  0.10178208285E+01 0.  0.
     999903    2    3    3    0    0  0.55710045669E-01 -0.77664519813E-01 -0.80969288721E-01  0.12684311522E+00  0.19944005055E-01 0.  0.
         14    1    1    2    0    0  0.18612006653E-01  0.68975388950E-02 -0.16454885386E-01  0.25782670295E-01  0.00000000000E+00 0.  1.
     999901    1    3    3    0    0 -0.74322052323E-01  0.70766980918E-01  0.97424174107E-01  0.89130421448E+00  0.88000000000E+00 0.  1.
        -11    1    4    4    0    0  0.28777277394E-01 -0.27076074421E-01 -0.25157576739E-01  0.46844533177E-01  0.51100000000E-03 0.  1.
         11    1    4    4    0    0  0.26932768276E-01 -0.50588445392E-01 -0.55811711982E-01  0.79998582047E-01  0.51100000000E-03 0. -1.
</event>
<event>
 8    1  0.1106168E+005  0.1043930E+01  0.7957747E-01            NaN
         13   -1    0    0    0    0  0.00000000000E+00  0.00000000000E+00  0.74505805969E-08  0.10566000000E+00  0.10566000000E+00 0.  1.
     999900   -1    0    0    0    0 -0.00000000000E+00 -0.00000000000E+00 -0.74505805969E-08  0.93827000000E+00  0.93827000000E+00 0.  1.
     999902    2    1    2    0    0 -0.47969824485E-02 -0.20279014577E-01  0.63882668355E-02  0.10221341420E+01  0.10219017295E+01 0.  0.
     999903    2    3    3    0    0 -0.24392818226E-01  0.80485139817E-01  0.99004830520E-01  0.13133941847E+00  0.19370572179E-01 0.  0.
         14    1    1    2    0    0  0.47969824485E-02  0.20279014577E-01 -0.63882668355E-02  0.21795858001E-01  0.00000000000E+00 0. -1.
     999901    1    3    3    0    0  0.19595835777E-01 -0.10076415439E+00 -0.92616563684E-01  0.89079472352E+00  0.88000000000E+00 0.  1.
        -11    1    4    4    0    0  0.12753594647E-02  0.12676896713E-01  0.82898972202E-02  0.15209002892E-01  0.51100000000E-03 0. -1.
         11    1    4    4    0    0 -0.25668177690E-01  0.67808243104E-01  0.90714933299E-01  0.11613041558E+00  0.51100000000E-03 0.  1.
</event>
<event>
 8    1  0.1106168E+005  0.1043930E+01  0.7957747E-01            NaN
         13   -1    0    0    0    0  0.00000000000E+00  0.00000000000E+00  0.74505805969E-08  0.10566000000E+00  0.10566000000E+00 0.  1.
     999900   -1    0    0    0    0 -0.00000000000E+00 -0.00000000000E+00 -0.74505805969E-08  0.93827000000E+00  0.93827000000E+00 0. -1.
     999902    2    1    2    0    0  0.16748709171E-01  0.36230014564E-02 -0.20840695596E-01  0.10169488957E+01  0.10165909091E+01 0.  0.
     999903    2    3    3    0    0 -0.49506414465E-01 -0.10266266712E+00 -0.53625410515E-01  0.12747645523E+00  0.19597287868E-01 0.  0.
         14    1    1    2    0    0 -0.16748709171E-01 -0.36230014564E-02  0.20840695596E-01  0.26981104340E-01  0.00000000000E+00 0.  1.
     999901    1    3    3    0    0  0.66255123636E-01  0.10628566858E+00  0.32784714919E-01  0.88947244043E+00  0.88000000000E+00 0. -1.
        -11    1    4    4    0    0 -0.38044869359E-01 -0.72711666283E-01 -0.47510071262E-01  0.94825452757E-01  0.51100000000E-03 0.  1.
         11    1    4    4    0    0 -0.11461545106E-01 -0.29951000836E-01 -0.61153392532E-02  0.32651002473E-01  0.51100000000E-03 0. -1.
</event>
<event>
 8    1  0.1106168E+005  0.1043930E+01  0.7957747E-01            NaN
         13   -1    0    0    0    0  0.00000000000E+00  0.00000000000E+00  0.74505805969E-08  0.10566000000E+00  0.10566000000E+00 0. -1.
     999900   -1    0    0    0    0 -0.00000000000E+00 -0.00000000000E+00 -0.74505805969E-08  0.93827000000E+00  0.93827000000E+00 0.  1.
     999902    2    1    2    0    0  0.59206857494E-02 -0.99245858217E-02 -0.20657719345E-01  0.10202594848E+01  0.10199848641E+01 0.  0.
     999903    2    3    3    0    0 -0.70271137329E-01 -0.59376230961E-01  0.88142702759E-01  0.12891881421E+00  0.19681337954E-01 0.  0.
         14    1    1    2    0    0 -0.59206857494E-02  0.99245858217E-02  0.20657719345E-01  0.23670515246E-01  0.00000000000E+00 0. -1.
     999901    1    3    3    0    0  0.76191823079E-01  0.49451645139E-01 -0.10880042210E+00  0.89134067054E+00  0.88000000000E+00 0.  1.
        -11    1    4    4    0    0 -0.11868368071E-01 -0.62675261351E-02  0.51671384640E-02  0.14390986257E-01  0.51100000000E-03 0. -1.
         11    1    4    4    0    0 -0.58402769258E-01 -0.53108704826E-01  0.82975564295E-01  0.11452782796E+00  0.51100000000E-03 0.  1.
</event>
<event>
 8    1  0.1106168E+005  0.1043930E+01  0.7957747E-01            NaN
         13   -1    0    0    0    0  0.00000000000E+00  0.00000000000E+00  0.74505805969E-08  0.10566000000E+00  0.10566000000E+00 0.  1.
     999900   -1    0    0    0    0 -0.00000000000E+00 -0.00000000000E+00 -0.74505805969E-08  0.93827000000E+00  0.93827000000E+00 0. -1.
     999902    2    1    2    0    0  0.16211998696E-01 -0.48013895797E-02  0.14389185270E-01  0.10217279529E+01  0.10214867003E+01 0.  0.
     999903    2    3    3    0    0  0.12059839369E+00 -0.54808307385E-01  0.16778482528E-02  0.13405752452E+00  0.20510523826E-01 0.  0.
         14    1    1    2    0    0 -0.16211998696E-01  0.48013895797E-02 -0.14389185270E-01  0.22202047121E-01  0.00000000000E+00 0.  1.
     999901    1    3    3    0    0 -0.10438639499E+00  0.50006917805E-01  0.12711337017E-01  0.88767042836E+00  0.88000000000E+00 0. -1.
        -11    1    4    4    0    0  0.73446607518E-01 -0.24332692661E-01 -0.48942839343E-02  0.77528699359E-01  0.51100000000E-03 0. -1.
         11    1    4    4    0    0  0.47151786172E-01 -0.30475614724E-01  0.65721321871E-02  0.56528825165E-01  0.51100000000E-03 0.  1.
</event>
<event>
 8    1  0.1106168E+005  0.1043930E+01  0.7957747E-01            NaN
         13   -1    0    0    0    0  0.00000000000E+00  0.00000000000E+00  0.74505805969E-08  0.10566000000E+00  0.10566000000E+00 0.  1.
     999900   -1    0    0    0    0 -0.00000000000E+00 -0.00000000000E+00 -0.74505805969E-08  0.93827000000E+00  0.93827000000E+00 0.  1.
     999902    2    1    2    0    0 -0.22194165035E-01  0.82703889951E-03  0.11056639793E-01  0.10191204406E+01  0.10188184128E+01 0.  0.
     999903    2    3    3    0    0 -0.63075270511E-01  0.87685313787E-01  0.72942893311E-01  0.13173916228E+00  0.19166042656E-01 0.  0.
         14    1    1    2    0    0  0.22194165035E-01 -0.82703889951E-03 -0.11056639793E-01  0.24809559416E-01  0.00000000000E+00 0. -1.
     999901    1    3    3    0    0  0.40881105476E-01 -0.86858274887E-01 -0.61886253518E-01  0.88738127830E+00  0.88000000000E+00 0.  1.
        -11    1    4    4    0    0 -0.46607839258E-01  0.59929962335E-01  0.60752614559E-01  0.97236990711E-01  0.51100000000E-03 0.  1.
         11    1    4    4    0    0 -0.16467431252E-01  0.27755351451E-01  0.12190278752E-01  0.34502171573E-01  0.51100000000E-03 0. -1.
</event>
<event>
 8    1  0.1106168E+005  0.1043930E+01  0.7957747E-01            NaN
         13   -1    0    0    0    0  0.00000000000E+00  0.00000000000E+00  0.74505805969E-08  0.10566000000E+00  0.10566000000E+00 0.  1.
     999900   -1    0    0    0    0 -0.00000000000E+00 -0.00000000000E+00 -0.74505805969E-08  0.93827000000E+00  0.93827000000E+00 0. -1.
     999902    2    1    2    0    0 -0.67464665449E-02  0.18432199181E-01 -0.11743052405E-01  0.10210573076E+01  0.10208010900E+01 0.  0.
     999903    2    3    3    0    0 -0.68382868258E-01  0.69466809211E-01  0.86755007983E-01  0.13195357612E+00  0.19582149746E-01 0.  0.
         14    1    1    2    0    0  0.67464665449E-02 -0.18432199181E-01  0.11743052405E-01  0.22872692393E-01  0.00000000000E+00 0.  1.
     999901    1    3    3    0    0  0.61636401713E-01 -0.51034610029E-01 -0.98498060388E-01  0.88910373148E+00  0.88000000000E+00 0. -1.
        -11    1    4    4    0    0 -0.12009585092E-01  0.11543037272E-01  0.60443967277E-02  0.17727597027E-01  0.51100000000E-03 0.  1.
         11    1    4    4    0    0 -0.56373283166E-01  0.57923771939E-01  0.80710611255E-01  0.11422597910E+00  0.51100000000E-03 0. -1.
</event>
<event>
 8    1  0.1106168E+005  0.1043930E+01  0.7957747E-01            NaN
         13   -1    0    0    0    0  0.00000000000E+00  0.00000000000E+00  0.74505805969E-08  0.10566000000E+00  0.10566000000E+00 0. -1.
     999900   -1    0    0    0    0 -0.00000000000E+00 -0.00000000000E+00 -0.74505805969E-08  0.93827000000E+00  0.93827000000E+00 0. -1.
     999902    2    1    2    0    0 -0.16358397937E-01  0.16804273514E-01  0.10758612710E-01  0.10181282842E+01  0.10178012942E+01 0.  0.
     999903    2    3    3    0    0 -0.11819702923E+00  0.29457333710E-01 -0.41983868313E-01  0.13059632642E+00  0.21318608044E-01 0.  0.
         14    1    1    2    0    0  0.16358397937E-01 -0.16804273514E-01 -0.10758612710E-01  0.25801715812E-01  0.00000000000E+00 0.  1.
     999901    1    3    3    0    0  0.10183863129E+00 -0.12653060196E-01  0.52742481022E-01  0.88753195777E+00  0.88000000000E+00 0.  1.
        -11    1    4    4    0    0 -0.96792191287E-01  0.28868401032E-01 -0.27312483648E-01  0.10463434310E+00  0.51100000000E-03 0. -1.
         11    1    4    4    0    0 -0.21404837938E-01  0.58893267856E-03 -0.14671384664E-01  0.25961983318E-01  0.51100000000E-03 0.  1.
</event>
<event>
 8    1  0.1106168E+005  0.1043930E+01  0.7957747E-01            NaN
         13   -1    0    0    0    0  0.00000000000E+00  0.00000000000E+00  0.74505805969E-08  0.10566000000E+00  0.10566000000E+00 0.  1.
     999900   -1    0    0    0    0 -0.00000000000E+00 -0.00000000000E+00 -0.74505805969E-08  0.93827000000E+00  0.93827000000E+00 0.  1.
     999902    2    1    2    0    0  0.23541181231E-01 -0.35022189518E-02  0.33685998491E-02  0.10198925248E+01  0.10196092202E+01 0.  0.
     999903    2    3    3    0    0  0.64741827252E-02  0.39248837478E-01 -0.12196383741E+00  0.12982109217E+00  0.19898543952E-01 0.  0.
         14    1    1    2    0    0 -0.23541181231E-01  0.35022189518E-02 -0.33685998491E-02  0.24037475247E-01  0.00000000000E+00 0. -1.
     999901    1    3    3    0    0  0.17066998506E-01 -0.42751056430E-01  0.12533243726E+00  0.89007143258E+00  0.88000000000E+00 0.  1.
        -11    1    4    4    0    0  0.15302278040E-02  0.20268779225E-01 -0.33336584442E-01  0.39048098438E-01  0.51100000000E-03 0. -1.
         11    1    4    4    0    0  0.49439549212E-02  0.18980058253E-01 -0.88627252970E-01  0.90772993735E-01  0.51100000000E-03 0.  1.
</event>
<event>
 8    1  0.1106168E+005  0.1043930E+01  0.7957747E-01            NaN
         13   -1    0    0    0    0  0.00000000000E+00  0.00000000000E+00  0.74505805969E-08  0.10566000000E+00  0.10566000000E+00 0.  1.
     999900   -1    0    0    0    0 -0.00000000000E+00 -0.00000000000E+00 -0.74505805969E-08  0.93827000000E+00  0.93827000000E+00 0.  1.
     999902    2    1    2    0    0  0.14093905895E-01  0.18549413966E-01 -0.11642162930E-02  0.10206045988E+01  0.10203380189E+01 0.  0.
     999903    2    3    3    0    0  0.32070073468E-01  0.11051793772E+00 -0.62825906185E-01  0.13348368485E+00  0.25061832784E-01 0.  0.
         14    1    1    2    0    0 -0.14093905895E-01 -0.18549413966E-01  0.11642162930E-02  0.23325401207E-01  0.00000000000E+00 0.  1.
     999901    1    3    3    0    0 -0.17976167573E-01 -0.91968523752E-01  0.61661689892E-01  0.88712091395E+00  0.88000000000E+00 0.  1.
        -11    1    4    4    0    0  0.16581367606E-01  0.86498358638E-01 -0.55035887672E-01  0.10385623646E+00  0.51100000000E-03 0. -1.
         11    1    4    4    0    0  0.15488705862E-01  0.24019579080E-01 -0.77900185132E-02  0.29627448387E-01  0.51100000000E-03 0.  1.
</event>
<event>
 8    1  0.1106168E+005  0.1043930E+01  0.7957747E-01            NaN
         13   -1    0    0    0    0  0.00000000000E+00  0.00000000000E+00  0.74505805969E-08  0.10566000000E+00  0.10566000000E+00 0.  1.
     999900   -1    0    0    0    0 -0.00000000000E+00 -0.00000000000E+00 -0.74505805969E-08  0.93827000000E+00  0.93827000000E+00 0.  1.
     999902    2    1    2    0    0  0.28925524094E-02  0.99493198250E-02  0.21203227916E-01  0.10203305784E+01  0.10200576241E+01 0.  0.
     999903    2    3    3    0    0  0.58639457920E-01  0.10059712682E+00 -0.55721518838E-01  0.13058782962E+00  0.19746534750E-01 0.  0.
         14    1    1    2    0    0 -0.28925524094E-02 -0.99493198250E-02 -0.21203227916E-01  0.23599421571E-01  0.00000000000E+00 0. -1.
     999901    1    3    3    0    0 -0.55746905511E-01 -0.90647806996E-01  0.76924746754E-01  0.88974274880E+00  0.88000000000E+00 0. -1.
        -11    1    4    4    0    0  0.13986981266E-01  0.43012455862E-01 -0.21263408617E-01  0.49981003104E-01  0.51100000000E-03 0. -1.
         11    1    4    4    0    0  0.44652476654E-01  0.57584670958E-01 -0.34458110222E-01  0.80606826521E-01  0.51100000000E-03 0.  1.
</event>
<event>
 8    1  0.1476421E+005  0.1043930E+01  0.7957747E-01            NaN
         13   -1    0    0    0    0  0.00000000000E+00  0.00000000000E+00  0.74505805969E-08  0.10566000000E+00  0.10566000000E+00 0. -1.
     999900   -1    0    0    0    0 -0.00000000000E+00 -0.00000000000E+00 -0.74505805969E-08  0.93827000000E+00  0.93827000000E+00 0.  1.
     999902    2    1    2    0    0  0.14904492556E-01 -0.14935908582E-01 -0.15953301365E-01  0.10174775315E+01  0.10171336166E+01 0.  0.
     999903    2    3    3    0    0 -0.48719127798E-01 -0.39995801892E-01  0.10532478037E+00  0.12653177761E+00  0.30720738992E-01 0.  0.
         14    1    1    2    0    0 -0.14904492556E-01  0.14935908582E-01  0.15953301365E-01  0.26452468466E-01  0.00000000000E+00 0. -1.
     999901    1    3    3    0    0  0.63623620353E-01  0.25059893311E-01 -0.12127808173E+00  0.89094575392E+00  0.88000000000E+00 0.  1.
        -11    1    4    4    0    0 -0.42831284737E-01 -0.18404918856E-01  0.60029680249E-01  0.76007128758E-01  0.51100000000E-03 0.  1.
         11    1    4    4    0    0 -0.58878430609E-02 -0.21590883036E-01  0.45295100119E-01  0.50524648855E-01  0.51100000000E-03 0. -1.
</event>
<event>
 8    1  0.1106168E+005  0.1043930E+01  0.7957747E-01            NaN
         13   -1    0    0    0    0  0.00000000000E+00  0.00000000000E+00  0.74505805969E-08  0.10566000000E+00  0.10566000000E+00 0.  1.
     999900   -1    0    0    0    0 -0.00000000000E+00 -0.00000000000E+00 -0.74505805969E-08  0.93827000000E+00  0.93827000000E+00 0. -1.
     999902    2    1    2    0    0  0.80709682350E-02 -0.22145456680E-01  0.72328902214E-02  0.10192748488E+01  0.10189766145E+01 0.  0.
     999903    2    3    3    0    0 -0.10078890581E+00  0.57459649068E-01  0.51911803252E-01  0.12788063168E+00  0.14092758357E-01 0.  0.
         14    1    1    2    0    0 -0.80709682350E-02  0.22145456680E-01 -0.72328902214E-02  0.24655151202E-01  0.00000000000E+00 0.  1.
     999901    1    3    3    0    0  0.10885987404E+00 -0.79605105748E-01 -0.44678913030E-01  0.89139421712E+00  0.88000000000E+00 0.  1.
        -11    1    4    4    0    0 -0.29253454748E-01  0.97913760758E-02  0.15420576594E-01  0.34491897072E-01  0.51100000000E-03 0. -1.
         11    1    4    4    0    0 -0.71535451058E-01  0.47668272993E-01  0.36491226658E-01  0.93388734611E-01  0.51100000000E-03 0.  1.
</event>
<event>
 8    1  0.1106168E+005  0.1043930E+01  0.7957747E-01            NaN
         13   -1    0    0    0    0  0.00000000000E+00  0.00000000000E+00  0.74505805969E-08  0.10566000000E+00  0.10566000000E+00 0.  1.
     999900   -1    0    0    0    0 -0.00000000000E+00 -0.00000000000E+00 -0.74505805969E-08  0.93827000000E+00  0.93827000000E+00 0.  1.
     999902    2    1    2    0    0  0.20062878228E-01  0.26740312264E-02 -0.11086853330E-01  0.10208521352E+01  0.10205912473E+01 0.  0.
     999903    2    3    3    0    0  0.62569754623E-01 -0.10686261947E+00 -0.42361206792E-01  0.13249229959E+00  0.20619019780E-01 0.  0.
         14    1    1    2    0    0 -0.20062878228E-01 -0.26740312264E-02  0.11086853330E-01  0.23077864774E-01  0.00000000000E+00 0.  1.
     999901    1    3    3    0    0 -0.42506876395E-01  0.10953665069E+00  0.31274353462E-01  0.88835983564E+00  0.88000000000E+00 0.  1.
        -11    1    4    4    0    0  0.39270725782E-01 -0.68712287425E-01 -0.37325423436E-01  0.87504381046E-01  0.51100000000E-03 0.  1.
         11    1    4    4    0    0  0.23299028841E-01 -0.38150332043E-01 -0.50357833566E-02  0.44987918544E-01  0.51100000000E-03 0. -1.
</event>
<event>
 8    1  0.1106168E+005  0.1043930E+01  0.7957747E-01            NaN
         13   -1    0    0    0    0  0.00000000000E+00  0.00000000000E+00  0.74505805969E-08  0.10566000000E+00  0.10566000000E+00 0. -1.
     999900   -1    0    0    0    0 -0.00000000000E+00 -0.00000000000E+00 -0.74505805969E-08  0.93827000000E+00  0.93827000000E+00 0.  1.
     999902    2    1    2    0    0  0.14050265133E-01  0.21080557067E-01 -0.61420102688E-02  0.10178623164E+01  0.10175284621E+01 0.  0.
     999903    2    3    3    0    0  0.83055300131E-01 -0.64843107037E-01 -0.70967311026E-01  0.12862281521E+00  0.20116111671E-01 0.  0.
         14    1    1    2    0    0 -0.14050265133E-01 -0.21080557067E-01  0.61420102688E-02  0.26067683570E-01  0.00000000000E+00 0. -1.
     999901    1    3    3    0    0 -0.69005034999E-01  0.85923664104E-01  0.64825300757E-01  0.88923950122E+00  0.88000000000E+00 0. -1.
        -11    1    4    4    0    0  0.46032229628E-01 -0.37901832145E-01 -0.28184225155E-01  0.65955490393E-01  0.51100000000E-03 0. -1.
         11    1    4    4    0    0  0.37023070504E-01 -0.26941274893E-01 -0.42783085871E-01  0.62667324819E-01  0.51100000000E-03 0.  1.
</event>
<event>
 8    1  0.1106168E+005  0.1043930E+01  0.7957747E-01            NaN
         13   -1    0    0    0    0  0.00000000000E+00  0.00000000000E+00  0.74505805969E-08  0.10566000000E+00  0.10566000000E+00 0. -1.
     999900   -1    0    0    0    0 -0.00000000000E+00 -0.00000000000E+00 -0.74505805969E-08  0.93827000000E+00  0.93827000000E+00 0. -1.
     999902    2    1    2    0    0  0.10031482190E-01  0.21093426713E-01  0.40258586186E-02  0.10202282949E+01  0.10199529415E+01 0.  0.
     999903    2    3    3    0    0  0.11121356241E+00  0.40573078188E-01 -0.55419141309E-01  0.13222436578E+00  0.19934155222E-01 0.  0.
         14    1    1    2    0    0 -0.10031482190E-01 -0.21093426713E-01 -0.40258586186E-02  0.23701705066E-01  0.00000000000E+00 0. -1.
     999901    1    3    3    0    0 -0.10118208022E+00 -0.19479651475E-01  0.59444999927E-01  0.88800392916E+00  0.88000000000E+00 0.  1.
        -11    1    4    4    0    0  0.40922298004E-01  0.13704116878E-01 -0.30889451491E-01  0.53074067375E-01  0.51100000000E-03 0. -1.
         11    1    4    4    0    0  0.70291264407E-01  0.26868961310E-01 -0.24529689818E-01  0.79150298404E-01  0.51100000000E-03 0.  1.
</event>
<event>
 8    1  0.1106168E+005  0.1043930E+01  0.7957747E-01            NaN
         13   -1    0    0    0    0  0.00000000000E+00  0.00000000000E+00  0.74505805969E-08  0.10566000000E+00  0.10566000000E+00 0. -1.
     999900   -1    0    0    0    0 -0.00000000000E+00 -0.00000000000E+00 -0.74505805969E-08  0.93827000000E+00  0.93827000000E+00 0. -1.
     999902    2    1    2    0    0 -0.17497803849E-01 -0.14599313312E-01  0.30458711383E-02  0.10209389056E+01  0.10206799982E+01 0.  0.
     999903    2    3    3    0    0  0.11685828654E+00  0.45076161706E-01  0.21352960159E-01  0.12855565230E+00  0.19567507294E-01 0.  0.
         14    1    1    2    0    0  0.17497803849E-01  0.14599313312E-01 -0.30458711383E-02  0.22991094357E-01  0.00000000000E+00 0.  1.
     999901    1    3    3    0    0 -0.13435609039E+00 -0.59675475018E-01 -0.18307089021E-01  0.89238325335E+00  0.88000000000E+00 0.  1.
        -11    1    4    4    0    0  0.97264361360E-01  0.37352768471E-01  0.10122700569E-01  0.10468197309E+00  0.51100000000E-03 0. -1.
         11    1    4    4    0    0  0.19593925184E-01  0.77233932355E-02  0.11230259590E-01  0.23873679202E-01  0.51100000000E-03 0.  1.
</event>
<event>
 8    1  0.1106168E+005  0.1043930E+01  0.7957747E-01            NaN
         13   -1    0    0    0    0  0.00000000000E+00  0.00000000000E+00  0.74505805969E-08  0.10566000000E+00  0.10566000000E+00 0. -1.
     999900   -1    0    0    0    0 -0.00000000000E+00 -0.00000000000E+00 -0.74505805969E-08  0.93827000000E+00  0.93827000000E+00 0.  1.
     999902    2    1    2    0    0  0.71577394130E-02 -0.14032242502E-01 -0.21788945288E-01  0.10170432895E+01  0.10166878368E+01 0.  0.
     999903    2    3    3    0    0 -0.92167745302E-01  0.68345521112E-01 -0.51832791151E-01  0.12712515817E+00  0.17554602550E-01 0.  0.
         14    1    1    2    0    0 -0.71577394130E-02  0.14032242502E-01  0.21788945288E-01  0.26886710470E-01  0.00000000000E+00 0.  1.
     999901    1    3    3    0    0  0.99325484715E-01 -0.82377763614E-01  0.30043845863E-01  0.88991813136E+00  0.88000000000E+00 0.  1.
        -11    1    4    4    0    0 -0.22439842067E-01  0.13462290329E-01 -0.45150765601E-02  0.26559872180E-01  0.51100000000E-03 0.  1.
         11    1    4    4    0    0 -0.69727903235E-01  0.54883230783E-01 -0.47317714591E-01  0.10056528599E+00  0.51100000000E-03 0. -1.
</event>
<event>
 8    1  0.1106168E+005  0.1043930E+01  0.7957747E-01            NaN
         13   -1    0    0    0    0  0.00000000000E+00  0.00000000000E+00  0.74505805969E-08  0.10566000000E+00  0.10566000000E+00 0. -1.
     999900   -1    0    0    0    0 -0.00000000000E+00 -0.00000000000E+00 -0.74505805969E-08  0.93827000000E+00  0.93827000000E+00 0.  1.
     999902    2    1    2    0    0 -0.75577370250E-02 -0.56059850278E-02 -0.20017624862E-01  0.10218109638E+01  0.10215715315E+01 0.  0.
     999903    2    3    3    0    0 -0.12917023008E+00  0.29511723430E-02 -0.11999840363E-01  0.13337013388E+00  0.30821075343E-01 0.  0.
         14    1    1    2    0    0  0.75577370250E-02  0.56059850278E-02  0.20017624862E-01  0.22119036195E-01  0.00000000000E+00 0. -1.
     999901    1    3    3    0    0  0.12161249306E+00 -0.85571573707E-02 -0.80177844990E-02  0.88844082992E+00  0.88000000000E+00 0.  1.
        -11    1    4    4    0    0 -0.49580815858E-01 -0.21248132032E-02 -0.19375518235E-01  0.53277049094E-01  0.51100000000E-03 0.  1.
         11    1    4    4    0    0 -0.79589414222E-01  0.50759855461E-02  0.73756778722E-02  0.80093084786E-01  0.51100000000E-03 0. -1.
</event>
<event>
 8    1  0.1106168E+005  0.1043930E+01  0.7957747E-01            NaN
         13   -1    0    0    0    0  0.00000000000E+00  0.00000000000E+00  0.74505805969E-08  0.10566000000E+00  0.10566000000E+00 0. -1.
     999900   -1    0    0    0    0 -0.00000000000E+00 -0.00000000000E+00 -0.74505805969E-08  0.93827000000E+00  0.93827000000E+00 0.  1.
     999902    2    1    2    0    0 -0.21171331795E-01 -0.42564161231E-02 -0.46513133621E-04  0.10223349883E+01  0.10221068847E+01 0.  0.
     999903    2    3    3    0    0 -0.15975415606E-03  0.11691582131E+00 -0.57691304415E-01  0.13191535715E+00  0.20100747560E-01 0.  0.
         14    1    1    2    0    0  0.21171331795E-01  0.42564161231E-02  0.46513133621E-04  0.21595011731E-01  0.00000000000E+00 0. -1.
     999901    1    3    3    0    0 -0.21011577639E-01 -0.12117223744E+00  0.57644791281E-01  0.89041963112E+00  0.88000000000E+00 0.  1.
        -11    1    4    4    0    0 -0.91633033890E-02  0.36223898035E-01 -0.16111839494E-01  0.40693849790E-01  0.51100000000E-03 0. -1.
         11    1    4    4    0    0  0.90035492329E-02  0.80691923278E-01 -0.41579464920E-01  0.91221507360E-01  0.51100000000E-03 0.  1.
</event>
<event>
 8    1  0.1106168E+005  0.1043930E+01  0.7957747E-01            NaN
         13   -1    0    0    0    0  0.00000000000E+00  0.00000000000E+00  0.74505805969E-08  0.10566000000E+00  0.10566000000E+00 0. -1.
     999900   -1    0    0    0    0 -0.00000000000E+00 -0.00000000000E+00 -0.74505805969E-08  0.93827000000E+00  0.93827000000E+00 0. -1.
     999902    2    1    2    0    0  0.54523450961E-02  0.11742967407E-01  0.20846582379E-01  0.10193901274E+01  0.10190947093E+01 0.  0.
     999903    2    3    3    0    0 -0.40118088624E-01  0.22016664778E-01  0.12256452428E+00  0.13230007955E+00  0.19673684824E-01 0.  0.
         14    1    1    2    0    0 -0.54523450961E-02 -0.11742967407E-01 -0.20846582379E-01  0.24539872604E-01  0.00000000000E+00 0.  1.
     999901    1    3    3    0    0  0.45570433720E-01 -0.10273697371E-01 -0.10171794190E+00  0.88709004785E+00  0.88000000000E+00 0. -1.
        -11    1    4    4    0    0 -0.24767083121E-01  0.51734956222E-02  0.47102523437E-01  0.53470387117E-01  0.51100000000E-03 0.  1.
         11    1    4    4    0    0 -0.15351005503E-01  0.16843169155E-01  0.75462000839E-01  0.78829692431E-01  0.51100000000E-03 0. -1.
</event>
<event>
 8    1  0.1106168E+005  0.1043930E+01  0.7957747E-01            NaN
         13   -1    0    0    0    0  0.00000000000E+00  0.00000000000E+00  0.74505805969E-08  0.10566000000E+00  0.10566000000E+00 0.  1.
     999900   -1    0    0    0    0 -0.00000000000E+00 -0.00000000000E+00 -0.74505805969E-08  0.93827000000E+00  0.93827000000E+00 0. -1.
     999902    2    1    2    0    0 -0.94609852231E-02  0.20295685709E-01  0.87481089955E-02  0.10198893155E+01  0.10196059344E+01 0.  0.
     999903    2    3    3    0    0  0.55586920743E-01  0.75176107611E-01 -0.88908470921E-01  0.13040637673E+00  0.18967181577E-01 0.  0.
         14    1    1    2    0    0  0.94609852231E-02 -0.20295685709E-01 -0.87481089955E-02  0.24040684491E-01  0.00000000000E+00 0. -1.
     999901    1    3    3    0    0 -0.65047905966E-01 -0.54880421902E-01  0.97656579917E-01  0.88948293878E+00  0.88000000000E+00 0.  1.
        -11    1    4    4    0    0  0.25919267784E-01  0.40787608069E-01 -0.33715972858E-01  0.58927628165E-01  0.51100000000E-03 0.  1.
         11    1    4    4    0    0  0.29667652959E-01  0.34388499542E-01 -0.55192498064E-01  0.71478748565E-01  0.51100000000E-03 0. -1.
</event>
<event>
 8    1  0.1106168E+005  0.1043930E+01  0.7957747E-01            NaN
         13   -1    0    0    0    0  0.00000000000E+00  0.00000000000E+00  0.74505805969E-08  0.10566000000E+00  0.10566000000E+00 0. -1.
     999900   -1    0    0    0    0 -0.00000000000E+00 -0.00000000000E+00 -0.74505805969E-08  0.93827000000E+00  0.93827000000E+00 0. -1.
     999902    2    1    2    0    0 -0.12022627190E-01 -0.20354729534E-01  0.35746311357E-02  0.10200210777E+01  0.10197408310E+01 0.  0.
     999903    2    3    3    0    0 -0.29337577259E-01 -0.12818294652E+00  0.79253081755E-02  0.13325974549E+00  0.20094477835E-01 0.  0.
         14    1    1    2    0    0  0.12022627190E-01  0.20354729534E-01 -0.35746311357E-02  0.23908922324E-01  0.00000000000E+00 0.  1.
     999901    1    3    3    0    0  0.17314950069E-01  0.10782821699E+00 -0.43506770398E-02  0.88676133219E+00  0.88000000000E+00 0. -1.
        -11    1    4    4    0    0 -0.23556170037E-01 -0.80292149549E-01  0.13269393992E-01  0.84723434562E-01  0.51100000000E-03 0.  1.
         11    1    4    4    0    0 -0.57814072222E-02 -0.47890796972E-01 -0.53440858160E-02  0.48536310925E-01  0.51100000000E-03 0. -1.
</event>
<event>
 8    1  0.1106168E+005  0.1043930E+01  0.7957747E-01            NaN
         13   -1    0    0    0    0  0.00000000000E+00  0.00000000000E+00  0.74505805969E-08  0.10566000000E+00  0.10566000000E+00 0.  1.
     999900   -1    0    0    0    0 -0.00000000000E+00 -0.00000000000E+00 -0.74505805969E-08  0.93827000000E+00  0.93827000000E+00 0. -1.
     999902    2    1    2    0    0  0.79112288754E-02 -0.22721546423E-01 -0.15732982282E-02  0.10198191833E+01  0.10195341265E+01 0.  0.
     999903    2    3    3    0    0 -0.93779286899E-02  0.12224923719E+00 -0.28882947610E-01  0.12737240057E+00  0.18886032526E-01 0.  0.
         14    1    1    2    0    0 -0.79112288754E-02  0.22721546423E-01  0.15732982282E-02  0.24110816691E-01  0.00000000000E+00 0.  1.
     999901    1    3    3    0    0  0.17289157565E-01 -0.14497078361E+00  0.27309649382E-01  0.89244678274E+00  0.88000000000E+00 0. -1.
        -11    1    4    4    0    0 -0.40381162170E-03  0.85110424551E-01 -0.26257940038E-01  0.89071252192E-01  0.51100000000E-03 0. -1.
         11    1    4    4    0    0 -0.89741170682E-02  0.37138812639E-01 -0.26250075724E-02  0.38301148379E-01  0.51100000000E-03 0.  1.
</event>
<event>
 8    1  0.1106168E+005  0.1043930E+01  0.7957747E-01            NaN
         13   -1    0    0    0    0  0.00000000000E+00  0.00000000000E+00  0.74505805969E-08  0.10566000000E+00  0.10566000000E+00 0. -1.
     999900   -1    0    0    0    0 -0.00000000000E+00 -0.00000000000E+00 -0.74505805969E-08  0.93827000000E+00  0.93827000000E+00 0.  1.
     999902    2    1    2    0    0 -0.11121090074E-01 -0.21211838758E-01  0.16260986037E-02  0.10199244810E+01  0.10196419381E+01 0.  0.
     999903    2    3    3    0    0 -0.60883266755E-01 -0.50942273016E-01 -0.10328573122E+00  0.13179911538E+00  0.20029408094E-01 0.  0.
         14    1    1    2    0    0  0.11121090074E-01  0.21211838758E-01 -0.16260986037E-02  0.24005519044E-01  0.00000000000E+00 0. -1.
     999901    1    3    3    0    0  0.49762176680E-01  0.29730434259E-01  0.10491182983E+00  0.88812536558E+00  0.88000000000E+00 0. -1.
        -11    1    4    4    0    0 -0.33696222558E-01 -0.20314171604E-01 -0.37823209928E-01  0.54579825145E-01  0.51100000000E-03 0.  1.
         11    1    4    4    0    0 -0.27187044196E-01 -0.30628101412E-01 -0.65462521296E-01  0.77219290230E-01  0.51100000000E-03 0. -1.
</event>
<event>
 8    1  0.1106168E+005  0.1043930E+01  0.7957747E-01            NaN
         13   -1    0    0    0    0  0.00000000000E+00  0.00000000000E+00  0.74505805969E-08  0.10566000000E+00  0.10566000000E+00 0. -1.
     999900   -1    0    0    0    0 -0.00000000000E+00 -0.00000000000E+00 -0.74505805969E-08  0.93827000000E+00  0.93827000000E+00 0. -1.
     999902    2    1    2    0    0 -0.92171355048E-02  0.71551457228E-02 -0.20960013245E-01  0.10199409639E+01  0.10196588135E+01 0.  0.
     999903    2    3    3    0    0 -0.16845990136E-01 -0.12476875464E+00 -0.24820603040E-01  0.13006624292E+00  0.21216401490E-01 0.  0.
         14    1    1    2    0    0  0.92171355048E-02 -0.71551457228E-02  0.20960013245E-01  0.23989036089E-01  0.00000000000E+00 0.  1.
     999901    1    3    3    0    0  0.76288546309E-02  0.13192390037E+00  0.38605897951E-02  0.88987472099E+00  0.88000000000E+00 0.  1.
        -11    1    4    4    0    0  0.32600566899E-02 -0.26969535041E-01 -0.10810153446E-01  0.29242166959E-01  0.51100000000E-03 0. -1.
         11    1    4    4    0    0 -0.20106046826E-01 -0.97799219603E-01 -0.14010449595E-01  0.10082407596E+00  0.51100000000E-03 0.  1.
</event>
<event>
 8    1  0.1106168E+005  0.1043930E+01  0.7957747E-01            NaN
         13   -1    0    0    0    0  0.00000000000E+00  0.00000000000E+00  0.74505805969E-08  0.10566000000E+00  0.10566000000E+00 0.  1.
     999900   -1    0    0    0    0 -0.00000000000E+00 -0.00000000000E+00 -0.74505805969E-08  0.93827000000E+00  0.93827000000E+00 0.  1.
     999902    2    1    2    0    0  0.23648072834E-01 -0.14616162348E-02  0.37369546387E-02  0.10199439103E+01  0.10196618300E+01 0.  0.
     999903    2    3    3    0    0 -0.82178435835E-01  0.60981039839E-01  0.75375269337E-01  0.12852348007E+00  0.19101601137E-01 0.  0.
         14    1    1    2    0    0 -0.23648072834E-01  0.14616162348E-02 -0.37369546387E-02  0.23986089734E-01  0.00000000000E+00 0.  1.
     999901    1    3    3    0    0  0.10582650867E+00 -0.62442656074E-01 -0.71638314698E-01  0.89142043019E+00  0.88000000000E+00 0. -1.
        -11    1    4    4    0    0 -0.56728377141E-01  0.52361054966E-01  0.54701534142E-01  0.94616636004E-01  0.51100000000E-03 0.  1.
         11    1    4    4    0    0 -0.25450058693E-01  0.86199848734E-02  0.20673735195E-01  0.33906844068E-01  0.51100000000E-03 0. -1.
</event>
<event>
 8    1  0.1106168E+005  0.1043930E+01  0.7957747E-01            NaN
         13   -1    0    0    0    0  0.00000000000E+00  0.00000000000E+00  0.74505805969E-08  0.10566000000E+00  0.10566000000E+00 0.  1.
     999900   -1    0    0    0    0 -0.00000000000E+00 -0.00000000000E+00 -0.74505805969E-08  0.93827000000E+00  0.93827000000E+00 0.  1.
     999902    2    1    2    0    0 -0.97441343161E-02  0.15635835626E-01  0.14479758134E-01  0.10204973112E+01  0.10202282447E+01 0.  0.
     999903    2    3    3    0    0  0.42782810453E-01 -0.11908327334E+00 -0.12853594075E-01  0.12827792651E+00  0.16697804953E-01 0.  0.
         14    1    1    2    0    0  0.97441343161E-02 -0.15635835626E-01 -0.14479758134E-01  0.23432688811E-01  0.00000000000E+00 0. -1.
     999901    1    3    3    0    0 -0.52526944769E-01  0.13471910897E+00  0.27333352209E-01  0.89221938468E+00  0.88000000000E+00 0. -1.
        -11    1    4    4    0    0  0.38279577796E-01 -0.10564094103E+00 -0.16655808685E-01  0.11359142389E+00  0.51100000000E-03 0.  1.
         11    1    4    4    0    0  0.45032326575E-02 -0.13442332309E-01  0.38022146097E-02  0.14686502620E-01  0.51100000000E-03 0. -1.
</event>
<event>
 8    1  0.1106168E+005  0.1043930E+01  0.7957747E-01            NaN
         13   -1    0    0    0    0  0.00000000000E+00  0.00000000000E+00  0.74505805969E-08  0.10566000000E+00  0.10566000000E+00 0. -1.
     999900   -1    0    0    0    0 -0.00000000000E+00 -0.00000000000E+00 -0.74505805969E-08  0.93827000000E+00  0.93827000000E+00 0.  1.
     999902    2    1    2    0    0 -0.19997312622E-01 -0.78148541407E-02  0.91580624569E-02  0.10205883084E+01  0.10203213517E+01 0.  0.
     999903    2    3    3    0    0 -0.90086347312E-01  0.78015867613E-01  0.54715495264E-01  0.13246958593E+00  0.18771792723E-01 0.  0.
         14    1    1    2    0    0  0.19997312622E-01  0.78148541407E-02 -0.91580624569E-02  0.23341691569E-01  0.00000000000E+00 0.  1.
     999901    1    3    3    0    0  0.70089034691E-01 -0.85830721753E-01 -0.45557432807E-01  0.88811872251E+00  0.88000000000E+00 0. -1.
        -11    1    4    4    0    0 -0.54015363644E-01  0.39911884253E-01  0.39136911460E-01  0.77734014265E-01  0.51100000000E-03 0.  1.
         11    1    4    4    0    0 -0.36070983668E-01  0.38103983360E-01  0.15578583804E-01  0.54735571661E-01  0.51100000000E-03 0. -1.
</event>
<event>
 8    1  0.1106168E+005  0.1043930E+01  0.7957747E-01            NaN
         13   -1    0    0    0    0  0.00000000000E+00  0.00000000000E+00  0.74505805969E-08  0.10566000000E+00  0.10566000000E+00 0.  1.
     999900   -1    0    0    0    0 -0.00000000000E+00 -0.00000000000E+00 -0.74505805969E-08  0.93827000000E+00  0.93827000000E+00 0.  1.
     999902    2    1    2    0    0 -0.12664556013E-01  0.16322383359E-01 -0.14406400763E-01  0.10187435838E+01  0.10184321941E+01 0.  0.
     999903    2    3    3    0    0  0.17309740398E-01 -0.43964853621E-01 -0.11936891624E+00  0.12995219150E+00  0.20151884406E-01 0.  0.
         14    1    1    2    0    0  0.12664556013E-01 -0.16322383359E-01  0.14406400763E-01  0.25186416189E-01  0.00000000000E+00 0. -1.
     999901    1    3    3    0    0 -0.29974296411E-01  0.60287236980E-01  0.10496251548E+00  0.88879139231E+00  0.88000000000E+00 0.  1.
        -11    1    4    4    0    0 -0.22723508520E-02 -0.21218980317E-01 -0.48919359499E-01  0.53373903351E-01  0.51100000000E-03 0. -1.
         11    1    4    4    0    0  0.19582091250E-01 -0.22745873304E-01 -0.70449556741E-01  0.76578288151E-01  0.51100000000E-03 0.  1.
</event>
<event>
 8    1  0.1106168E+005  0.1043930E+01  0.7957747E-01            NaN
         13   -1    0    0    0    0  0.00000000000E+00  0.00000000000E+00  0.74505805969E-08  0.10566000000E+00  0.10566000000E+00 0.  1.
     999900   -1    0    0    0    0 -0.00000000000E+00 -0.00000000000E+00 -0.74505805969E-08  0.93827000000E+00  0.93827000000E+00 0. -1.
     999902    2    1    2    0    0 -0.30327493665E-02 -0.20671309155E-02  0.23582933770E-01  0.10200631744E+01  0.10197839254E+01 0.  0.
     999903    2    3    3    0    0  0.96518200640E-01 -0.36185707271E-01  0.79889528513E-01  0.13200636230E+00  0.20449314350E-01 0.  0.
         14    1    1    2    0    0  0.30327493665E-02  0.20671309155E-02 -0.23582933770E-01  0.23866825598E-01  0.00000000000E+00 0. -1.
     999901    1    3    3    0    0 -0.99550950006E-01  0.34118576356E-01 -0.56306594743E-01  0.88805681210E+00  0.88000000000E+00 0. -1.
        -11    1    4    4    0    0  0.82157588605E-01 -0.37084169702E-01  0.63915684133E-01  0.11050149685E+00  0.51100000000E-03 0. -1.
         11    1    4    4    0    0  0.14360612035E-01  0.89846243065E-03  0.15973844380E-01  0.21504865450E-01  0.51100000000E-03 0.  1.
</event>
<event>
 8    1  0.1106168E+005  0.1043930E+01  0.7957747E-01            NaN
         13   -1    0    0    0    0  0.00000000000E+00  0.00000000000E+00  0.74505805969E-08  0.10566000000E+00  0.10566000000E+00 0. -1.
     999900   -1    0    0    0    0 -0.00000000000E+00 -0.00000000000E+00 -0.74505805969E-08  0.93827000000E+00  0.93827000000E+00 0. -1.
     999902    2    1    2    0    0  0.19734287088E-01  0.10120887820E-01  0.80481149607E-02  0.10203366405E+01  0.10200638281E+01 0.  0.
     999903    2    3    3    0    0  0.86198909539E-01  0.17550408458E-01  0.97927636489E-01  0.13323401275E+00  0.20572100552E-01 0.  0.
         14    1    1    2    0    0 -0.19734287088E-01 -0.10120887820E-01 -0.80481149607E-02  0.23593359480E-01  0.00000000000E+00 0.  1.
     999901    1    3    3    0    0 -0.66464622450E-01 -0.74295206381E-02 -0.89879521529E-01  0.88710262777E+00  0.88000000000E+00 0.  1.
        -11    1    4    4    0    0  0.35874045049E-01 -0.16030349047E-02  0.31928215888E-01  0.48054020850E-01  0.51100000000E-03 0.  1.
         11    1    4    4    0    0  0.50324864490E-01  0.19153443363E-01  0.65999420601E-01  0.85179991895E-01  0.51100000000E-03 0. -1.
</event>
<event>
 8    1  0.1106168E+005  0.1043930E+01  0.7957747E-01            NaN
         13   -1    0    0    0    0  0.00000000000E+00  0.00000000000E+00  0.74505805969E-08  0.10566000000E+00  0.10566000000E+00 0.  1.
     999900   -1    0    0    0    0 -0.00000000000E+00 -0.00000000000E+00 -0.74505805969E-08  0.93827000000E+00  0.93827000000E+00 0. -1.
     999902    2    1    2    0    0 -0.43834864022E-02  0.30679028241E-02 -0.23179464138E-01  0.10201410417E+01  0.10198636332E+01 0.  0.
     999903    2    3    3    0    0  0.10781933336E+00  0.55398100282E-01  0.40265501299E-01  0.12921276960E+00  0.19510793707E-01 0.  0.
         14    1    1    2    0    0  0.43834864022E-02 -0.30679028241E-02  0.23179464138E-01  0.23788958332E-01  0.00000000000E+00 0.  1.
     999901    1    3    3    0    0 -0.11220281977E+00 -0.52330197458E-01 -0.63444965437E-01  0.89092827207E+00  0.88000000000E+00 0. -1.
        -11    1    4    4    0    0  0.77414376084E-01  0.48700035362E-01  0.26958980551E-01  0.95350547047E-01  0.51100000000E-03 0. -1.
         11    1    4    4    0    0  0.30404957280E-01  0.66980649197E-02  0.13306520748E-01  0.33862222554E-01  0.51100000000E-03 0.  1.
</event>
<event>
 8    1  0.1106168E+005  0.1043930E+01  0.7957747E-01            NaN
         13   -1    0    0    0    0  0.00000000000E+00  0.00000000000E+00  0.74505805969E-08  0.10566000000E+00  0.10566000000E+00 0. -1.
     999900   -1    0    0    0    0 -0.00000000000E+00 -0.00000000000E+00 -0.74505805969E-08  0.93827000000E+00  0.93827000000E+00 0. -1.
     999902    2    1    2    0    0  0.23668099875E-01  0.25843711499E-02  0.34448430775E-02  0.10198732989E+01  0.10195895355E+01 0.  0.
     999903    2    3    3    0    0 -0.51436981958E-01 -0.93731845197E-01  0.69217448557E-01  0.12900651730E+00  0.20498887897E-01 0.  0.
         14    1    1    2    0    0 -0.23668099875E-01 -0.25843711499E-02 -0.34448430775E-02  0.24056701140E-01  0.00000000000E+00 0. -1.
     999901    1    3    3    0    0  0.75105081832E-01  0.96316216347E-01 -0.65772605480E-01  0.89086678156E+00  0.88000000000E+00 0. -1.
        -11    1    4    4    0    0 -0.16325381263E-01 -0.32131612976E-01  0.35130239818E-01  0.50332429869E-01  0.51100000000E-03 0. -1.
         11    1    4    4    0    0 -0.35111600694E-01 -0.61600232222E-01  0.34087208739E-01  0.78674087435E-01  0.51100000000E-03 0.  1.
</event>
<event>
 8    1  0.1106168E+005  0.1043930E+01  0.7957747E-01            NaN
         13   -1    0    0    0    0  0.00000000000E+00  0.00000000000E+00  0.74505805969E-08  0.10566000000E+00  0.10566000000E+00 0.  1.
     999900   -1    0    0    0    0 -0.00000000000E+00 -0.00000000000E+00 -0.74505805969E-08  0.93827000000E+00  0.93827000000E+00 0. -1.
     999902    2    1    2    0    0  0.12675897512E-01  0.13188067531E-01 -0.14875432479E-01  0.10203528502E+01  0.10200804169E+01 0.  0.
     999903    2    3    3    0    0  0.51697755646E-01  0.76952974212E-01 -0.94131539186E-01  0.13363406769E+00  0.20072349140E-01 0.  0.
         14    1    1    2    0    0 -0.12675897512E-01 -0.13188067531E-01  0.14875432479E-01  0.23577149836E-01  0.00000000000E+00 0.  1.
     999901    1    3    3    0    0 -0.39021858134E-01 -0.63764906681E-01  0.79256106706E-01  0.88671878247E+00  0.88000000000E+00 0. -1.
        -11    1    4    4    0    0  0.50704883779E-01  0.63097907292E-01 -0.80868877268E-01  0.11442188416E+00  0.51100000000E-03 0.  1.
         11    1    4    4    0    0  0.99287186677E-03  0.13855066920E-01 -0.13262661917E-01  0.19212183531E-01  0.51100000000E-03 0. -1.
</event>
<event>
 8    1  0.1106168E+005  0.1043930E+01  0.7957747E-01            NaN
         13   -1    0    0    0    0  0.00000000000E+00  0.00000000000E+00  0.74505805969E-08  0.10566000000E+00  0.10566000000E+00 0.  1.
     999900   -1    0    0    0    0 -0.00000000000E+00 -0.00000000000E+00 -0.74505805969E-08  0.93827000000E+00  0.93827000000E+00 0.  1.
     999902    2    1    2    0    0 -0.48145620988E-03 -0.14592637353E-01  0.17909724199E-01  0.10208229646E+01  0.10205614092E+01 0.  0.
     999903    2    3    3    0    0  0.47487314402E-02 -0.10583495497E+00 -0.74907765793E-01  0.13123451938E+00  0.19691052707E-01 0.  0.
         14    1    1    2    0    0  0.48145620988E-03  0.14592637353E-01 -0.17909724199E-01  0.23107035419E-01  0.00000000000E+00 0. -1.
     999901    1    3    3    0    0 -0.52301876501E-02  0.91242317618E-01  0.92817489992E-01  0.88958844520E+00  0.88000000000E+00 0. -1.
        -11    1    4    4    0    0  0.11068676258E-01 -0.41720353913E-01 -0.33598943191E-01  0.54701495677E-01  0.51100000000E-03 0. -1.
         11    1    4    4    0    0 -0.63199448179E-02 -0.64114601058E-01 -0.41308822602E-01  0.76533023703E-01  0.51100000000E-03 0.  1.
</event>
<event>
 8    1  0.1106168E+005  0.1043930E+01  0.7957747E-01            NaN
         13   -1    0    0    0    0  0.00000000000E+00  0.00000000000E+00  0.74505805969E-08  0.10566000000E+00  0.10566000000E+00 0. -1.
     999900   -1    0    0    0    0 -0.00000000000E+00 -0.00000000000E+00 -0.74505805969E-08  0.93827000000E+00  0.93827000000E+00 0. -1.
     999902    2    1    2    0    0  0.15521311618E-02 -0.17402933298E-01 -0.15287181796E-01  0.10207142914E+01  0.10204502416E+01 0.  0.
     999903    2    3    3    0    0 -0.31071035983E-01  0.12644029422E-01 -0.12683768986E+00  0.13256418762E+00  0.18978501302E-01 0.  0.
         14    1    1    2    0    0 -0.15521311618E-02  0.17402933298E-01  0.15287181796E-01  0.23215708600E-01  0.00000000000E+00 0.  1.
     999901    1    3    3    0    0  0.32623167144E-01 -0.30046962720E-01  0.11155050807E+00  0.88815010378E+00  0.88000000000E+00 0.  1.
        -11    1    4    4    0    0 -0.10638116772E-01 -0.46785744040E-02 -0.43284503196E-01  0.44820396303E-01  0.51100000000E-03 0. -1.
         11    1    4    4    0    0 -0.20432919211E-01  0.17322603825E-01 -0.83553186666E-01  0.87743791312E-01  0.51100000000E-03 0.  1.
</event>
<event>
 8    1  0.1106168E+005  0.1043930E+01  0.7957747E-01            NaN
         13   -1    0    0    0    0  0.00000000000E+00  0.00000000000E+00  0.74505805969E-08  0.10566000000E+00  0.10566000000E+00 0.  1.
     999900   -1    0    0    0    0 -0.00000000000E+00 -0.00000000000E+00 -0.74505805969E-08  0.93827000000E+00  0.93827000000E+00 0.  1.
     999902    2    1    2    0    0  0.13109407893E-02  0.22557086110E-01  0.64056878923E-02  0.10204443972E+01  0.10201741000E+01 0.  0.
     999903    2    3    3    0    0  0.63442689910E-01 -0.94165471712E-01 -0.55798366905E-01  0.12839403197E+00  0.21896546074E-01 0.  0.
         14    1    1    2    0    0 -0.13109407893E-02 -0.22557086110E-01 -0.64056878923E-02  0.23485602758E-01  0.00000000000E+00 0. -1.
     999901    1    3    3    0    0 -0.62131749120E-01  0.11672255782E+00  0.62204054798E-01  0.89205036527E+00  0.88000000000E+00 0. -1.
        -11    1    4    4    0    0  0.36015611299E-01 -0.52474920119E-01 -0.43196230303E-01  0.76921498504E-01  0.51100000000E-03 0. -1.
         11    1    4    4    0    0  0.27427078611E-01 -0.41690551593E-01 -0.12602136602E-01  0.51472533464E-01  0.51100000000E-03 0.  1.
</event>
<event>
 8    1  0.1106168E+005  0.1043930E+01  0.7957747E-01            NaN
         13   -1    0    0    0    0  0.00000000000E+00  0.00000000000E+00  0.74505805969E-08  0.10566000000E+00  0.10566000000E+00 0.  1.
     999900   -1    0    0    0    0 -0.00000000000E+00 -0.00000000000E+00 -0.74505805969E-08  0.93827000000E+00  0.93827000000E+00 0.  1.
     999902    2    1    2    0    0  0.87366997807E-02  0.19305516382E-01 -0.97983634744E-02  0.10205838908E+01  0.10203168319E+01 0.  0.
     999903    2    3    3    0    0 -0.61330251618E-01  0.96443875807E-01  0.62011289567E-01  0.13153027579E+00  0.19798799752E-01 0.  0.
         14    1    1    2    0    0 -0.87366997807E-02 -0.19305516382E-01  0.97983634744E-02  0.23346109154E-01  0.00000000000E+00 0.  1.
     999901    1    3    3    0    0  0.70066951399E-01 -0.77138359425E-01 -0.71809653041E-01  0.88905361506E+00  0.88000000000E+00 0.  1.
        -11    1    4    4    0    0 -0.43216511725E-01  0.56331788522E-01  0.29869328091E-01  0.77028404925E-01  0.51100000000E-03 0. -1.
         11    1    4    4    0    0 -0.18113739893E-01  0.40112087286E-01  0.32141961476E-01  0.54501870866E-01  0.51100000000E-03 0.  1.
</event>
<event>
 8    1  0.1106168E+005  0.1043930E+01  0.7957747E-01            NaN
         13   -1    0    0    0    0  0.00000000000E+00  0.00000000000E+00  0.74505805969E-08  0.10566000000E+00  0.10566000000E+00 0. -1.
     999900   -1    0    0    0    0 -0.00000000000E+00 -0.00000000000E+00 -0.74505805969E-08  0.93827000000E+00  0.93827000000E+00 0.  1.
     999902    2    1    2    0    0 -0.17612460575E-02  0.19687965475E-01  0.14699882618E-01  0.10192965975E+01  0.10189988955E+01 0.  0.
     999903    2    3    3    0    0  0.74925028384E-01  0.70986652084E-01 -0.76116126219E-01  0.12982490740E+00  0.20198446944E-01 0.  0.
         14    1    1    2    0    0  0.17612460575E-02 -0.19687965475E-01 -0.14699882618E-01  0.24633402550E-01  0.00000000000E+00 0.  1.
     999901    1    3    3    0    0 -0.76686274441E-01 -0.51298686610E-01  0.90816008837E-01  0.88947169005E+00  0.88000000000E+00 0. -1.
        -11    1    4    4    0    0  0.62490827532E-01  0.47773153645E-01 -0.53760128966E-01  0.95277438685E-01  0.51100000000E-03 0. -1.
         11    1    4    4    0    0  0.12434200851E-01  0.23213498440E-01 -0.22355997253E-01  0.34547468718E-01  0.51100000000E-03 0.  1.
</event>
<event>
 8    1  0.1106168E+005  0.1043930E+01  0.7957747E-01            NaN
         13   -1    0    0    0    0  0.00000000000E+00  0.00000000000E+00  0.74505805969E-08  0.10566000000E+00  0.10566000000E+00 0.  1.
     999900   -1    0    0    0    0 -0.00000000000E+00 -0.00000000000E+00 -0.74505805969E-08  0.93827000000E+00  0.93827000000E+00 0.  1.
     999902    2    1    2    0    0  0.10366868419E-01  0.12086757692E-02  0.20479899631E-01  0.10209439358E+01  0.10206851429E+01 0.  0.
     999903    2    3    3    0    0  0.19494451807E-01  0.25257343098E-01 -0.12328294485E+00  0.12890727366E+00  0.20010839019E-01 0.  0.
         14    1    1    2    0    0 -0.10366868419E-01 -0.12086757692E-02 -0.20479899631E-01  0.22986064187E-01  0.00000000000E+00 0. -1.
     999901    1    3    3    0    0 -0.91275833881E-02 -0.24048667329E-01  0.14376284448E+00  0.89203666216E+00  0.88000000000E+00 0. -1.
        -11    1    4    4    0    0  0.21604892808E-02  0.17955890014E-01 -0.73304190631E-01  0.75503954765E-01  0.51100000000E-03 0.  1.
         11    1    4    4    0    0  0.17333962526E-01  0.73014530842E-02 -0.49978754221E-01  0.53403318890E-01  0.51100000000E-03 0. -1.
</event>
<event>
 8    1  0.1106168E+005  0.1043930E+01  0.7957747E-01            NaN
         13   -1    0    0    0    0  0.00000000000E+00  0.00000000000E+00  0.74505805969E-08  0.10566000000E+00  0.10566000000E+00 0.  1.
     999900   -1    0    0    0    0 -0.00000000000E+00 -0.00000000000E+00 -0.74505805969E-08  0.93827000000E+00  0.93827000000E+00 0.  1.
     999902    2    1    2    0    0  0.55153573475E-02  0.77763697583E-02 -0.67675686773E-02  0.10322385040E+01  0.10321722909E+01 0.  0.
     999903    2    3    3    0    0  0.32002963449E-01  0.59501836848E-01 -0.12391027526E+00  0.14257591012E+00  0.20235502773E-01 0.  0.
         14    1    1    2    0    0 -0.55153573475E-02 -0.77763697583E-02  0.67675686773E-02  0.11691496016E-01  0.00000000000E+00 0.  1.
     999901    1    3    3    0    0 -0.26487606101E-01 -0.51725467089E-01  0.11714270658E+00  0.88966259387E+00  0.88000000000E+00 0. -1.
        -11    1    4    4    0    0  0.27119423800E-01  0.30699181682E-01 -0.65290640062E-01  0.77078088351E-01  0.51100000000E-03 0.  1.
         11    1    4    4    0    0  0.48835396488E-02  0.28802655165E-01 -0.58619635199E-01  0.65497821765E-01  0.51100000000E-03 0. -1.
</event>
<event>
 8    1  0.1106168E+005  0.1043930E+01  0.7957747E-01            NaN
         13   -1    0    0    0    0  0.00000000000E+00  0.00000000000E+00  0.74505805969E-08  0.10566000000E+00  0.10566000000E+00 0.  1.
     999900   -1    0    0    0    0 -0.00000000000E+00 -0.00000000000E+00 -0.74505805969E-08  0.93827000000E+00  0.93827000000E+00 0.  1.
     999902    2    1    2    0    0 -0.17661080921E-01 -0.12211367667E-01 -0.62012386014E-02  0.10215808023E+01  0.10213363055E+01 0.  0.
     999903    2    3    3    0    0 -0.47115349180E-01  0.11955055839E+00 -0.17615176367E-01  0.13121063370E+00  0.19842979089E-01 0.  0.
         14    1    1    2    0    0  0.17661080921E-01  0.12211367667E-01  0.62012386014E-02  0.22349197744E-01  0.00000000000E+00 0.  1.
     999901    1    3    3    0    0  0.29454268259E-01 -0.13176192605E+00  0.11413937765E-01  0.89037016855E+00  0.88000000000E+00 0. -1.
        -11    1    4    4    0    0 -0.95145925985E-02  0.30242366314E-01 -0.12784289709E-01  0.34188117482E-01  0.51100000000E-03 0.  1.
         11    1    4    4    0    0 -0.37600756582E-01  0.89308192072E-01 -0.48308866575E-02  0.97022516219E-01  0.51100000000E-03 0. -1.
</event>
<event>
 8    1  0.1106168E+005  0.1043930E+01  0.7957747E-01            NaN
         13   -1    0    0    0    0  0.00000000000E+00  0.00000000000E+00  0.74505805969E-08  0.10566000000E+00  0.10566000000E+00 0.  1.
     999900   -1    0    0    0    0 -0.00000000000E+00 -0.00000000000E+00 -0.74505805969E-08  0.93827000000E+00  0.93827000000E+00 0. -1.
     999902    2    1    2    0    0 -0.19269465149E-01  0.84004682533E-02  0.10762431088E-01  0.10203141139E+01  0.10200407741E+01 0.  0.
     999903    2    3    3    0    0  0.82728758417E-01  0.95947264562E-01  0.21049550665E-01  0.13004791550E+00  0.20480519950E-01 0.  0.
         14    1    1    2    0    0  0.19269465149E-01 -0.84004682533E-02 -0.10762431088E-01  0.23615886113E-01  0.00000000000E+00 0. -1.
     999901    1    3    3    0    0 -0.10199822357E+00 -0.87546796309E-01 -0.10287119577E-01  0.89026619838E+00  0.88000000000E+00 0. -1.
        -11    1    4    4    0    0  0.12495539070E-01  0.21753647639E-01 -0.24614375996E-02  0.25212684870E-01  0.51100000000E-03 0.  1.
         11    1    4    4    0    0  0.70233219347E-01  0.74193616922E-01  0.23510988265E-01  0.10483523063E+00  0.51100000000E-03 0. -1.
</event>
<event>
 8    1  0.1106168E+005  0.1043930E+01  0.7957747E-01            NaN
         13   -1    0    0    0    0  0.00000000000E+00  0.00000000000E+00  0.74505805969E-08  0.10566000000E+00  0.10566000000E+00 0. -1.
     999900   -1    0    0    0    0 -0.00000000000E+00 -0.00000000000E+00 -0.74505805969E-08  0.93827000000E+00  0.93827000000E+00 0. -1.
     999902    2    1    2    0    0 -0.82620437190E-04 -0.22136550104E-01 -0.89863045912E-02  0.10200388438E+01  0.10197590183E+01 0.  0.
     999903    2    3    3    0    0 -0.10105793694E+00 -0.79286593753E-01  0.21443672430E-01  0.13190139632E+00  0.20954157021E-01 0.  0.
         14    1    1    2    0    0  0.82620437190E-04  0.22136550104E-01  0.89863045912E-02  0.23891156248E-01  0.00000000000E+00 0.  1.
     999901    1    3    3    0    0  0.10097531650E+00  0.57150043649E-01 -0.30429977021E-01  0.88813744743E+00  0.88000000000E+00 0.  1.
        -11    1    4    4    0    0 -0.58628642748E-01 -0.58708511055E-01  0.12670536665E-01  0.83933370248E-01  0.51100000000E-03 0.  1.
         11    1    4    4    0    0 -0.42429294191E-01 -0.20578082698E-01  0.87731357650E-02  0.47968026071E-01  0.51100000000E-03 0. -1.
</event>
<event>
 8    1  0.1106168E+005  0.1043930E+01  0.7957747E-01            NaN
         13   -1    0    0    0    0  0.00000000000E+00  0.00000000000E+00  0.74505805969E-08  0.10566000000E+00  0.10566000000E+00 0. -1.
     999900   -1    0    0    0    0 -0.00000000000E+00 -0.00000000000E+00 -0.74505805969E-08  0.93827000000E+00  0.93827000000E+00 0.  1.
     999902    2    1    2    0    0 -0.18828486229E-02 -0.18996751530E-01  0.14995100397E-01  0.10196550186E+01  0.10193660197E+01 0.  0.
     999903    2    3    3    0    0  0.58094746556E-04  0.92253982762E-01  0.88703133454E-01  0.12959133136E+00  0.20368273607E-01 0.  0.
         14    1    1    2    0    0  0.18828486229E-02  0.18996751530E-01 -0.14995100397E-01  0.24274981433E-01  0.00000000000E+00 0.  1.
     999901    1    3    3    0    0 -0.19409433695E-02 -0.11125073429E+00 -0.73708033057E-01  0.89006368720E+00  0.88000000000E+00 0.  1.
        -11    1    4    4    0    0  0.79821341928E-03  0.69497652977E-01  0.53703255948E-01  0.87834285643E-01  0.51100000000E-03 0. -1.
         11    1    4    4    0    0 -0.74011867272E-03  0.22756329785E-01  0.34999877505E-01  0.41757045721E-01  0.51100000000E-03 0.  1.
</event>
<event>
 8    1  0.1106168E+005  0.1043930E+01  0.7957747E-01            NaN
         13   -1    0    0    0    0  0.00000000000E+00  0.00000000000E+00  0.74505805969E-08  0.10566000000E+00  0.10566000000E+00 0.  1.
     999900   -1    0    0    0    0 -0.00000000000E+00 -0.00000000000E+00 -0.74505805969E-08  0.93827000000E+00  0.93827000000E+00 0.  1.
     999902    2    1    2    0    0 -0.15762300673E-01  0.17288590056E-01 -0.54529522148E-02  0.10199075073E+01  0.10196245599E+01 0.  0.
     999903    2    3    3    0    0  0.59998435793E-01  0.11022579699E+00 -0.35090038921E-01  0.13128195592E+00  0.15940592771E-01 0.  0.
         14    1    1    2    0    0  0.15762300673E-01 -0.17288590056E-01  0.54529522148E-02  0.24022492720E-01  0.00000000000E+00 0.  1.
     999901    1    3    3    0    0 -0.75760736466E-01 -0.92937206938E-01  0.29637086706E-01  0.88862555136E+00  0.88000000000E+00 0. -1.
        -11    1    4    4    0    0  0.46571504594E-01  0.81890471379E-01 -0.19274789229E-01  0.96159934295E-01  0.51100000000E-03 0. -1.
         11    1    4    4    0    0  0.13426931199E-01  0.28335325615E-01 -0.15815249692E-01  0.35122021624E-01  0.51100000000E-03 0.  1.
</event>
<event>
 8    1  0.1106168E+005  0.1043930E+01  0.7957747E-01            NaN
         13   -1    0    0    0    0  0.00000000000E+00  0.00000000000E+00  0.74505805969E-08  0.10566000000E+00  0.10566000000E+00 0. -1.
     999900   -1    0    0    0    0 -0.00000000000E+00 -0.00000000000E+00 -0.74505805969E-08  0.93827000000E+00  0.93827000000E+00 0.  1.
     999902    2    1    2    0    0  0.10258642620E-01 -0.20581400994E-01  0.63201594382E-03  0.10209249297E+01  0.10206657038E+01 0.  0.
     999903    2    3    3    0    0  0.90546689254E-02 -0.99572027509E-01  0.85806610495E-01  0.13329004971E+00  0.20171446508E-01 0.  0.
         14    1    1    2    0    0 -0.10258642620E-01  0.20581400994E-01 -0.63201594382E-03  0.23005070298E-01  0.00000000000E+00 0. -1.
     999901    1    3    3    0    0  0.12039736946E-02  0.78990626515E-01 -0.85174594551E-01  0.88763488000E+00  0.88000000000E+00 0. -1.
        -11    1    4    4    0    0 -0.21913455299E-02 -0.32905076120E-01  0.38905614820E-01  0.51004450936E-01  0.51100000000E-03 0.  1.
         11    1    4    4    0    0  0.11246014455E-01 -0.66666951388E-01  0.46900995675E-01  0.82285598769E-01  0.51100000000E-03 0. -1.
</event>
<event>
 8    1  0.1106168E+005  0.1043930E+01  0.7957747E-01            NaN
         13   -1    0    0    0    0  0.00000000000E+00  0.00000000000E+00  0.74505805969E-08  0.10566000000E+00  0.10566000000E+00 0.  1.
     999900   -1    0    0    0    0 -0.00000000000E+00 -0.00000000000E+00 -0.74505805969E-08  0.93827000000E+00  0.93827000000E+00 0. -1.
     999902    2    1    2    0    0 -0.17243154216E-01 -0.14235301734E-01 -0.41676443438E-02  0.10211849029E+01  0.10209315680E+01 0.  0.
     999903    2    3    3    0    0  0.93365156620E-01 -0.86530228862E-01 -0.24337905439E-01  0.13109075375E+00  0.19695661965E-01 0.  0.
         14    1    1    2    0    0  0.17243154216E-01  0.14235301734E-01  0.41676443438E-02  0.22745097101E-01  0.00000000000E+00 0. -1.
     999901    1    3    3    0    0 -0.11060831084E+00  0.72294927128E-01  0.20170261096E-01  0.89009414915E+00  0.88000000000E+00 0.  1.
        -11    1    4    4    0    0  0.62739781092E-01 -0.49789893572E-01 -0.77868470606E-02  0.80474901314E-01  0.51100000000E-03 0. -1.
         11    1    4    4    0    0  0.30625375528E-01 -0.36740335290E-01 -0.16551058379E-01  0.50615852436E-01  0.51100000000E-03 0.  1.
</event>
<event>
 8    1  0.1106168E+005  0.1043930E+01  0.7957747E-01            NaN
         13   -1    0    0    0    0  0.00000000000E+00  0.00000000000E+00  0.74505805969E-08  0.10566000000E+00  0.10566000000E+00 0.  1.
     999900   -1    0    0    0    0 -0.00000000000E+00 -0.00000000000E+00 -0.74505805969E-08  0.93827000000E+00  0.93827000000E+00 0. -1.
     999902    2    1    2    0    0  0.17253354060E-01  0.64114096532E-02 -0.12974736784E-01  0.10214104930E+01  0.10211622139E+01 0.  0.
     999903    2    3    3    0    0 -0.10589241766E+00  0.72073733253E-01  0.12923486639E-01  0.13003675557E+00  0.18295194710E-01 0.  0.
         14    1    1    2    0    0 -0.17253354060E-01 -0.64114096532E-02  0.12974736784E-01  0.22519506981E-01  0.00000000000E+00 0.  1.
     999901    1    3    3    0    0  0.12314577172E+00 -0.65662323600E-01 -0.25898223423E-01  0.89137373745E+00  0.88000000000E+00 0.  1.
        -11    1    4    4    0    0 -0.56684742642E-01  0.44371194310E-01  0.14969864281E-01  0.73527687917E-01  0.51100000000E-03 0. -1.
         11    1    4    4    0    0 -0.49207675019E-01  0.27702538944E-01 -0.20463776421E-02  0.56509067654E-01  0.51100000000E-03 0.  1.
</event>
<event>
 8    1  0.1106168E+005  0.1043930E+01  0.7957747E-01            NaN
         13   -1    0    0    0    0  0.00000000000E+00  0.00000000000E+00  0.74505805969E-08  0.10566000000E+00  0.10566000000E+00 0. -1.
     999900   -1    0    0    0    0 -0.00000000000E+00 -0.00000000000E+00 -0.74505805969E-08  0.93827000000E+00  0.93827000000E+00 0.  1.
     999902    2    1    2    0    0  0.41679887423E-02  0.58302943002E-02 -0.20289684922E-01  0.10224117339E+01  0.10221852659E+01 0.  0.
     999903    2    3    3    0    0 -0.76872898499E-01  0.10619417590E+00  0.28986022235E-02  0.13270491095E+00  0.20384944887E-01 0.  0.
         14    1    1    2    0    0 -0.41679887423E-02 -0.58302943002E-02  0.20289684922E-01  0.21518266102E-01  0.00000000000E+00 0. -1.
     999901    1    3    3    0    0  0.81040887242E-01 -0.10036388160E+00 -0.23188287146E-01  0.88970682295E+00  0.88000000000E+00 0.  1.
        -11    1    4    4    0    0 -0.20379920242E-01  0.33030135340E-01  0.97284163483E-02  0.40015424467E-01  0.51100000000E-03 0.  1.
         11    1    4    4    0    0 -0.56492978257E-01  0.73164040557E-01 -0.68298141248E-02  0.92689486486E-01  0.51100000000E-03 0. -1.
</event>
<event>
 8    1  0.1106168E+005  0.1043930E+01  0.7957747E-01            NaN
         13   -1    0    0    0    0  0.00000000000E+00  0.00000000000E+00  0.74505805969E-08  0.10566000000E+00  0.10566000000E+00 0. -1.
     999900   -1    0    0    0    0 -0.00000000000E+00 -0.00000000000E+00 -0.74505805969E-08  0.93827000000E+00  0.93827000000E+00 0.  1.
     999902    2    1    2    0    0  0.65261149317E-02  0.18232692806E-01 -0.15504497838E-01  0.10191225270E+01  0.10188205506E+01 0.  0.
     999903    2    3    3    0    0 -0.46333623330E-01 -0.11149448620E+00  0.31624465333E-01  0.12679723202E+00  0.22351870991E-01 0.  0.
         14    1    1    2    0    0 -0.65261149317E-02 -0.18232692806E-01  0.15504497838E-01  0.24807472993E-01  0.00000000000E+00 0. -1.
     999901    1    3    3    0    0  0.52859738262E-01  0.12972717901E+00 -0.47128963171E-01  0.89232529499E+00  0.88000000000E+00 0.  1.
        -11    1    4    4    0    0  0.14522627626E-02 -0.64425728842E-02 -0.13669237235E-02  0.67635356114E-02  0.51100000000E-03 0. -1.
         11    1    4    4    0    0 -0.47785886093E-01 -0.10505191332E+00  0.32991389056E-01  0.12003369641E+00  0.51100000000E-03 0.  1.
</event>
<event>
 8    1  0.1106168E+005  0.1043930E+01  0.7957747E-01            NaN
         13   -1    0    0    0    0  0.00000000000E+00  0.00000000000E+00  0.74505805969E-08  0.10566000000E+00  0.10566000000E+00 0. -1.
     999900   -1    0    0    0    0 -0.00000000000E+00 -0.00000000000E+00 -0.74505805969E-08  0.93827000000E+00  0.93827000000E+00 0.  1.
     999902    2    1    2    0    0  0.20715867386E-01  0.11327250789E-01  0.48354105596E-02  0.10198294820E+01  0.10195446716E+01 0.  0.
     999903    2    3    3    0    0  0.74947564211E-01  0.27698156434E-02 -0.10495166583E+00  0.13130964049E+00  0.24547102976E-01 0.  0.
         14    1    1    2    0    0 -0.20715867386E-01 -0.11327250789E-01 -0.48354105596E-02  0.24100517987E-01  0.00000000000E+00 0.  1.
     999901    1    3    3    0    0 -0.54231696826E-01  0.85574351455E-02  0.10978707639E+00  0.88851984152E+00  0.88000000000E+00 0. -1.
        -11    1    4    4    0    0  0.23953077002E-01  0.28204546007E-02 -0.16557392007E-01  0.29259412385E-01  0.51100000000E-03 0. -1.
         11    1    4    4    0    0  0.50994487209E-01 -0.50638957306E-04 -0.88394273826E-01  0.10205022810E+00  0.51100000000E-03 0.  1.
</event>
<event>
 8    1  0.1106168E+005  0.1043930E+01  0.7957747E-01            NaN
         13   -1    0    0    0    0  0.00000000000E+00  0.00000000000E+00  0.74505805969E-08  0.10566000000E+00  0.10566000000E+00 0.  1.
     999900   -1    0    0    0    0 -0.00000000000E+00 -0.00000000000E+00 -0.74505805969E-08  0.93827000000E+00  0.93827000000E+00 0. -1.
     999902    2    1    2    0    0  0.58757445342E-02  0.20423916013E-01  0.10287280732E-01  0.10203187979E+01  0.10200455679E+01 0.  0.
     999903    2    3    3    0    0  0.53803012003E-01 -0.11226889284E+00  0.26873368596E-01  0.12892690722E+00  0.20022513914E-01 0.  0.
         14    1    1    2    0    0 -0.58757445342E-02 -0.20423916013E-01 -0.10287280732E-01  0.23611202087E-01  0.00000000000E+00 0. -1.
     999901    1    3    3    0    0 -0.47927267469E-01  0.13269280886E+00 -0.16586087864E-01  0.89139189070E+00  0.88000000000E+00 0. -1.
        -11    1    4    4    0    0  0.33995941712E-01 -0.74967152768E-01  0.81296290604E-02  0.82717289829E-01  0.51100000000E-03 0. -1.
         11    1    4    4    0    0  0.19807070292E-01 -0.37301740077E-01  0.18743739536E-01  0.46209617387E-01  0.51100000000E-03 0.  1.
</event>
<event>
 8    1  0.1106168E+005  0.1043930E+01  0.7957747E-01            NaN
         13   -1    0    0    0    0  0.00000000000E+00  0.00000000000E+00  0.74505805969E-08  0.10566000000E+00  0.10566000000E+00 0. -1.
     999900   -1    0    0    0    0 -0.00000000000E+00 -0.00000000000E+00 -0.74505805969E-08  0.93827000000E+00  0.93827000000E+00 0. -1.
     999902    2    1    2    0    0  0.66646694873E-02  0.42853368551E-02  0.22081261234E-01  0.10204701614E+01  0.10202004637E+01 0.  0.
     999903    2    3    3    0    0  0.28523337298E-01 -0.79667018918E-01 -0.94628744673E-01  0.12853573278E+00  0.20159876246E-01 0.  0.
         14    1    1    2    0    0 -0.66646694873E-02 -0.42853368551E-02 -0.22081261234E-01  0.23459838640E-01  0.00000000000E+00 0.  1.
     999901    1    3    3    0    0 -0.21858667811E-01  0.83952355773E-01  0.11671000591E+00  0.89193442857E+00  0.88000000000E+00 0.  1.
        -11    1    4    4    0    0  0.19046628778E-01 -0.29914190867E-01 -0.48070540997E-01  0.59738353809E-01  0.51100000000E-03 0.  1.
         11    1    4    4    0    0  0.94767085201E-02 -0.49752828051E-01 -0.46558203676E-01  0.68797378976E-01  0.51100000000E-03 0. -1.
</event>
<event>
 8    1  0.1106168E+005  0.1043930E+01  0.7957747E-01            NaN
         13   -1    0    0    0    0  0.00000000000E+00  0.00000000000E+00  0.74505805969E-08  0.10566000000E+00  0.10566000000E+00 0.  1.
     999900   -1    0    0    0    0 -0.00000000000E+00 -0.00000000000E+00 -0.74505805969E-08  0.93827000000E+00  0.93827000000E+00 0. -1.
     999902    2    1    2    0    0  0.60533842259E-04 -0.16182436294E-01  0.38493072574E-02  0.10272959363E+01  0.10271612574E+01 0.  0.
     999903    2    3    3    0    0 -0.19170768444E-02 -0.88846704714E-01  0.10389814903E+00  0.13864877483E+00  0.23048758492E-01 0.  0.
         14    1    1    2    0    0 -0.60533842259E-04  0.16182436294E-01 -0.38493072574E-02  0.16634063698E-01  0.00000000000E+00 0. -1.
     999901    1    3    3    0    0  0.19776106867E-02  0.72664268420E-01 -0.10004884177E+00  0.88864716147E+00  0.88000000000E+00 0. -1.
        -11    1    4    4    0    0 -0.10041064486E-01 -0.20634846851E-01  0.29635513228E-01  0.37485259048E-01  0.51100000000E-03 0. -1.
         11    1    4    4    0    0  0.81239876420E-02 -0.68211857863E-01  0.74262635804E-01  0.10116351578E+00  0.51100000000E-03 0.  1.
</event>
<event>
 8    1  0.1106168E+005  0.1043930E+01  0.7957747E-01            NaN
         13   -1    0    0    0    0  0.00000000000E+00  0.00000000000E+00  0.74505805969E-08  0.10566000000E+00  0.10566000000E+00 0. -1.
     999900   -1    0    0    0    0 -0.00000000000E+00 -0.00000000000E+00 -0.74505805969E-08  0.93827000000E+00  0.93827000000E+00 0. -1.
     999902    2    1    2    0    0 -0.10657420532E-01  0.20888964466E-01 -0.88666661094E-03  0.10204626690E+01  0.10201927970E+01 0.  0.
     999903    2    3    3    0    0 -0.28532581993E-01 -0.11950555148E+00  0.31373398318E-01  0.12857094161E+00  0.21225264081E-01 0.  0.
         14    1    1    2    0    0  0.10657420532E-01 -0.20888964466E-01  0.88666661094E-03  0.23467331048E-01  0.00000000000E+00 0. -1.
     999901    1    3    3    0    0  0.17875161460E-01  0.14039451595E+00 -0.32260064929E-01  0.89189172734E+00  0.88000000000E+00 0.  1.
        -11    1    4    4    0    0 -0.41419025226E-02 -0.39233739817E-01  0.13985406818E-02  0.39479852249E-01  0.51100000000E-03 0. -1.
         11    1    4    4    0    0 -0.24390679470E-01 -0.80271811664E-01  0.29974857637E-01  0.89091089364E-01  0.51100000000E-03 0.  1.
</event>
<event>
 8    1  0.1106168E+005  0.1043930E+01  0.7957747E-01            NaN
         13   -1    0    0    0    0  0.00000000000E+00  0.00000000000E+00  0.74505805969E-08  0.10566000000E+00  0.10566000000E+00 0. -1.
     999900   -1    0    0    0    0 -0.00000000000E+00 -0.00000000000E+00 -0.74505805969E-08  0.93827000000E+00  0.93827000000E+00 0.  1.
     999902    2    1    2    0    0  0.20481333308E-01  0.94686133548E-02  0.23972559153E-02  0.10212388897E+01  0.10209867694E+01 0.  0.
     999903    2    3    3    0    0 -0.82938084999E-01 -0.85621534009E-01  0.45132987364E-01  0.12907071327E+00  0.20309836184E-01 0.  0.
         14    1    1    2    0    0 -0.20481333308E-01 -0.94686133548E-02 -0.23972559153E-02  0.22691110349E-01  0.00000000000E+00 0.  1.
     999901    1    3    3    0    0  0.10341941831E+00  0.95090147364E-01 -0.42735731448E-01  0.89216817638E+00  0.88000000000E+00 0.  1.
        -11    1    4    4    0    0 -0.24256932078E-01 -0.39066097078E-01  0.18513823193E-01  0.49573999889E-01  0.51100000000E-03 0.  1.
         11    1    4    4    0    0 -0.58681152921E-01 -0.46555436931E-01  0.26619164171E-01  0.79496713379E-01  0.51100000000E-03 0. -1.
</event>
<event>
 8    1  0.1106168E+005  0.1043930E+01  0.7957747E-01            NaN
         13   -1    0    0    0    0  0.00000000000E+00  0.00000000000E+00  0.74505805969E-08  0.10566000000E+00  0.10566000000E+00 0.  1.
     999900   -1    0    0    0    0 -0.00000000000E+00 -0.00000000000E+00 -0.74505805969E-08  0.93827000000E+00  0.93827000000E+00 0. -1.
     999902    2    1    2    0    0 -0.83917592611E-02 -0.17877697137E-01  0.11632188609E-01  0.10210096708E+01  0.10207523727E+01 0.  0.
     999903    2    3    3    0    0  0.25803152410E-01 -0.77961746900E-01 -0.10011756102E+00  0.13125274245E+00  0.21445738990E-01 0.  0.
         14    1    1    2    0    0  0.83917592611E-02  0.17877697137E-01 -0.11632188609E-01  0.22920329192E-01  0.00000000000E+00 0.  1.
     999901    1    3    3    0    0 -0.34194911671E-01  0.60084049763E-01  0.11174974963E+00  0.88975692836E+00  0.88000000000E+00 0.  1.
        -11    1    4    4    0    0  0.16675540176E-01 -0.70239446638E-01 -0.79294202482E-01  0.10723565252E+00  0.51100000000E-03 0. -1.
         11    1    4    4    0    0  0.91276122337E-02 -0.77223002627E-02 -0.20823358543E-01  0.24017089925E-01  0.51100000000E-03 0.  1.
</event>
<event>
 8    1  0.1106168E+005  0.1043930E+01  0.7957747E-01            NaN
         13   -1    0    0    0    0  0.00000000000E+00  0.00000000000E+00  0.74505805969E-08  0.10566000000E+00  0.10566000000E+00 0. -1.
     999900   -1    0    0    0    0 -0.00000000000E+00 -0.00000000000E+00 -0.74505805969E-08  0.93827000000E+00  0.93827000000E+00 0.  1.
     999902    2    1    2    0    0  0.14178544566E-01 -0.82911457305E-02 -0.19363435236E-01  0.10185387250E+01  0.10182221847E+01 0.  0.
     999903    2    3    3    0    0 -0.47371154372E-01  0.10323489190E+00  0.51798307268E-01  0.12652391786E+00  0.20585625607E-01 0.  0.
         14    1    1    2    0    0 -0.14178544566E-01  0.82911457305E-02  0.19363435236E-01  0.25391275031E-01  0.00000000000E+00 0. -1.
     999901    1    3    3    0    0  0.61549698938E-01 -0.11152603763E+00 -0.71161742505E-01  0.89201480711E+00  0.88000000000E+00 0.  1.
        -11    1    4    4    0    0 -0.41639272851E-01  0.76002697148E-01  0.32065229177E-01  0.92404973137E-01  0.51100000000E-03 0. -1.
         11    1    4    4    0    0 -0.57318815219E-02  0.27232194754E-01  0.19733078091E-01  0.34118944721E-01  0.51100000000E-03 0.  1.
</event>
<event>
 8    1  0.1229989E+005  0.1043930E+01  0.7957747E-01            NaN
         13   -1    0    0    0    0  0.00000000000E+00  0.00000000000E+00  0.74505805969E-08  0.10566000000E+00  0.10566000000E+00 0.  1.
     999900   -1    0    0    0    0 -0.00000000000E+00 -0.00000000000E+00 -0.74505805969E-08  0.93827000000E+00  0.93827000000E+00 0. -1.
     999902    2    1    2    0    0 -0.32964754905E-01  0.17904889023E-01  0.27968525888E-02  0.10063124177E+01  0.10056090689E+01 0.  0.
     999903    2    3    3    0    0  0.10750243475E+00  0.26051584557E-01  0.25136007428E-01  0.11485493810E+00  0.18010535864E-01 0.  0.
         14    1    1    2    0    0  0.32964754905E-01 -0.17904889023E-01 -0.27968525888E-02  0.37617582342E-01  0.00000000000E+00 0.  1.
     999901    1    3    3    0    0 -0.14046718965E+00 -0.81466955348E-02 -0.22339154839E-01  0.89145747956E+00  0.88000000000E+00 0.  1.
        -11    1    4    4    0    0  0.55097119447E-01  0.51477457861E-02  0.16703392487E-01  0.57805331066E-01  0.51100000000E-03 0.  1.
         11    1    4    4    0    0  0.52405315302E-01  0.20903838771E-01  0.84326149413E-02  0.57049607037E-01  0.51100000000E-03 0. -1.
</event>
<event>
 8    1  0.1106168E+005  0.1043930E+01  0.7957747E-01            NaN
         13   -1    0    0    0    0  0.00000000000E+00  0.00000000000E+00  0.74505805969E-08  0.10566000000E+00  0.10566000000E+00 0.  1.
     999900   -1    0    0    0    0 -0.00000000000E+00 -0.00000000000E+00 -0.74505805969E-08  0.93827000000E+00  0.93827000000E+00 0.  1.
     999902    2    1    2    0    0 -0.62675869703E-02 -0.22069324012E-01  0.47686203179E-02  0.10204975983E+01  0.10202285385E+01 0.  0.
     999903    2    3    3    0    0  0.21098061387E-01 -0.20879966751E-01 -0.12550257600E+00  0.13048586926E+00  0.19863642375E-01 0.  0.
         14    1    1    2    0    0  0.62675869703E-02  0.22069324012E-01 -0.47686203179E-02  0.23432401680E-01  0.00000000000E+00 0.  1.
     999901    1    3    3    0    0 -0.27365648357E-01 -0.11893572602E-02  0.13027119631E+00  0.89001172906E+00  0.88000000000E+00 0. -1.
        -11    1    4    4    0    0 -0.14391010449E-02 -0.80815098028E-02 -0.49636343277E-01  0.50313114667E-01  0.51100000000E-03 0. -1.
         11    1    4    4    0    0  0.22537162432E-01 -0.12798456949E-01 -0.75866232718E-01  0.80172754590E-01  0.51100000000E-03 0.  1.
</event>
<event>
 8    1  0.1106168E+005  0.1043930E+01  0.7957747E-01            NaN
         13   -1    0    0    0    0  0.00000000000E+00  0.00000000000E+00  0.74505805969E-08  0.10566000000E+00  0.10566000000E+00 0. -1.
     999900   -1    0    0    0    0 -0.00000000000E+00 -0.00000000000E+00 -0.74505805969E-08  0.93827000000E+00  0.93827000000E+00 0.  1.
     999902    2    1    2    0    0 -0.23818191224E-02 -0.22200402919E-02  0.25699786345E-01  0.10180247754E+01  0.10176951227E+01 0.  0.
     999903    2    3    3    0    0  0.31426627379E-02  0.11621411258E+00 -0.46376047827E-01  0.12715323906E+00  0.22396698414E-01 0.  0.
         14    1    1    2    0    0  0.23818191224E-02  0.22200402919E-02 -0.25699786345E-01  0.25905224558E-01  0.00000000000E+00 0.  1.
     999901    1    3    3    0    0 -0.55244818603E-02 -0.11843415287E+00  0.72075834172E-01  0.89087153638E+00  0.88000000000E+00 0. -1.
        -11    1    4    4    0    0  0.10888575062E-01  0.48154606866E-01 -0.13581140107E-01  0.51206793659E-01  0.51100000000E-03 0. -1.
         11    1    4    4    0    0 -0.77459123238E-02  0.68059505712E-01 -0.32794907720E-01  0.75946445400E-01  0.51100000000E-03 0.  1.
</event>
<event>
 8    1  0.1106168E+005  0.1043930E+01  0.7957747E-01            NaN
         13   -1    0    0    0    0  0.00000000000E+00  0.00000000000E+00  0.74505805969E-08  0.10566000000E+00  0.10566000000E+00 0.  1.
     999900   -1    0    0    0    0 -0.00000000000E+00 -0.00000000000E+00 -0.74505805969E-08  0.93827000000E+00  0.93827000000E+00 0. -1.
     999902    2    1    2    0    0 -0.20997294935E-01  0.95844700215E-02 -0.34015999607E-02  0.10205993476E+01  0.10203326462E+01 0.  0.
     999903    2    3    3    0    0  0.38188706182E-01 -0.81059054452E-01 -0.92851759637E-01  0.12946492319E+00  0.10524708128E-01 0.  0.
         14    1    1    2    0    0  0.20997294935E-01 -0.95844700215E-02  0.34015999607E-02  0.23330652423E-01  0.00000000000E+00 0.  1.
     999901    1    3    3    0    0 -0.59186001117E-01  0.90643524473E-01  0.89450159676E-01  0.89113442438E+00  0.88000000000E+00 0.  1.
        -11    1    4    4    0    0  0.23561722561E-01 -0.43498030359E-01 -0.57443405787E-01  0.75810549428E-01  0.51100000000E-03 0.  1.
         11    1    4    4    0    0  0.14626983621E-01 -0.37561024092E-01 -0.35408353850E-01  0.53654373765E-01  0.51100000000E-03 0. -1.
</event>
<event>
 8    1  0.1106168E+005  0.1043930E+01  0.7957747E-01            NaN
         13   -1    0    0    0    0  0.00000000000E+00  0.00000000000E+00  0.74505805969E-08  0.10566000000E+00  0.10566000000E+00 0. -1.
     999900   -1    0    0    0    0 -0.00000000000E+00 -0.00000000000E+00 -0.74505805969E-08  0.93827000000E+00  0.93827000000E+00 0.  1.
     999902    2    1    2    0    0 -0.16923899807E-01 -0.12549994328E-01  0.10775819208E-01  0.10202648564E+01  0.10199903618E+01 0.  0.
     999903    2    3    3    0    0 -0.23042722093E-01  0.11133078979E+00 -0.56936025218E-01  0.12899117085E+00  0.21714036821E-01 0.  0.
         14    1    1    2    0    0  0.16923899807E-01  0.12549994328E-01 -0.10775819208E-01  0.23665143607E-01  0.00000000000E+00 0. -1.
     999901    1    3    3    0    0  0.61188222863E-02 -0.12388078411E+00  0.67711844426E-01  0.89127368554E+00  0.88000000000E+00 0. -1.
        -11    1    4    4    0    0 -0.13301310987E-01  0.37906140727E-01 -0.30136493309E-01  0.50222203543E-01  0.51100000000E-03 0.  1.
         11    1    4    4    0    0 -0.97414111064E-02  0.73424649059E-01 -0.26799531908E-01  0.78768967311E-01  0.51100000000E-03 0. -1.
</event>
<event>
 8    1  0.1106168E+005  0.1043930E+01  0.7957747E-01            NaN
         13   -1    0    0    0    0  0.00000000000E+00  0.00000000000E+00  0.74505805969E-08  0.10566000000E+00  0.10566000000E+00 0. -1.
     999900   -1    0    0    0    0 -0.00000000000E+00 -0.00000000000E+00 -0.74505805969E-08  0.93827000000E+00  0.93827000000E+00 0.  1.
     999902    2    1    2    0    0  0.12604998237E-01  0.33026875789E-02 -0.19042708297E-01  0.10208558052E+01  0.10205950012E+01 0.  0.
     999903    2    3    3    0    0  0.81249955674E-02  0.97046254868E-01 -0.88575707170E-01  0.13313807712E+00  0.19902274808E-01 0.  0.
         14    1    1    2    0    0 -0.12604998237E-01 -0.33026875789E-02  0.19042708297E-01  0.23074194787E-01  0.00000000000E+00 0. -1.
     999901    1    3    3    0    0  0.44800026699E-02 -0.93743567289E-01  0.69532998874E-01  0.88771772809E+00  0.88000000000E+00 0. -1.
        -11    1    4    4    0    0 -0.35392965483E-02  0.46549444742E-01 -0.33175134666E-01  0.57273275679E-01  0.51100000000E-03 0. -1.
         11    1    4    4    0    0  0.11664292116E-01  0.50496810126E-01 -0.55400572504E-01  0.75864801445E-01  0.51100000000E-03 0.  1.
</event>
<event>
 8    1  0.1106168E+005  0.1043930E+01  0.7957747E-01            NaN
         13   -1    0    0    0    0  0.00000000000E+00  0.00000000000E+00  0.74505805969E-08  0.10566000000E+00  0.10566000000E+00 0. -1.
     999900   -1    0    0    0    0 -0.00000000000E+00 -0.00000000000E+00 -0.74505805969E-08  0.93827000000E+00  0.93827000000E+00 0. -1.
     999902    2    1    2    0    0  0.17556861324E-02 -0.13834913305E-01 -0.19682550091E-01  0.10198076030E+01  0.10195222690E+01 0.  0.
     999903    2    3    3    0    0 -0.12075427792E+00  0.39782351731E-01  0.11814555987E-01  0.12914741520E+00  0.19371111840E-01 0.  0.
         14    1    1    2    0    0 -0.17556861324E-02  0.13834913305E-01  0.19682550091E-01  0.24122397021E-01  0.00000000000E+00 0. -1.
     999901    1    3    3    0    0  0.12250996406E+00 -0.53617265036E-01 -0.31497106078E-01  0.89066018778E+00  0.88000000000E+00 0.  1.
        -11    1    4    4    0    0 -0.42700354957E-01  0.61056825685E-02 -0.11553039188E-02  0.43153163513E-01  0.51100000000E-03 0.  1.
         11    1    4    4    0    0 -0.78053922966E-01  0.33676669163E-01  0.12969859906E-01  0.85994251687E-01  0.51100000000E-03 0. -1.
</event>
<event>
 8    1  0.1106168E+005  0.1043930E+01  0.7957747E-01            NaN
         13   -1    0    0    0    0  0.00000000000E+00  0.00000000000E+00  0.74505805969E-08  0.10566000000E+00  0.10566000000E+00 0.  1.
     999900   -1    0    0    0    0 -0.00000000000E+00 -0.00000000000E+00 -0.74505805969E-08  0.93827000000E+00  0.93827000000E+00 0.  1.
     999902    2    1    2    0    0  0.23088689007E-01 -0.32736663865E-03  0.33062004998E-02  0.10206034981E+01  0.10203368927E+01 0.  0.
     999903    2    3    3    0    0 -0.11072791349E+00 -0.29542431088E-01  0.54145426032E-01  0.12855807889E+00  0.21494799971E-01 0.  0.
         14    1    1    2    0    0 -0.23088689007E-01  0.32736663865E-03 -0.33062004998E-02  0.23326501897E-01  0.00000000000E+00 0.  1.
     999901    1    3    3    0    0  0.13381660250E+00  0.29215064449E-01 -0.50839225532E-01  0.89204541922E+00  0.88000000000E+00 0.  1.
        -11    1    4    4    0    0 -0.10669290994E-01 -0.90761439556E-02  0.10392536810E-01  0.17449243587E-01  0.51100000000E-03 0. -1.
         11    1    4    4    0    0 -0.10005862250E+00 -0.20466287132E-01  0.43752889222E-01  0.11110883530E+00  0.51100000000E-03 0.  1.
</event>
<event>
 8    1  0.1106168E+005  0.1043930E+01  0.7957747E-01            NaN
         13   -1    0    0    0    0  0.00000000000E+00  0.00000000000E+00  0.74505805969E-08  0.10566000000E+00  0.10566000000E+00 0.  1.
     999900   -1    0    0    0    0 -0.00000000000E+00 -0.00000000000E+00 -0.74505805969E-08  0.93827000000E+00  0.93827000000E+00 0. -1.
     999902    2    1    2    0    0  0.46161368607E-02 -0.19119578494E-01 -0.11807382602E-01  0.10209891786E+01  0.10207314150E+01 0.  0.
     999903    2    3    3    0    0 -0.41099587731E-01  0.11267412795E+00  0.41028433253E-01  0.12843602504E+00  0.20684413757E-01 0.  0.
         14    1    1    2    0    0 -0.46161368607E-02  0.19119578494E-01  0.11807382602E-01  0.22940821372E-01  0.00000000000E+00 0. -1.
     999901    1    3    3    0    0  0.45715724592E-01 -0.13179370645E+00 -0.52835815855E-01  0.89255315358E+00  0.88000000000E+00 0. -1.
        -11    1    4    4    0    0 -0.32457909632E-01  0.94943901441E-01  0.41780505647E-01  0.10869099361E+00  0.51100000000E-03 0. -1.
         11    1    4    4    0    0 -0.86416780991E-02  0.17730226512E-01 -0.75207239369E-03  0.19745031437E-01  0.51100000000E-03 0.  1.
</event>
<event>
 8    1  0.1106168E+005  0.1043930E+01  0.7957747E-01            NaN
         13   -1    0    0    0    0  0.00000000000E+00  0.00000000000E+00  0.74505805969E-08  0.10566000000E+00  0.10566000000E+00 0. -1.
     999900   -1    0    0    0    0 -0.00000000000E+00 -0.00000000000E+00 -0.74505805969E-08  0.93827000000E+00  0.93827000000E+00 0.  1.
     999902    2    1    2    0    0 -0.60518694324E-02  0.21407253066E-01  0.47528190705E-02  0.10211817056E+01  0.10209282987E+01 0.  0.
     999903    2    3    3    0    0 -0.79097229868E-01 -0.26636096320E-01  0.10071001039E+00  0.13165847903E+00  0.15019837172E-01 0.  0.
         14    1    1    2    0    0  0.60518694324E-02 -0.21407253066E-01 -0.47528190705E-02  0.22748294366E-01  0.00000000000E+00 0.  1.
     999901    1    3    3    0    0  0.73045360435E-01  0.48043349386E-01 -0.95957191316E-01  0.88952322660E+00  0.88000000000E+00 0.  1.
        -11    1    4    4    0    0 -0.30631688603E-01 -0.17388426940E-01  0.46806301550E-01  0.58581129418E-01  0.51100000000E-03 0. -1.
         11    1    4    4    0    0 -0.48465541265E-01 -0.92476693798E-02  0.53903708837E-01  0.73077349612E-01  0.51100000000E-03 0.  1.
</event>
<event>
 8    1  0.1106168E+005  0.1043930E+01  0.7957747E-01            NaN
         13   -1    0    0    0    0  0.00000000000E+00  0.00000000000E+00  0.74505805969E-08  0.10566000000E+00  0.10566000000E+00 0.  1.
     999900   -1    0    0    0    0 -0.00000000000E+00 -0.00000000000E+00 -0.74505805969E-08  0.93827000000E+00  0.93827000000E+00 0.  1.
     999902    2    1    2    0    0  0.15070621681E-01 -0.14288291227E-01  0.12560431393E-01  0.10196597849E+01  0.10193709009E+01 0.  0.
     999903    2    3    3    0    0 -0.20286600862E-01  0.12132752864E+00 -0.27445040198E-01  0.12767199264E+00  0.20371354714E-01 0.  0.
         14    1    1    2    0    0 -0.15070621681E-01  0.14288291227E-01 -0.12560431393E-01  0.24270215096E-01  0.00000000000E+00 0.  1.
     999901    1    3    3    0    0  0.35357222543E-01 -0.13561581987E+00  0.40005471591E-01  0.89198779226E+00  0.88000000000E+00 0. -1.
        -11    1    4    4    0    0 -0.10510955631E-01  0.10352893816E+00 -0.19573395005E-01  0.10588720479E+00  0.51100000000E-03 0.  1.
         11    1    4    4    0    0 -0.97756452310E-02  0.17798590485E-01 -0.78716451924E-02  0.21784787857E-01  0.51100000000E-03 0. -1.
</event>
<event>
 8    1  0.1106168E+005  0.1043930E+01  0.7957747E-01            NaN
         13   -1    0    0    0    0  0.00000000000E+00  0.00000000000E+00  0.74505805969E-08  0.10566000000E+00  0.10566000000E+00 0.  1.
     999900   -1    0    0    0    0 -0.00000000000E+00 -0.00000000000E+00 -0.74505805969E-08  0.93827000000E+00  0.93827000000E+00 0.  1.
     999902    2    1    2    0    0  0.18274385934E-01  0.11467737153E-01 -0.71389140350E-02  0.10212049858E+01  0.10209521031E+01 0.  0.
     999903    2    3    3    0    0 -0.97161385964E-01  0.83190249337E-01 -0.17640205747E-01  0.13071084584E+00  0.20327219510E-01 0.  0.
         14    1    1    2    0    0 -0.18274385934E-01 -0.11467737153E-01  0.71389140350E-02  0.22725014198E-01  0.00000000000E+00 0.  1.
     999901    1    3    3    0    0  0.11543577190E+00 -0.71722512184E-01  0.10501291712E-01  0.89049413997E+00  0.88000000000E+00 0. -1.
        -11    1    4    4    0    0 -0.79253947644E-01  0.63847301547E-01 -0.21627565722E-01  0.10404652254E+00  0.51100000000E-03 0. -1.
         11    1    4    4    0    0 -0.17907438320E-01  0.19342947790E-01  0.39873599744E-02  0.26664323298E-01  0.51100000000E-03 0.  1.
</event>
<event>
 8    1  0.1106168E+005  0.1043930E+01  0.7957747E-01            NaN
         13   -1    0    0    0    0  0.00000000000E+00  0.00000000000E+00  0.74505805969E-08  0.10566000000E+00  0.10566000000E+00 0.  1.
     999900   -1    0    0    0    0 -0.00000000000E+00 -0.00000000000E+00 -0.74505805969E-08  0.93827000000E+00  0.93827000000E+00 0. -1.
     999902    2    1    2    0    0 -0.10074345759E-01 -0.75752772512E-02 -0.21382133548E-01  0.10191091841E+01  0.10188068787E+01 0.  0.
     999903    2    3    3    0    0 -0.10187200868E+00  0.42211144111E-01  0.61349062247E-01  0.12908112304E+00  0.27176130103E-01 0.  0.
         14    1    1    2    0    0  0.10074345759E-01  0.75752772512E-02  0.21382133548E-01  0.24820815921E-01  0.00000000000E+00 0.  1.
     999901    1    3    3    0    0  0.91797662925E-01 -0.49786421362E-01 -0.82731195795E-01  0.89002806103E+00  0.88000000000E+00 0. -1.
        -11    1    4    4    0    0 -0.81847723803E-01  0.44038046216E-01  0.45559578432E-01  0.10351007542E+00  0.51100000000E-03 0. -1.
         11    1    4    4    0    0 -0.20024284881E-01 -0.18269021051E-02  0.15789483814E-01  0.25571047621E-01  0.51100000000E-03 0.  1.
</event>
<event>
 8    1  0.1106168E+005  0.1043930E+01  0.7957747E-01            NaN
         13   -1    0    0    0    0  0.00000000000E+00  0.00000000000E+00  0.74505805969E-08  0.10566000000E+00  0.10566000000E+00 0. -1.
     999900   -1    0    0    0    0 -0.00000000000E+00 -0.00000000000E+00 -0.74505805969E-08  0.93827000000E+00  0.93827000000E+00 0.  1.
     999902    2    1    2    0    0  0.41875290143E-02  0.18338616417E-01  0.14295471899E-01  0.10203037272E+01  0.10200301441E+01 0.  0.
     999903    2    3    3    0    0  0.63725988850E-01  0.11110298755E+00 -0.24057255074E-01  0.13259826451E+00  0.24467789687E-01 0.  0.
         14    1    1    2    0    0 -0.41875290143E-02 -0.18338616417E-01 -0.14295471899E-01  0.23626272836E-01  0.00000000000E+00 0.  1.
     999901    1    3    3    0    0 -0.59538459836E-01 -0.92764371137E-01  0.38352726973E-01  0.88770546265E+00  0.88000000000E+00 0. -1.
        -11    1    4    4    0    0  0.75317429724E-02  0.99410425211E-02  0.47298560341E-02  0.13348563133E-01  0.51100000000E-03 0. -1.
         11    1    4    4    0    0  0.56194245878E-01  0.10116194503E+00 -0.28787111109E-01  0.11924970138E+00  0.51100000000E-03 0.  1.
</event>
<event>
 8    1  0.1106168E+005  0.1043930E+01  0.7957747E-01            NaN
         13   -1    0    0    0    0  0.00000000000E+00  0.00000000000E+00  0.74505805969E-08  0.10566000000E+00  0.10566000000E+00 0.  1.
     999900   -1    0    0    0    0 -0.00000000000E+00 -0.00000000000E+00 -0.74505805969E-08  0.93827000000E+00  0.93827000000E+00 0. -1.
     999902    2    1    2    0    0 -0.51641094035E-02  0.18905972289E-01  0.13032969699E-01  0.10203936002E+01  0.10201221188E+01 0.  0.
     999903    2    3    3    0    0  0.13369784290E-01  0.60404296022E-01  0.11679397233E+00  0.13313266808E+00  0.16001413263E-01 0.  0.
         14    1    1    2    0    0  0.51641094035E-02 -0.18905972289E-01 -0.13032969699E-01  0.23536399753E-01  0.00000000000E+00 0. -1.
     999901    1    3    3    0    0 -0.18533893694E-01 -0.41498323733E-01 -0.10376100263E+00  0.88726093217E+00  0.88000000000E+00 0. -1.
        -11    1    4    4    0    0  0.33117212370E-02  0.63128802545E-02  0.26036260560E-01  0.26999406282E-01  0.51100000000E-03 0.  1.
         11    1    4    4    0    0  0.10058063053E-01  0.54091415767E-01  0.90757711772E-01  0.10613326180E+00  0.51100000000E-03 0. -1.
</event>
<event>
 8    1  0.1106168E+005  0.1043930E+01  0.7957747E-01            NaN
         13   -1    0    0    0    0  0.00000000000E+00  0.00000000000E+00  0.74505805969E-08  0.10566000000E+00  0.10566000000E+00 0. -1.
     999900   -1    0    0    0    0 -0.00000000000E+00 -0.00000000000E+00 -0.74505805969E-08  0.93827000000E+00  0.93827000000E+00 0.  1.
     999902    2    1    2    0    0  0.22400454267E-01 -0.20887125677E-02 -0.69869361454E-02  0.10203724036E+01  0.10201004272E+01 0.  0.
     999903    2    3    3    0    0  0.79013855924E-01 -0.81702849605E-02 -0.10485495605E+00  0.13311809277E+00  0.20394161659E-01 0.  0.
         14    1    1    2    0    0 -0.22400454267E-01  0.20887125677E-02  0.69869361454E-02  0.23557596403E-01  0.00000000000E+00 0.  1.
     999901    1    3    3    0    0 -0.56613401657E-01  0.60815723928E-02  0.97868019901E-01  0.88725431083E+00  0.88000000000E+00 0. -1.
        -11    1    4    4    0    0  0.39444451861E-01 -0.93034219392E-02 -0.67230297425E-01  0.78502181213E-01  0.51100000000E-03 0.  1.
         11    1    4    4    0    0  0.39569404064E-01  0.11331369787E-02 -0.37624658622E-01  0.54615911553E-01  0.51100000000E-03 0. -1.
</event>
<event>
 8    1  0.1106168E+005  0.1043930E+01  0.7957747E-01            NaN
         13   -1    0    0    0    0  0.00000000000E+00  0.00000000000E+00  0.74505805969E-08  0.10566000000E+00  0.10566000000E+00 0.  1.
     999900   -1    0    0    0    0 -0.00000000000E+00 -0.00000000000E+00 -0.74505805969E-08  0.93827000000E+00  0.93827000000E+00 0. -1.
     999902    2    1    2    0    0 -0.22111270583E-01  0.31449542556E-02 -0.72965134774E-02  0.10204345082E+01  0.10201639807E+01 0.  0.
     999903    2    3    3    0    0  0.60858863732E-02  0.13949176323E-01 -0.12944701646E+00  0.13148425302E+00  0.17319387657E-01 0.  0.
         14    1    1    2    0    0  0.22111270583E-01 -0.31449542556E-02  0.72965134774E-02  0.23495491759E-01  0.00000000000E+00 0.  1.
     999901    1    3    3    0    0 -0.28197156956E-01 -0.10804222067E-01  0.12215050298E+00  0.88895025522E+00  0.88000000000E+00 0.  1.
        -11    1    4    4    0    0  0.67420138975E-02 -0.15821667691E-02 -0.54480589945E-01  0.54921341980E-01  0.51100000000E-03 0. -1.
         11    1    4    4    0    0 -0.65612752423E-03  0.15531343092E-01 -0.74966426517E-01  0.76562911042E-01  0.51100000000E-03 0.  1.
</event>
<event>
 8    1  0.1106168E+005  0.1043930E+01  0.7957747E-01            NaN
         13   -1    0    0    0    0  0.00000000000E+00  0.00000000000E+00  0.74505805969E-08  0.10566000000E+00  0.10566000000E+00 0. -1.
     999900   -1    0    0    0    0 -0.00000000000E+00 -0.00000000000E+00 -0.74505805969E-08  0.93827000000E+00  0.93827000000E+00 0.  1.
     999902    2    1    2    0    0 -0.29952865395E-02 -0.80698332638E-03 -0.23125867049E-01  0.10205970043E+01  0.10203302487E+01 0.  0.
     999903    2    3    3    0    0 -0.19703417431E-01  0.11480647693E+00  0.53566066503E-01  0.12957103017E+00  0.18723690204E-01 0.  0.
         14    1    1    2    0    0  0.29952865395E-02  0.80698332638E-03  0.23125867049E-01  0.23332995742E-01  0.00000000000E+00 0.  1.
     999901    1    3    3    0    0  0.16708130892E-01 -0.11561346026E+00 -0.76691933552E-01  0.89102597409E+00  0.88000000000E+00 0.  1.
        -11    1    4    4    0    0 -0.14497510132E-01  0.89411496946E-01  0.32744849120E-01  0.96317598864E-01  0.51100000000E-03 0. -1.
         11    1    4    4    0    0 -0.52059072991E-02  0.25394979984E-01  0.20821217383E-01  0.33253431304E-01  0.51100000000E-03 0.  1.
</event>
<event>
 8    1  0.1106168E+005  0.1043930E+01  0.7957747E-01            NaN
         13   -1    0    0    0    0  0.00000000000E+00  0.00000000000E+00  0.74505805969E-08  0.10566000000E+00  0.10566000000E+00 0.  1.
     999900   -1    0    0    0    0 -0.00000000000E+00 -0.00000000000E+00 -0.74505805969E-08  0.93827000000E+00  0.93827000000E+00 0.  1.
     999902    2    1    2    0    0  0.23409375214E-01  0.36373087565E-02 -0.76217024128E-02  0.10190438751E+01  0.10187399571E+01 0.  0.
     999903    2    3    3    0    0 -0.11074648628E+00 -0.16289037588E-01  0.55040469838E-01  0.12645135765E+00  0.20745494973E-01 0.  0.
         14    1    1    2    0    0 -0.23409375214E-01 -0.36373087565E-02  0.76217024128E-02  0.24886124861E-01  0.00000000000E+00 0. -1.
     999901    1    3    3    0    0  0.13415586150E+00  0.19926346344E-01 -0.62662172251E-01  0.89259251749E+00  0.88000000000E+00 0.  1.
        -11    1    4    4    0    0 -0.71474122444E-01 -0.39169622823E-02  0.26417167799E-01  0.76302166733E-01  0.51100000000E-03 0. -1.
         11    1    4    4    0    0 -0.39272363837E-01 -0.12372075305E-01  0.28623302039E-01  0.50149190914E-01  0.51100000000E-03 0.  1.
</event>
<event>
 8    1  0.1106168E+005  0.1043930E+01  0.7957747E-01            NaN
         13   -1    0    0    0    0  0.00000000000E+00  0.00000000000E+00  0.74505805969E-08  0.10566000000E+00  0.10566000000E+00 0.  1.
     999900   -1    0    0    0    0 -0.00000000000E+00 -0.00000000000E+00 -0.74505805969E-08  0.93827000000E+00  0.93827000000E+00 0. -1.
     999902    2    1    2    0    0 -0.12301463506E-01 -0.18960761446E-01  0.46008764699E-02  0.10208647763E+01  0.10206041774E+01 0.  0.
     999903    2    3    3    0    0  0.86421706397E-01  0.92577025859E-01 -0.24197196903E-02  0.12831997014E+00  0.20516886704E-01 0.  0.
         14    1    1    2    0    0  0.12301463506E-01  0.18960761446E-01 -0.46008764699E-02  0.23065223677E-01  0.00000000000E+00 0.  1.
     999901    1    3    3    0    0 -0.98723169903E-01 -0.11153778730E+00  0.70205961602E-02  0.89254480618E+00  0.88000000000E+00 0.  1.
        -11    1    4    4    0    0  0.19660097742E-01  0.30380327175E-01  0.60081996982E-02  0.36685737107E-01  0.51100000000E-03 0. -1.
         11    1    4    4    0    0  0.66761608655E-01  0.62196698684E-01 -0.84279193885E-02  0.91634233034E-01  0.51100000000E-03 0.  1.
</event>
<event>
 8    1  0.1106168E+005  0.1043930E+01  0.7957747E-01            NaN
         13   -1    0    0    0    0  0.00000000000E+00  0.00000000000E+00  0.74505805969E-08  0.10566000000E+00  0.10566000000E+00 0. -1.
     999900   -1    0    0    0    0 -0.00000000000E+00 -0.00000000000E+00 -0.74505805969E-08  0.93827000000E+00  0.93827000000E+00 0.  1.
     999902    2    1    2    0    0  0.15086859600E-01  0.15879975944E-01 -0.11915675421E-01  0.10189946779E+01  0.10186895421E+01 0.  0.
     999903    2    3    3    0    0 -0.24288202331E-01 -0.32140845544E-01  0.11889053687E+00  0.12716136387E+00  0.20300295074E-01 0.  0.
         14    1    1    2    0    0 -0.15086859600E-01 -0.15879975944E-01  0.11915675421E-01  0.24935322121E-01  0.00000000000E+00 0. -1.
     999901    1    3    3    0    0  0.39375061931E-01  0.48020821488E-01 -0.13080621229E+00  0.89183331401E+00  0.88000000000E+00 0. -1.
        -11    1    4    4    0    0 -0.13479074506E-01 -0.31328189283E-01  0.94446085723E-01  0.10041645843E+00  0.51100000000E-03 0.  1.
         11    1    4    4    0    0 -0.10809127825E-01 -0.81265626103E-03  0.24444451146E-01  0.26744905447E-01  0.51100000000E-03 0. -1.
</event>
<event>
 8    1  0.1106168E+005  0.1043930E+01  0.7957747E-01            NaN
         13   -1    0    0    0    0  0.00000000000E+00  0.00000000000E+00  0.74505805969E-08  0.10566000000E+00  0.10566000000E+00 0.  1.
     999900   -1    0    0    0    0 -0.00000000000E+00 -0.00000000000E+00 -0.74505805969E-08  0.93827000000E+00  0.93827000000E+00 0. -1.
     999902    2    1    2    0    0 -0.16741976808E-01  0.12963545442E-01  0.11100925973E-01  0.10200223055E+01  0.10197420879E+01 0.  0.
     999903    2    3    3    0    0 -0.79428571941E-01 -0.58088876032E-01  0.85334710284E-01  0.13182823295E+00  0.20333584670E-01 0.  0.
         14    1    1    2    0    0  0.16741976808E-01 -0.12963545442E-01 -0.11100925973E-01  0.23907694480E-01  0.00000000000E+00 0. -1.
     999901    1    3    3    0    0  0.62686595132E-01  0.71052421474E-01 -0.74233784311E-01  0.88819407257E+00  0.88000000000E+00 0. -1.
        -11    1    4    4    0    0 -0.53346467915E-01 -0.48232914984E-01  0.54383106492E-01  0.90166751742E-01  0.51100000000E-03 0. -1.
         11    1    4    4    0    0 -0.26082104026E-01 -0.98559610472E-02  0.30951603792E-01  0.41661481213E-01  0.51100000000E-03 0.  1.
</event>
<event>
 8    1  0.1106168E+005  0.1043930E+01  0.7957747E-01            NaN
         13   -1    0    0    0    0  0.00000000000E+00  0.00000000000E+00  0.74505805969E-08  0.10566000000E+00  0.10566000000E+00 0. -1.
     999900   -1    0    0    0    0 -0.00000000000E+00 -0.00000000000E+00 -0.74505805969E-08  0.93827000000E+00  0.93827000000E+00 0. -1.
     999902    2    1    2    0    0 -0.20916745466E-01  0.10655677951E-01 -0.70234852137E-02  0.10194272847E+01  0.10191327714E+01 0.  0.
     999903    2    3    3    0    0 -0.57688378247E-01 -0.79351401877E-01  0.82377662129E-01  0.12956999694E+00  0.19434786466E-01 0.  0.
         14    1    1    2    0    0  0.20916745466E-01 -0.10655677951E-01  0.70234852137E-02  0.24502715319E-01  0.00000000000E+00 0.  1.
     999901    1    3    3    0    0  0.36771632781E-01  0.90007079828E-01 -0.89401147343E-01  0.88985728774E+00  0.88000000000E+00 0.  1.
        -11    1    4    4    0    0 -0.36073446751E-01 -0.44909016485E-01  0.36185611782E-01  0.68027736573E-01  0.51100000000E-03 0. -1.
         11    1    4    4    0    0 -0.21614931496E-01 -0.34442385392E-01  0.46192050347E-01  0.61542260369E-01  0.51100000000E-03 0.  1.
</event>
<event>
 8    1  0.1106168E+005  0.1043930E+01  0.7957747E-01            NaN
         13   -1    0    0    0    0  0.00000000000E+00  0.00000000000E+00  0.74505805969E-08  0.10566000000E+00  0.10566000000E+00 0. -1.
     999900   -1    0    0    0    0 -0.00000000000E+00 -0.00000000000E+00 -0.74505805969E-08  0.93827000000E+00  0.93827000000E+00 0. -1.
     999902    2    1    2    0    0  0.14029331046E-01  0.25887870284E-02  0.18650882634E-01  0.10204485313E+01  0.10201783304E+01 0.  0.
     999903    2    3    3    0    0 -0.49630184890E-01 -0.99855047814E-01  0.65814021115E-01  0.13097023767E+00  0.19685831279E-01 0.  0.
         14    1    1    2    0    0 -0.14029331046E-01 -0.25887870284E-02 -0.18650882634E-01  0.23481468670E-01  0.00000000000E+00 0.  1.
     999901    1    3    3    0    0  0.63659515937E-01  0.10244383484E+00 -0.47163138481E-01  0.88947829366E+00  0.88000000000E+00 0. -1.
        -11    1    4    4    0    0 -0.35736961160E-01 -0.84407522304E-01  0.47347750482E-01  0.10316894306E+00  0.51100000000E-03 0.  1.
         11    1    4    4    0    0 -0.13893223730E-01 -0.15447525509E-01  0.18466270633E-01  0.27801294612E-01  0.51100000000E-03 0. -1.
</event>
<event>
 8    1  0.1106168E+005  0.1043930E+01  0.7957747E-01            NaN
         13   -1    0    0    0    0  0.00000000000E+00  0.00000000000E+00  0.74505805969E-08  0.10566000000E+00  0.10566000000E+00 0.  1.
     999900   -1    0    0    0    0 -0.00000000000E+00 -0.00000000000E+00 -0.74505805969E-08  0.93827000000E+00  0.93827000000E+00 0.  1.
     999902    2    1    2    0    0 -0.96063589029E-02  0.15352425730E-01 -0.14635952153E-01  0.10206450220E+01  0.10203793758E+01 0.  0.
     999903    2    3    3    0    0 -0.93583717556E-01 -0.33845354644E-01  0.81261580216E-01  0.13010083154E+00  0.20478323331E-01 0.  0.
         14    1    1    2    0    0  0.96063589029E-02 -0.15352425730E-01  0.14635952153E-01  0.23284978046E-01  0.00000000000E+00 0.  1.
     999901    1    3    3    0    0  0.83977358653E-01  0.49197780374E-01 -0.95897532369E-01  0.89054419041E+00  0.88000000000E+00 0.  1.
        -11    1    4    4    0    0 -0.60575880419E-01 -0.31324617371E-01  0.59274984253E-01  0.90357367276E-01  0.51100000000E-03 0. -1.
         11    1    4    4    0    0 -0.33007837137E-01 -0.25207372727E-02  0.21986595964E-01  0.39743464267E-01  0.51100000000E-03 0.  1.
</event>
<event>
 8    1  0.1106168E+005  0.1043930E+01  0.7957747E-01            NaN
         13   -1    0    0    0    0  0.00000000000E+00  0.00000000000E+00  0.74505805969E-08  0.10566000000E+00  0.10566000000E+00 0.  1.
     999900   -1    0    0    0    0 -0.00000000000E+00 -0.00000000000E+00 -0.74505805969E-08  0.93827000000E+00  0.93827000000E+00 0. -1.
     999902    2    1    2    0    0  0.13837969153E-01  0.17811559262E-01 -0.23661143168E-02  0.10212509451E+01  0.10209990957E+01 0.  0.
     999903    2    3    3    0    0  0.60409818742E-01 -0.31496490236E-01 -0.11058226323E+00  0.13203164944E+00  0.23718018782E-01 0.  0.
         14    1    1    2    0    0 -0.13837969153E-01 -0.17811559262E-01  0.23661143168E-02  0.22679054887E-01  0.00000000000E+00 0. -1.
     999901    1    3    3    0    0 -0.46571849589E-01  0.49308049498E-01  0.10821614891E+00  0.88921929568E+00  0.88000000000E+00 0.  1.
        -11    1    4    4    0    0  0.28350698838E-01 -0.11654156294E-01 -0.71145612642E-01  0.77469612124E-01  0.51100000000E-03 0.  1.
         11    1    4    4    0    0  0.32059119904E-01 -0.19842333942E-01 -0.39436650585E-01  0.54562037312E-01  0.51100000000E-03 0. -1.
</event>
<event>
 8    1  0.1106168E+005  0.1043930E+01  0.7957747E-01            NaN
         13   -1    0    0    0    0  0.00000000000E+00  0.00000000000E+00  0.74505805969E-08  0.10566000000E+00  0.10566000000E+00 0.  1.
     999900   -1    0    0    0    0 -0.00000000000E+00 -0.00000000000E+00 -0.74505805969E-08  0.93827000000E+00  0.93827000000E+00 0. -1.
     999902    2    1    2    0    0 -0.51440506321E-02  0.20821041766E-01 -0.16201837990E-02  0.10224218148E+01  0.10221955612E+01 0.  0.
     999903    2    3    3    0    0 -0.42192007196E-01  0.85738621226E-01  0.92376291678E-01  0.13426519534E+00  0.19039085426E-01 0.  0.
         14    1    1    2    0    0  0.51440506321E-02 -0.20821041766E-01  0.16201837990E-02  0.21508185248E-01  0.00000000000E+00 0. -1.
     999901    1    3    3    0    0  0.37047956564E-01 -0.64917579461E-01 -0.93996475477E-01  0.88815661941E+00  0.88000000000E+00 0.  1.
        -11    1    4    4    0    0 -0.33016491337E-01  0.63960197426E-01  0.79881290317E-01  0.10752802992E+00  0.51100000000E-03 0.  1.
         11    1    4    4    0    0 -0.91755158595E-02  0.21778423800E-01  0.12495001360E-01  0.26737165416E-01  0.51100000000E-03 0. -1.
</event>
<event>
 8    1  0.1106168E+005  0.1043930E+01  0.7957747E-01            NaN
         13   -1    0    0    0    0  0.00000000000E+00  0.00000000000E+00  0.74505805969E-08  0.10566000000E+00  0.10566000000E+00 0. -1.
     999900   -1    0    0    0    0 -0.00000000000E+00 -0.00000000000E+00 -0.74505805969E-08  0.93827000000E+00  0.93827000000E+00 0. -1.
     999902    2    1    2    0    0  0.63561503490E-02  0.25474008511E-01 -0.10039362857E-01  0.10158210234E+01  0.10154320445E+01 0.  0.
     999903    2    3    3    0    0  0.48807914214E-01 -0.10493284446E+00  0.38895854465E-01  0.12385535422E+00  0.20836192989E-01 0.  0.
         14    1    1    2    0    0 -0.63561503490E-02 -0.25474008511E-01  0.10039362857E-01  0.28108976564E-01  0.00000000000E+00 0. -1.
     999901    1    3    3    0    0 -0.42451763865E-01  0.13040685298E+00 -0.48935217323E-01  0.89196566921E+00  0.88000000000E+00 0.  1.
        -11    1    4    4    0    0  0.19310992138E-01 -0.21224726637E-01  0.69743225093E-02  0.29534822390E-01  0.51100000000E-03 0.  1.
         11    1    4    4    0    0  0.29496922076E-01 -0.83708117827E-01  0.31921531956E-01  0.94320531834E-01  0.51100000000E-03 0. -1.
</event>
<event>
 8    1  0.1106168E+005  0.1043930E+01  0.7957747E-01            NaN
         13   -1    0    0    0    0  0.00000000000E+00  0.00000000000E+00  0.74505805969E-08  0.10566000000E+00  0.10566000000E+00 0.  1.
     999900   -1    0    0    0    0 -0.00000000000E+00 -0.00000000000E+00 -0.74505805969E-08  0.93827000000E+00  0.93827000000E+00 0.  1.
     999902    2    1    2    0    0 -0.12725776212E-01  0.84300572713E-02 -0.16135420839E-01  0.10217182227E+01  0.10214767562E+01 0.  0.
     999903    2    3    3    0    0 -0.10926997587E+00  0.45175072535E-01  0.53721005055E-01  0.13292640293E+00  0.28333150311E-01 0.  0.
         14    1    1    2    0    0  0.12725776212E-01 -0.84300572713E-02  0.16135420839E-01  0.22211777314E-01  0.00000000000E+00 0.  1.
     999901    1    3    3    0    0  0.96544199653E-01 -0.36745015263E-01 -0.69856425894E-01  0.88879181976E+00  0.88000000000E+00 0.  1.
        -11    1    4    4    0    0 -0.87610389666E-01  0.29328513206E-01  0.52023530497E-01  0.10603042446E+00  0.51100000000E-03 0.  1.
         11    1    4    4    0    0 -0.21659586200E-01  0.15846559328E-01  0.16974745578E-02  0.26895978468E-01  0.51100000000E-03 0. -1.
</event>
<event>
 8    1  0.1106168E+005  0.1043930E+01  0.7957747E-01            NaN
         13   -1    0    0    0    0  0.00000000000E+00  0.00000000000E+00  0.74505805969E-08  0.10566000000E+00  0.10566000000E+00 0.  1.
     999900   -1    0    0    0    0 -0.00000000000E+00 -0.00000000000E+00 -0.74505805969E-08  0.93827000000E+00  0.93827000000E+00 0.  1.
     999902    2    1    2    0    0 -0.14257265914E-01 -0.31800740262E-02 -0.19514258592E-01  0.10195540120E+01  0.10192625739E+01 0.  0.
     999903    2    3    3    0    0  0.41269176782E-01  0.96002042117E-01 -0.75620044401E-01  0.13047126153E+00  0.19616878621E-01 0.  0.
         14    1    1    2    0    0  0.14257265914E-01  0.31800740262E-02  0.19514258592E-01  0.24375987991E-01  0.00000000000E+00 0.  1.
     999901    1    3    3    0    0 -0.55526442696E-01 -0.99182116143E-01  0.56105785809E-01  0.88908275048E+00  0.88000000000E+00 0.  1.
        -11    1    4    4    0    0  0.98917344018E-02  0.47706016127E-01 -0.34214653984E-01  0.59536661414E-01  0.51100000000E-03 0.  1.
         11    1    4    4    0    0  0.31377442380E-01  0.48296025990E-01 -0.41405390417E-01  0.70934600114E-01  0.51100000000E-03 0. -1.
</event>
<event>
 8    1  0.1106168E+005  0.1043930E+01  0.7957747E-01            NaN
         13   -1    0    0    0    0  0.00000000000E+00  0.00000000000E+00  0.74505805969E-08  0.10566000000E+00  0.10566000000E+00 0. -1.
     999900   -1    0    0    0    0 -0.00000000000E+00 -0.00000000000E+00 -0.74505805969E-08  0.93827000000E+00  0.93827000000E+00 0. -1.
     999902    2    1    2    0    0 -0.19653055875E-01  0.10290086426E-01  0.79374993139E-02  0.10203687526E+01  0.10200966910E+01 0.  0.
     999903    2    3    3    0    0 -0.57177539102E-02  0.89651211723E-01 -0.93024147779E-01  0.13093880312E+00  0.20529140706E-01 0.  0.
         14    1    1    2    0    0  0.19653055875E-01 -0.10290086426E-01 -0.79374993139E-02  0.23561247404E-01  0.00000000000E+00 0.  1.
     999901    1    3    3    0    0 -0.13935301964E-01 -0.79361125296E-01  0.10096164709E+00  0.88942994948E+00  0.88000000000E+00 0.  1.
        -11    1    4    4    0    0 -0.11985210122E-01  0.55608559767E-01 -0.50182789819E-01  0.75858623083E-01  0.51100000000E-03 0.  1.
         11    1    4    4    0    0  0.62674562118E-02  0.34042651956E-01 -0.42841357960E-01  0.55080180033E-01  0.51100000000E-03 0. -1.
</event>
<event>
 8    1  0.1106168E+005  0.1043930E+01  0.7957747E-01            NaN
         13   -1    0    0    0    0  0.00000000000E+00  0.00000000000E+00  0.74505805969E-08  0.10566000000E+00  0.10566000000E+00 0. -1.
     999900   -1    0    0    0    0 -0.00000000000E+00 -0.00000000000E+00 -0.74505805969E-08  0.93827000000E+00  0.93827000000E+00 0.  1.
     999902    2    1    2    0    0  0.35048021567E-02  0.23019203938E-01 -0.95099557251E-03  0.10206260995E+01  0.10203600164E+01 0.  0.
     999903    2    3    3    0    0 -0.12111603262E+00  0.47125699098E-01 -0.23207049467E-02  0.13151792174E+00  0.20041287226E-01 0.  0.
         14    1    1    2    0    0 -0.35048021567E-02 -0.23019203938E-01  0.95099557251E-03  0.23303900547E-01  0.00000000000E+00 0. -1.
     999901    1    3    3    0    0  0.12462083478E+00 -0.24106495160E-01  0.13697093742E-02  0.88910817771E+00  0.88000000000E+00 0.  1.
        -11    1    4    4    0    0 -0.20470658640E-01  0.14993780452E-01 -0.48379405555E-02  0.25836565314E-01  0.51100000000E-03 0. -1.
         11    1    4    4    0    0 -0.10064537398E+00  0.32131918646E-01  0.25172356088E-02  0.10568135643E+00  0.51100000000E-03 0.  1.
</event>
<event>
 8    1  0.1106168E+005  0.1043930E+01  0.7957747E-01            NaN
         13   -1    0    0    0    0  0.00000000000E+00  0.00000000000E+00  0.74505805969E-08  0.10566000000E+00  0.10566000000E+00 0. -1.
     999900   -1    0    0    0    0 -0.00000000000E+00 -0.00000000000E+00 -0.74505805969E-08  0.93827000000E+00  0.93827000000E+00 0. -1.
     999902    2    1    2    0    0  0.14951286626E-01  0.72249944486E-02  0.11981795135E-01  0.10234530634E+01  0.10232481948E+01 0.  0.
     999903    2    3    3    0    0 -0.84449339251E-01  0.30043016282E-01 -0.93602441891E-01  0.13129322481E+00  0.21029028154E-01 0.  0.
         14    1    1    2    0    0 -0.14951286626E-01 -0.72249944486E-02 -0.11981795135E-01  0.20476936568E-01  0.00000000000E+00 0.  1.
     999901    1    3    3    0    0  0.99400625877E-01 -0.22818021834E-01  0.10558423703E+00  0.89215983862E+00  0.88000000000E+00 0.  1.
        -11    1    4    4    0    0 -0.19611950925E-01  0.10386681794E-01 -0.36336726316E-01  0.42580871036E-01  0.51100000000E-03 0.  1.
         11    1    4    4    0    0 -0.64837388326E-01  0.19656334488E-01 -0.57265715575E-01  0.88712353772E-01  0.51100000000E-03 0. -1.
</event>
<event>
 8    1  0.1106168E+005  0.1043930E+01  0.7957747E-01            NaN
         13   -1    0    0    0    0  0.00000000000E+00  0.00000000000E+00  0.74505805969E-08  0.10566000000E+00  0.10566000000E+00 0.  1.
     999900   -1    0    0    0    0 -0.00000000000E+00 -0.00000000000E+00 -0.74505805969E-08  0.93827000000E+00  0.93827000000E+00 0. -1.
     999902    2    1    2    0    0  0.11992054032E-01 -0.15070506200E-01  0.13691887571E-01  0.10202995683E+01  0.10200258878E+01 0.  0.
     999903    2    3    3    0    0 -0.12534826321E+00  0.22091708282E-01  0.67076625976E-02  0.12884448120E+00  0.18859399074E-01 0.  0.
         14    1    1    2    0    0 -0.11992054032E-01  0.15070506200E-01 -0.13691887571E-01  0.23630431699E-01  0.00000000000E+00 0.  1.
     999901    1    3    3    0    0  0.13734031724E+00 -0.37162214481E-01  0.69842249730E-02  0.89145508710E+00  0.88000000000E+00 0.  1.
        -11    1    4    4    0    0 -0.63389525540E-01  0.17864561175E-01  0.10178923697E-01  0.66642674787E-01  0.51100000000E-03 0.  1.
         11    1    4    4    0    0 -0.61958737668E-01  0.42271471068E-02 -0.34712610997E-02  0.62201806410E-01  0.51100000000E-03 0. -1.
</event>
<event>
 7    1  0.1106168E+005  0.1043930E+01  0.7957747E-01            NaN
         13   -1    0    0    0    0  0.00000000000E+00  0.00000000000E+00  0.74505805969E-08  0.10566000000E+00  0.10566000000E+00 0. -1.
     999900   -1    0    0    0    0 -0.00000000000E+00 -0.00000000000E+00 -0.74505805969E-08  0.93827000000E+00  0.93827000000E+00 0.  1.
     999903    2    1    2    0    0 -0.45156520049E-01  0.15644598137E-01 -0.89467254371E-02  0.52576449122E-01  0.20009356621E-01 0.  0.
         14    1    1    2    0    0  0.23634212822E-01  0.96766468083E-01 -0.27029364846E-01  0.10321294456E+00  0.00000000000E+00 0.  1.
     999901    1    1    2    0    0  0.21522307227E-01 -0.11241106622E+00  0.35976090283E-01  0.88814060632E+00  0.88000000000E+00 0.  1.
        -11    1    3    3    0    0 -0.16330209743E-01  0.13706081833E-01 -0.10228765359E-01  0.23652086403E-01  0.51100000000E-03 0.  1.
         11    1    3    3    0    0 -0.28826310306E-01  0.19385163042E-02  0.12820399216E-02  0.28924362719E-01  0.51100000000E-03 0. -1.
</event>
<event>
 8    1  0.1106168E+005  0.1043930E+01  0.7957747E-01            NaN
         13   -1    0    0    0    0  0.00000000000E+00  0.00000000000E+00  0.74505805969E-08  0.10566000000E+00  0.10566000000E+00 0.  1.
     999900   -1    0    0    0    0 -0.00000000000E+00 -0.00000000000E+00 -0.74505805969E-08  0.93827000000E+00  0.93827000000E+00 0.  1.
     999902    2    1    2    0    0 -0.22832407991E-02 -0.21338431868E-01 -0.91438608767E-02  0.10206029330E+01  0.10203363146E+01 0.  0.
     999903    2    3    3    0    0  0.28248749080E-01 -0.14365194318E-01  0.12463187545E+00  0.12994206820E+00  0.18640978472E-01 0.  0.
         14    1    1    2    0    0  0.22832407991E-02  0.21338431868E-01  0.91438608767E-02  0.23327067001E-01  0.00000000000E+00 0.  1.
     999901    1    3    3    0    0 -0.30531989879E-01 -0.69732375498E-02 -0.13377573633E+00  0.89066086480E+00  0.88000000000E+00 0.  1.
        -11    1    4    4    0    0  0.14783810406E-01 -0.13220211902E-01  0.45129321895E-01  0.49297584814E-01  0.51100000000E-03 0.  1.
         11    1    4    4    0    0  0.13464938674E-01 -0.11449824155E-02  0.79502553556E-01  0.80644483390E-01  0.51100000000E-03 0. -1.
</event>
<event>
 8    1  0.1106168E+005  0.1043930E+01  0.7957747E-01            NaN
         13   -1    0    0    0    0  0.00000000000E+00  0.00000000000E+00  0.74505805969E-08  0.10566000000E+00  0.10566000000E+00 0.  1.
     999900   -1    0    0    0    0 -0.00000000000E+00 -0.00000000000E+00 -0.74505805969E-08  0.93827000000E+00  0.93827000000E+00 0.  1.
     999902    2    1    2    0    0  0.42242987529E-02  0.14625884263E-01  0.18530934771E-01  0.10199475745E+01  0.10196655814E+01 0.  0.
     999903    2    3    3    0    0  0.66953784301E-01 -0.10425568603E+00 -0.27627430639E-01  0.12854507795E+00  0.20211502650E-01 0.  0.
         14    1    1    2    0    0 -0.42242987529E-02 -0.14625884263E-01 -0.18530934771E-01  0.23982425522E-01  0.00000000000E+00 0. -1.
     999901    1    3    3    0    0 -0.62729485548E-01  0.11888157030E+00  0.46158365410E-01  0.89140249652E+00  0.88000000000E+00 0.  1.
        -11    1    4    4    0    0  0.22271252909E-01 -0.38859461729E-01 -0.19737593397E-01  0.48947933420E-01  0.51100000000E-03 0.  1.
         11    1    4    4    0    0  0.44682531392E-01 -0.65396224306E-01 -0.78898372419E-02  0.79597144533E-01  0.51100000000E-03 0. -1.
</event>
<event>
 8    1  0.1106168E+005  0.1043930E+01  0.7957747E-01            NaN
         13   -1    0    0    0    0  0.00000000000E+00  0.00000000000E+00  0.74505805969E-08  0.10566000000E+00  0.10566000000E+00 0.  1.
     999900   -1    0    0    0    0 -0.00000000000E+00 -0.00000000000E+00 -0.74505805969E-08  0.93827000000E+00  0.93827000000E+00 0.  1.
     999902    2    1    2    0    0 -0.13660265858E-01  0.11039522480E-01 -0.16306233434E-01  0.10199640415E+01  0.10196824401E+01 0.  0.
     999903    2    3    3    0    0  0.36363725530E-01  0.47359077597E-01 -0.11620066908E+00  0.13215752646E+00  0.19945263653E-01 0.  0.
         14    1    1    2    0    0  0.13660265858E-01 -0.11039522480E-01  0.16306233434E-01  0.23965958539E-01  0.00000000000E+00 0.  1.
     999901    1    3    3    0    0 -0.50023991388E-01 -0.36319555117E-01  0.99894435642E-01  0.88780651500E+00  0.88000000000E+00 0. -1.
        -11    1    4    4    0    0  0.25038234058E-01  0.44251030144E-01 -0.88514701991E-01  0.10207928499E+00  0.51100000000E-03 0. -1.
         11    1    4    4    0    0  0.11325491471E-01  0.31080474534E-02 -0.27685967085E-01  0.30078241479E-01  0.51100000000E-03 0.  1.
</event>
<event>
 8    1  0.1106168E+005  0.1043930E+01  0.7957747E-01            NaN
         13   -1    0    0    0    0  0.00000000000E+00  0.00000000000E+00  0.74505805969E-08  0.10566000000E+00  0.10566000000E+00 0.  1.
     999900   -1    0    0    0    0 -0.00000000000E+00 -0.00000000000E+00 -0.74505805969E-08  0.93827000000E+00  0.93827000000E+00 0. -1.
     999902    2    1    2    0    0  0.89963726911E-03 -0.25560131642E-01  0.34489902229E-02  0.10181225358E+01  0.10177953982E+01 0.  0.
     999903    2    3    3    0    0  0.11377584423E+00  0.91143241701E-02  0.55773524374E-01  0.12869507225E+00  0.20584507854E-01 0.  0.
         14    1    1    2    0    0 -0.89963726911E-03  0.25560131642E-01 -0.34489902229E-02  0.25807464236E-01  0.00000000000E+00 0.  1.
     999901    1    3    3    0    0 -0.11287620696E+00 -0.34674455812E-01 -0.52324534151E-01  0.88942746352E+00  0.88000000000E+00 0. -1.
        -11    1    4    4    0    0  0.82772746675E-02  0.46761549689E-02  0.93617785564E-02  0.13352292685E-01  0.51100000000E-03 0.  1.
         11    1    4    4    0    0  0.10549856957E+00  0.44381692012E-02  0.46411745817E-01  0.11534277956E+00  0.51100000000E-03 0. -1.
</event>
<event>
 8    1  0.1106168E+005  0.1043930E+01  0.7957747E-01            NaN
         13   -1    0    0    0    0  0.00000000000E+00  0.00000000000E+00  0.74505805969E-08  0.10566000000E+00  0.10566000000E+00 0. -1.
     999900   -1    0    0    0    0 -0.00000000000E+00 -0.00000000000E+00 -0.74505805969E-08  0.93827000000E+00  0.93827000000E+00 0.  1.
     999902    2    1    2    0    0 -0.27233452232E-02  0.10690811593E-01  0.21004907233E-01  0.10202041451E+01  0.10199282237E+01 0.  0.
     999903    2    3    3    0    0 -0.50838732933E-01 -0.70613720374E-01  0.97212909203E-01  0.13187246325E+00  0.19212563011E-01 0.  0.
         14    1    1    2    0    0  0.27233452232E-02 -0.10690811593E-01 -0.21004907233E-01  0.23725854876E-01  0.00000000000E+00 0. -1.
     999901    1    3    3    0    0  0.48115387710E-01  0.81304531967E-01 -0.76208001970E-01  0.88833168187E+00  0.88000000000E+00 0. -1.
        -11    1    4    4    0    0 -0.24911657118E-01 -0.19176257133E-01  0.36664667342E-01  0.48299880438E-01  0.51100000000E-03 0. -1.
         11    1    4    4    0    0 -0.25927075815E-01 -0.51437463241E-01  0.60548241861E-01  0.83572582815E-01  0.51100000000E-03 0.  1.
</event>
<event>
 8    1  0.1106168E+005  0.1043930E+01  0.7957747E-01            NaN
         13   -1    0    0    0    0  0.00000000000E+00  0.00000000000E+00  0.74505805969E-08  0.10566000000E+00  0.10566000000E+00 0.  1.
     999900   -1    0    0    0    0 -0.00000000000E+00 -0.00000000000E+00 -0.74505805969E-08  0.93827000000E+00  0.93827000000E+00 0. -1.
     999902    2    1    2    0    0  0.21431733018E-01  0.82371422373E-02  0.55938210794E-02  0.10202982306E+01  0.10200245187E+01 0.  0.
     999903    2    3    3    0    0 -0.30641937071E-01  0.12267449328E+00  0.28713330835E-01  0.13106143074E+00  0.19096692139E-01 0.  0.
         14    1    1    2    0    0 -0.21431733018E-01 -0.82371422373E-02 -0.55938210794E-02  0.23631769435E-01  0.00000000000E+00 0. -1.
     999901    1    3    3    0    0  0.52073670089E-01 -0.11443735104E+00 -0.23119509756E-01  0.88923679982E+00  0.88000000000E+00 0. -1.
        -11    1    4    4    0    0 -0.19310253902E-01  0.49688901336E-01  0.18839676418E-01  0.56542615347E-01  0.51100000000E-03 0.  1.
         11    1    4    4    0    0 -0.11331683170E-01  0.72985591945E-01  0.98736544177E-02  0.74518815393E-01  0.51100000000E-03 0. -1.
</event>
<event>
 8    1  0.1106168E+005  0.1043930E+01  0.7957747E-01            NaN
         13   -1    0    0    0    0  0.00000000000E+00  0.00000000000E+00  0.74505805969E-08  0.10566000000E+00  0.10566000000E+00 0.  1.
     999900   -1    0    0    0    0 -0.00000000000E+00 -0.00000000000E+00 -0.74505805969E-08  0.93827000000E+00  0.93827000000E+00 0.  1.
     999902    2    1    2    0    0  0.16215471113E-01  0.98582827114E-02  0.13091761341E-01  0.10208752509E+01  0.10206148913E+01 0.  0.
     999903    2    3    3    0    0  0.69738400454E-01 -0.93696634245E-01 -0.54836069621E-01  0.13059298385E+00  0.20125335587E-01 0.  0.
         14    1    1    2    0    0 -0.16215471113E-01 -0.98582827114E-02 -0.13091761341E-01  0.23054749108E-01  0.00000000000E+00 0. -1.
     999901    1    3    3    0    0 -0.53522929341E-01  0.10355491696E+00  0.67927830962E-01  0.89028226704E+00  0.88000000000E+00 0. -1.
        -11    1    4    4    0    0  0.20133516825E-01 -0.13610750448E-01 -0.10598328403E-01  0.26517856501E-01  0.51100000000E-03 0.  1.
         11    1    4    4    0    0  0.49604883629E-01 -0.80085883797E-01 -0.44237741218E-01  0.10407512735E+00  0.51100000000E-03 0. -1.
</event>
<event>
 8    1  0.1106168E+005  0.1043930E+01  0.7957747E-01            NaN
         13   -1    0    0    0    0  0.00000000000E+00  0.00000000000E+00  0.74505805969E-08  0.10566000000E+00  0.10566000000E+00 0. -1.
     999900   -1    0    0    0    0 -0.00000000000E+00 -0.00000000000E+00 -0.74505805969E-08  0.93827000000E+00  0.93827000000E+00 0.  1.
     999902    2    1    2    0    0  0.25677730757E-02  0.97762368196E-02 -0.21951013263E-01  0.10197635926E+01  0.10194772040E+01 0.  0.
     999903    2    3    3    0    0  0.87355758451E-01  0.32543790100E-01  0.86351015086E-01  0.12878845639E+00  0.20972407678E-01 0.  0.
         14    1    1    2    0    0 -0.25677730757E-02 -0.97762368196E-02  0.21951013263E-01  0.24166407432E-01  0.00000000000E+00 0. -1.
     999901    1    3    3    0    0 -0.84787985375E-01 -0.22767553280E-01 -0.10830202835E+00  0.89097513618E+00  0.88000000000E+00 0. -1.
        -11    1    4    4    0    0  0.13231674162E-01  0.10331416736E-01  0.77800992577E-02  0.18509630962E-01  0.51100000000E-03 0. -1.
         11    1    4    4    0    0  0.74124084290E-01  0.22212373364E-01  0.78570915828E-01  0.11027882543E+00  0.51100000000E-03 0.  1.
</event>
<event>
 8    1  0.1106168E+005  0.1043930E+01  0.7957747E-01            NaN
         13   -1    0    0    0    0  0.00000000000E+00  0.00000000000E+00  0.74505805969E-08  0.10566000000E+00  0.10566000000E+00 0.  1.
     999900   -1    0    0    0    0 -0.00000000000E+00 -0.00000000000E+00 -0.74505805969E-08  0.93827000000E+00  0.93827000000E+00 0.  1.
     999902    2    1    2    0    0  0.13269725652E-02 -0.20442025194E-01  0.11441531599E-01  0.10204662856E+01  0.10201964978E+01 0.  0.
     999903    2    3    3    0    0  0.57490423547E-01 -0.65777517219E-01  0.98507881314E-01  0.13322889381E+00  0.20354480902E-01 0.  0.
         14    1    1    2    0    0 -0.13269725652E-02  0.20442025194E-01 -0.11441531599E-01  0.23463714445E-01  0.00000000000E+00 0.  1.
     999901    1    3    3    0    0 -0.56163450982E-01  0.45335492025E-01 -0.87066349715E-01  0.88723739175E+00  0.88000000000E+00 0.  1.
        -11    1    4    4    0    0  0.18936282594E-01 -0.34731659514E-01  0.51701889341E-01  0.65101593325E-01  0.51100000000E-03 0. -1.
         11    1    4    4    0    0  0.38554140953E-01 -0.31045857705E-01  0.46805991973E-01  0.68127300481E-01  0.51100000000E-03 0.  1.
</event>
<event>
 8    1  0.1106168E+005  0.1043930E+01  0.7957747E-01            NaN
         13   -1    0    0    0    0  0.00000000000E+00  0.00000000000E+00  0.74505805969E-08  0.10566000000E+00  0.10566000000E+00 0. -1.
     999900   -1    0    0    0    0 -0.00000000000E+00 -0.00000000000E+00 -0.74505805969E-08  0.93827000000E+00  0.93827000000E+00 0. -1.
     999902    2    1    2    0    0 -0.14742898060E-01  0.13237691792E-01  0.15013984328E-01  0.10190702081E+01  0.10187669409E+01 0.  0.
     999903    2    3    3    0    0 -0.11741468798E+00  0.39386796956E-01 -0.37234487895E-01  0.13117653487E+00  0.21985165074E-01 0.  0.
         14    1    1    2    0    0  0.14742898060E-01 -0.13237691792E-01 -0.15013984328E-01  0.24859791885E-01  0.00000000000E+00 0.  1.
     999901    1    3    3    0    0  0.10267178992E+00 -0.26149105164E-01  0.52248472223E-01  0.88789367325E+00  0.88000000000E+00 0.  1.
        -11    1    4    4    0    0 -0.52969055446E-01  0.72745619475E-02 -0.20414007699E-01  0.57233145272E-01  0.51100000000E-03 0.  1.
         11    1    4    4    0    0 -0.64445632531E-01  0.32112235009E-01 -0.16820480195E-01  0.73943389594E-01  0.51100000000E-03 0. -1.
</event>
<event>
 8    1  0.1106168E+005  0.1043930E+01  0.7957747E-01            NaN
         13   -1    0    0    0    0  0.00000000000E+00  0.00000000000E+00  0.74505805969E-08  0.10566000000E+00  0.10566000000E+00 0.  1.
     999900   -1    0    0    0    0 -0.00000000000E+00 -0.00000000000E+00 -0.74505805969E-08  0.93827000000E+00  0.93827000000E+00 0. -1.
     999902    2    1    2    0    0  0.14977386856E-01  0.77438415109E-02 -0.18166975310E-01  0.10191443552E+01  0.10188429165E+01 0.  0.
     999903    2    3    3    0    0  0.60563263726E-01 -0.82930926377E-01 -0.79033281125E-01  0.13122279731E+00  0.20681284918E-01 0.  0.
         14    1    1    2    0    0 -0.14977386856E-01 -0.77438415109E-02  0.18166975310E-01  0.24785644844E-01  0.00000000000E+00 0.  1.
     999901    1    3    3    0    0 -0.45585876870E-01  0.90674767888E-01  0.60866305815E-01  0.88792155784E+00  0.88000000000E+00 0.  1.
        -11    1    4    4    0    0  0.37386772487E-01 -0.65152287162E-01 -0.62036134776E-01  0.97423479810E-01  0.51100000000E-03 0. -1.
         11    1    4    4    0    0  0.23176491240E-01 -0.17778639216E-01 -0.16997146349E-01  0.33799317502E-01  0.51100000000E-03 0.  1.
</event>
<event>
 8    1  0.1106168E+005  0.1043930E+01  0.7957747E-01            NaN
         13   -1    0    0    0    0  0.00000000000E+00  0.00000000000E+00  0.74505805969E-08  0.10566000000E+00  0.10566000000E+00 0.  1.
     999900   -1    0    0    0    0 -0.00000000000E+00 -0.00000000000E+00 -0.74505805969E-08  0.93827000000E+00  0.93827000000E+00 0. -1.
     999902    2    1    2    0    0  0.88456761231E-03 -0.22836059864E-01  0.12952791210E-01  0.10176613325E+01  0.10173222424E+01 0.  0.
     999903    2    3    3    0    0 -0.48717265619E-01  0.79235429342E-01  0.84763619623E-01  0.12747274250E+00  0.20317569618E-01 0.  0.
         14    1    1    2    0    0 -0.88456761231E-03  0.22836059864E-01 -0.12952791210E-01  0.26268667460E-01  0.00000000000E+00 0. -1.
     999901    1    3    3    0    0  0.49601833232E-01 -0.10207148921E+00 -0.71810828413E-01  0.89018859004E+00  0.88000000000E+00 0.  1.
        -11    1    4    4    0    0 -0.17131433280E-04  0.11262000388E-01  0.13641561674E-01  0.17697069592E-01  0.51100000000E-03 0. -1.
         11    1    4    4    0    0 -0.48700134186E-01  0.67973428954E-01  0.71122057949E-01  0.10977567290E+00  0.51100000000E-03 0.  1.
</event>
<event>
 8    1  0.1496593E+005  0.1043930E+01  0.7957747E-01            NaN
         13   -1    0    0    0    0  0.00000000000E+00  0.00000000000E+00  0.74505805969E-08  0.10566000000E+00  0.10566000000E+00 0.  1.
     999900   -1    0    0    0    0 -0.00000000000E+00 -0.00000000000E+00 -0.74505805969E-08  0.93827000000E+00  0.93827000000E+00 0. -1.
     999902    2    1    2    0    0 -0.19459975290E-01 -0.87912760011E-03  0.12191586030E-01  0.10209496111E+01  0.10206909474E+01 0.  0.
     999903    2    3    3    0    0 -0.70501720797E-01 -0.10786056398E+00  0.25515345779E-01  0.13290242200E+00  0.20189774742E-01 0.  0.
         14    1    1    2    0    0  0.19459975290E-01  0.87912760011E-03 -0.12191586030E-01  0.22980388891E-01  0.00000000000E+00 0. -1.
     999901    1    3    3    0    0  0.51041745507E-01  0.10698143638E+00 -0.13323759749E-01  0.88804718911E+00  0.88000000000E+00 0. -1.
        -11    1    4    4    0    0 -0.52192841252E-01 -0.73785566750E-01  0.26560697525E-01  0.94202623703E-01  0.51100000000E-03 0. -1.
         11    1    4    4    0    0 -0.18308879545E-01 -0.34074997235E-01 -0.10453517453E-02  0.38699798294E-01  0.51100000000E-03 0.  1.
</event>
<event>
 8    1  0.1106168E+005  0.1043930E+01  0.7957747E-01            NaN
         13   -1    0    0    0    0  0.00000000000E+00  0.00000000000E+00  0.74505805969E-08  0.10566000000E+00  0.10566000000E+00 0.  1.
     999900   -1    0    0    0    0 -0.00000000000E+00 -0.00000000000E+00 -0.74505805969E-08  0.93827000000E+00  0.93827000000E+00 0.  1.
     999902    2    1    2    0    0  0.19856241254E-01 -0.59910802551E-02 -0.98732037939E-02  0.10209595078E+01  0.10207010694E+01 0.  0.
     999903    2    3    3    0    0 -0.52335042533E-01 -0.73083109670E-01  0.91295728537E-01  0.12969743929E+00  0.20159814335E-01 0.  0.
         14    1    1    2    0    0 -0.19856241254E-01  0.59910802551E-02  0.98732037939E-02  0.22970492214E-01  0.00000000000E+00 0.  1.
     999901    1    3    3    0    0  0.72191283788E-01  0.67092029415E-01 -0.10116893233E+00  0.89126206849E+00  0.88000000000E+00 0.  1.
        -11    1    4    4    0    0 -0.30215925693E-04 -0.10421986290E-01  0.11928087137E-01  0.15847999715E-01  0.51100000000E-03 0. -1.
         11    1    4    4    0    0 -0.52304826608E-01 -0.62661123380E-01  0.79367641400E-01  0.11384943958E+00  0.51100000000E-03 0.  1.
</event>
<event>
 8    1  0.1106168E+005  0.1043930E+01  0.7957747E-01            NaN
         13   -1    0    0    0    0  0.00000000000E+00  0.00000000000E+00  0.74505805969E-08  0.10566000000E+00  0.10566000000E+00 0. -1.
     999900   -1    0    0    0    0 -0.00000000000E+00 -0.00000000000E+00 -0.74505805969E-08  0.93827000000E+00  0.93827000000E+00 0. -1.
     999902    2    1    2    0    0 -0.16684185144E-01  0.16787005190E-01 -0.14223568885E-02  0.10202194817E+01  0.10199439211E+01 0.  0.
     999903    2    3    3    0    0 -0.15702974517E-01  0.16429475336E-01 -0.12785444844E+00  0.13118283211E+00  0.18592051708E-01 0.  0.
         14    1    1    2    0    0  0.16684185144E-01 -0.16787005190E-01  0.14223568885E-02  0.23710518262E-01  0.00000000000E+00 0. -1.
     999901    1    3    3    0    0 -0.98121062735E-03  0.35752985335E-03  0.12643209155E+00  0.88903664962E+00  0.88000000000E+00 0.  1.
        -11    1    4    4    0    0 -0.12605895368E-01  0.68527019370E-02 -0.35697988960E-01  0.38476949706E-01  0.51100000000E-03 0. -1.
         11    1    4    4    0    0 -0.30970791490E-02  0.95767733992E-02 -0.92156459480E-01  0.92705882407E-01  0.51100000000E-03 0.  1.
</event>
<event>
 8    1  0.1106168E+005  0.1043930E+01  0.7957747E-01            NaN
         13   -1    0    0    0    0  0.00000000000E+00  0.00000000000E+00  0.74505805969E-08  0.10566000000E+00  0.10566000000E+00 0. -1.
     999900   -1    0    0    0    0 -0.00000000000E+00 -0.00000000000E+00 -0.74505805969E-08  0.93827000000E+00  0.93827000000E+00 0.  1.
     999902    2    1    2    0    0 -0.20796685749E-01 -0.96002428240E-02  0.86371235359E-02  0.10194500755E+01  0.10191561165E+01 0.  0.
     999903    2    3    3    0    0  0.10783412334E+00 -0.64835282670E-01 -0.14673851007E-01  0.12808023295E+00  0.18905346701E-01 0.  0.
         14    1    1    2    0    0  0.20796685749E-01  0.96002428240E-02 -0.86371235359E-02  0.24479924497E-01  0.00000000000E+00 0.  1.
     999901    1    3    3    0    0 -0.12863080909E+00  0.55235039846E-01  0.23310974543E-01  0.89136984255E+00  0.88000000000E+00 0. -1.
        -11    1    4    4    0    0  0.84981096414E-01 -0.52827071427E-01 -0.19134763249E-01  0.10187682027E+00  0.51100000000E-03 0.  1.
         11    1    4    4    0    0  0.22853026928E-01 -0.12008211243E-01  0.44609122416E-02  0.26203412680E-01  0.51100000000E-03 0. -1.
</event>
<event>
 8    1  0.1106168E+005  0.1043930E+01  0.7957747E-01            NaN
         13   -1    0    0    0    0  0.00000000000E+00  0.00000000000E+00  0.74505805969E-08  0.10566000000E+00  0.10566000000E+00 0.  1.
     999900   -1    0    0    0    0 -0.00000000000E+00 -0.00000000000E+00 -0.74505805969E-08  0.93827000000E+00  0.93827000000E+00 0.  1.
     999902    2    1    2    0    0 -0.12003145837E-02 -0.23041698672E-01 -0.72234369073E-02  0.10197527654E+01  0.10194661171E+01 0.  0.
     999903    2    3    3    0    0 -0.13218806359E-01 -0.47912007509E-01 -0.12133633463E+00  0.13195508019E+00  0.14810124283E-01 0.  0.
         14    1    1    2    0    0  0.12003145837E-02  0.23041698672E-01  0.72234369073E-02  0.24177234613E-01  0.00000000000E+00 0.  1.
     999901    1    3    3    0    0  0.12018491775E-01  0.24870308837E-01  0.11411289773E+00  0.88779768519E+00  0.88000000000E+00 0. -1.
        -11    1    4    4    0    0 -0.14127808691E-01 -0.27723500295E-01 -0.64128077632E-01  0.71280143861E-01  0.51100000000E-03 0. -1.
         11    1    4    4    0    0  0.90900233144E-03 -0.20188507214E-01 -0.57208257002E-01  0.60674936333E-01  0.51100000000E-03 0.  1.
</event>
<event>
 8    1  0.1106168E+005  0.1043930E+01  0.7957747E-01            NaN
         13   -1    0    0    0    0  0.00000000000E+00  0.00000000000E+00  0.74505805969E-08  0.10566000000E+00  0.10566000000E+00 0. -1.
     999900   -1    0    0    0    0 -0.00000000000E+00 -0.00000000000E+00 -0.74505805969E-08  0.93827000000E+00  0.93827000000E+00 0.  1.
     999902    2    1    2    0    0 -0.13089346772E-01  0.14078956335E-01  0.13455718499E-01  0.10204650395E+01  0.10201952227E+01 0.  0.
     999903    2    3    3    0    0  0.47810057639E-02 -0.67865484846E-01 -0.10699065139E+00  0.12830946510E+00  0.19691046190E-01 0.  0.
         14    1    1    2    0    0  0.13089346772E-01 -0.14078956335E-01 -0.13455718499E-01  0.23464960488E-01  0.00000000000E+00 0.  1.
     999901    1    3    3    0    0 -0.17870352536E-01  0.81944441181E-01  0.12044636988E+00  0.89215557441E+00  0.88000000000E+00 0. -1.
        -11    1    4    4    0    0  0.26879670697E-02 -0.25390975827E-01 -0.23948079959E-01  0.35009976794E-01  0.51100000000E-03 0. -1.
         11    1    4    4    0    0  0.20930386941E-02 -0.42474509019E-01 -0.83042571427E-01  0.93299488303E-01  0.51100000000E-03 0.  1.
</event>
<event>
 8    1  0.1106168E+005  0.1043930E+01  0.7957747E-01            NaN
         13   -1    0    0    0    0  0.00000000000E+00  0.00000000000E+00  0.74505805969E-08  0.10566000000E+00  0.10566000000E+00 0.  1.
     999900   -1    0    0    0    0 -0.00000000000E+00 -0.00000000000E+00 -0.74505805969E-08  0.93827000000E+00  0.93827000000E+00 0.  1.
     999902    2    1    2    0    0  0.23304912169E-02  0.94434088462E-02  0.21491453531E-01  0.10203399230E+01  0.10200671873E+01 0.  0.
     999903    2    3    3    0    0  0.69074291699E-02  0.49265681008E-01  0.12241958758E+00  0.13366453142E+00  0.20120428248E-01 0.  0.
         14    1    1    2    0    0 -0.23304912169E-02 -0.94434088462E-02 -0.21491453531E-01  0.23590077041E-01  0.00000000000E+00 0. -1.
     999901    1    3    3    0    0 -0.45769379530E-02 -0.39822272162E-01 -0.10092813405E+00  0.88667539154E+00  0.88000000000E+00 0.  1.
        -11    1    4    4    0    0 -0.10963159498E-02  0.44088468978E-01  0.99567006102E-01  0.10889832336E+00  0.51100000000E-03 0. -1.
         11    1    4    4    0    0  0.80037451197E-02  0.51772120301E-02  0.22852581479E-01  0.24766208059E-01  0.51100000000E-03 0.  1.
</event>
<event>
 8    1  0.1106168E+005  0.1043930E+01  0.7957747E-01            NaN
         13   -1    0    0    0    0  0.00000000000E+00  0.00000000000E+00  0.74505805969E-08  0.10566000000E+00  0.10566000000E+00 0.  1.
     999900   -1    0    0    0    0 -0.00000000000E+00 -0.00000000000E+00 -0.74505805969E-08  0.93827000000E+00  0.93827000000E+00 0.  1.
     999902    2    1    2    0    0 -0.24202356193E-01 -0.28927113858E-02 -0.70117132949E-02  0.10185669176E+01  0.10182510887E+01 0.  0.
     999903    2    3    3    0    0  0.27158180196E-01  0.84248442862E-01 -0.91250548100E-01  0.12877611819E+00  0.20524600156E-01 0.  0.
         14    1    1    2    0    0  0.24202356193E-01  0.28927113858E-02  0.70117132949E-02  0.25363082379E-01  0.00000000000E+00 0. -1.
     999901    1    3    3    0    0 -0.51360536388E-01 -0.87141154247E-01  0.84238834805E-01  0.88979079943E+00  0.88000000000E+00 0. -1.
        -11    1    4    4    0    0  0.21444002979E-01  0.58809221975E-01 -0.50658193134E-01  0.80528774396E-01  0.51100000000E-03 0.  1.
         11    1    4    4    0    0  0.57141772163E-02  0.25439220886E-01 -0.40592354966E-01  0.48247343795E-01  0.51100000000E-03 0. -1.
</event>
<event>
 8    1  0.1106168E+005  0.1043930E+01  0.7957747E-01            NaN
         13   -1    0    0    0    0  0.00000000000E+00  0.00000000000E+00  0.74505805969E-08  0.10566000000E+00  0.10566000000E+00 0.  1.
     999900   -1    0    0    0    0 -0.00000000000E+00 -0.00000000000E+00 -0.74505805969E-08  0.93827000000E+00  0.93827000000E+00 0.  1.
     999902    2    1    2    0    0 -0.46402682834E-02 -0.39067303911E-02  0.22074646840E-01  0.10210371045E+01  0.10207804289E+01 0.  0.
     999903    2    3    3    0    0 -0.95326305807E-01  0.84081959033E-01 -0.22250237912E-01  0.13090752837E+00  0.22018798376E-01 0.  0.
         14    1    1    2    0    0  0.46402682834E-02  0.39067303911E-02 -0.22074646840E-01  0.22892895519E-01  0.00000000000E+00 0. -1.
     999901    1    3    3    0    0  0.90686037524E-01 -0.87988689424E-01  0.44324884753E-01  0.89012957612E+00  0.88000000000E+00 0. -1.
        -11    1    4    4    0    0 -0.42684554454E-01  0.23842659948E-01 -0.11028215682E-01  0.50123111280E-01  0.51100000000E-03 0.  1.
         11    1    4    4    0    0 -0.52641751353E-01  0.60239299085E-01 -0.11222022230E-01  0.80784417085E-01  0.51100000000E-03 0. -1.
</event>
<event>
 8    1  0.1106168E+005  0.1043930E+01  0.7957747E-01            NaN
         13   -1    0    0    0    0  0.00000000000E+00  0.00000000000E+00  0.74505805969E-08  0.10566000000E+00  0.10566000000E+00 0.  1.
     999900   -1    0    0    0    0 -0.00000000000E+00 -0.00000000000E+00 -0.74505805969E-08  0.93827000000E+00  0.93827000000E+00 0.  1.
     999902    2    1    2    0    0 -0.15942246581E-01 -0.23326185366E-02  0.17334473553E-01  0.10202639841E+01  0.10199894690E+01 0.  0.
     999903    2    3    3    0    0  0.61888367933E-01  0.10835062935E+00 -0.25497135258E-01  0.12889260660E+00  0.19828544159E-01 0.  0.
         14    1    1    2    0    0  0.15942246581E-01  0.23326185366E-02 -0.17334473553E-01  0.23666015901E-01  0.00000000000E+00 0. -1.
     999901    1    3    3    0    0 -0.77830614514E-01 -0.11068324788E+00  0.42831608810E-01  0.89137137750E+00  0.88000000000E+00 0.  1.
        -11    1    4    4    0    0  0.53432782604E-01  0.76780450416E-01 -0.21284563680E-01  0.95935361546E-01  0.51100000000E-03 0.  1.
         11    1    4    4    0    0  0.84555853289E-02  0.31570178931E-01 -0.42125715775E-02  0.32957245050E-01  0.51100000000E-03 0. -1.
</event>
<event>
 8    1  0.1106168E+005  0.1043930E+01  0.7957747E-01            NaN
         13   -1    0    0    0    0  0.00000000000E+00  0.00000000000E+00  0.74505805969E-08  0.10566000000E+00  0.10566000000E+00 0.  1.
     999900   -1    0    0    0    0 -0.00000000000E+00 -0.00000000000E+00 -0.74505805969E-08  0.93827000000E+00  0.93827000000E+00 0.  1.
     999902    2    1    2    0    0  0.11615531689E-01  0.20397865929E-01  0.49767663788E-02  0.10199349648E+01  0.10196526716E+01 0.  0.
     999903    2    3    3    0    0 -0.10662943863E-01 -0.96817666443E-01 -0.80286800127E-01  0.12779950015E+00  0.19984570470E-01 0.  0.
         14    1    1    2    0    0 -0.11615531689E-01 -0.20397865929E-01 -0.49767663788E-02  0.23995035205E-01  0.00000000000E+00 0. -1.
     999901    1    3    3    0    0  0.22278475552E-01  0.11721553237E+00  0.85263566506E-01  0.89213546464E+00  0.88000000000E+00 0. -1.
        -11    1    4    4    0    0  0.37456020293E-02 -0.27404210089E-01 -0.30453500981E-01  0.41142400370E-01  0.51100000000E-03 0. -1.
         11    1    4    4    0    0 -0.14408545892E-01 -0.69413456354E-01 -0.49833299146E-01  0.86657099782E-01  0.51100000000E-03 0.  1.
</event>
<event>
 8    1  0.1106168E+005  0.1043930E+01  0.7957747E-01            NaN
         13   -1    0    0    0    0  0.00000000000E+00  0.00000000000E+00  0.74505805969E-08  0.10566000000E+00  0.10566000000E+00 0.  1.
     999900   -1    0    0    0    0 -0.00000000000E+00 -0.00000000000E+00 -0.74505805969E-08  0.93827000000E+00  0.93827000000E+00 0. -1.
     999902    2    1    2    0    0 -0.12404692047E-01 -0.12417320682E-01 -0.14578807216E-01  0.10211131672E+01  0.10208582137E+01 0.  0.
     999903    2    3    3    0    0  0.53474046590E-01  0.18724293768E-01 -0.11782160492E+00  0.13208623646E+00  0.18835350868E-01 0.  0.
         14    1    1    2    0    0  0.12404692047E-01  0.12417320682E-01  0.14578807216E-01  0.22816832768E-01  0.00000000000E+00 0.  1.
     999901    1    3    3    0    0 -0.65878738637E-01 -0.31141614450E-01  0.10324279770E+00  0.88902693077E+00  0.88000000000E+00 0.  1.
        -11    1    4    4    0    0  0.13149541270E-01  0.69092329949E-02 -0.51241742956E-01  0.53353774734E-01  0.51100000000E-03 0. -1.
         11    1    4    4    0    0  0.40324505321E-01  0.11815060773E-01 -0.66579861960E-01  0.78732461730E-01  0.51100000000E-03 0.  1.
</event>
<event>
 8    1  0.1106168E+005  0.1043930E+01  0.7957747E-01            NaN
         13   -1    0    0    0    0  0.00000000000E+00  0.00000000000E+00  0.74505805969E-08  0.10566000000E+00  0.10566000000E+00 0. -1.
     999900   -1    0    0    0    0 -0.00000000000E+00 -0.00000000000E+00 -0.74505805969E-08  0.93827000000E+00  0.93827000000E+00 0. -1.
     999902    2    1    2    0    0 -0.18111957413E-01  0.14214324969E-01 -0.37453633833E-02  0.10206036676E+01  0.10203370662E+01 0.  0.
     999903    2    3    3    0    0  0.54776760129E-01  0.72832464287E-01  0.91377706182E-01  0.13054903459E+00  0.19700353844E-01 0.  0.
         14    1    1    2    0    0  0.18111957413E-01 -0.14214324969E-01  0.37453633833E-02  0.23326332385E-01  0.00000000000E+00 0.  1.
     999901    1    3    3    0    0 -0.72888717542E-01 -0.58618139318E-01 -0.95123069565E-01  0.89005463302E+00  0.88000000000E+00 0.  1.
        -11    1    4    4    0    0  0.17193201499E-01  0.16743298277E-01  0.13738718718E-01  0.27657869187E-01  0.51100000000E-03 0.  1.
         11    1    4    4    0    0  0.37583558630E-01  0.56089166010E-01  0.77638987464E-01  0.10289116540E+00  0.51100000000E-03 0. -1.
</event>
<event>
 8    1  0.1106168E+005  0.1043930E+01  0.7957747E-01            NaN
         13   -1    0    0    0    0  0.00000000000E+00  0.00000000000E+00  0.74505805969E-08  0.10566000000E+00  0.10566000000E+00 0. -1.
     999900   -1    0    0    0    0 -0.00000000000E+00 -0.00000000000E+00 -0.74505805969E-08  0.93827000000E+00  0.93827000000E+00 0. -1.
     999902    2    1    2    0    0  0.78168090872E-03  0.22078843842E-01  0.83449353093E-02  0.10203138124E+01  0.10200404656E+01 0.  0.
     999903    2    3    3    0    0  0.69124371546E-01  0.58076677776E-01 -0.92924294403E-01  0.13114452354E+00  0.20319505898E-01 0.  0.
         14    1    1    2    0    0 -0.78168090872E-03 -0.22078843842E-01 -0.83449353093E-02  0.23616187579E-01  0.00000000000E+00 0.  1.
     999901    1    3    3    0    0 -0.68342690638E-01 -0.35997833934E-01  0.10126922971E+00  0.88916928889E+00  0.88000000000E+00 0.  1.
        -11    1    4    4    0    0  0.62675806528E-01  0.42695341316E-01 -0.75177381932E-01  0.10678505874E+00  0.51100000000E-03 0.  1.
         11    1    4    4    0    0  0.64485650179E-02  0.15381336459E-01 -0.17746912471E-01  0.24359464799E-01  0.51100000000E-03 0. -1.
</event>
<event>
 8    1  0.1106168E+005  0.1043930E+01  0.7957747E-01            NaN
         13   -1    0    0    0    0  0.00000000000E+00  0.00000000000E+00  0.74505805969E-08  0.10566000000E+00  0.10566000000E+00 0.  1.
     999900   -1    0    0    0    0 -0.00000000000E+00 -0.00000000000E+00 -0.74505805969E-08  0.93827000000E+00  0.93827000000E+00 0.  1.
     999902    2    1    2    0    0 -0.14704558705E-01 -0.16364908795E-01  0.46133123682E-02  0.10214507443E+01  0.10212033618E+01 0.  0.
     999903    2    3    3    0    0 -0.89571380591E-01  0.87384292221E-01  0.37252999372E-01  0.13160003383E+00  0.16484422750E-01 0.  0.
         14    1    1    2    0    0  0.14704558705E-01  0.16364908795E-01 -0.46133123682E-02  0.22479255717E-01  0.00000000000E+00 0. -1.
     999901    1    3    3    0    0  0.74866821886E-01 -0.10374920102E+00 -0.32639687004E-01  0.88985071046E+00  0.88000000000E+00 0.  1.
        -11    1    4    4    0    0 -0.35164286260E-01  0.26083890667E-01  0.76193211755E-02  0.44443352221E-01  0.51100000000E-03 0. -1.
         11    1    4    4    0    0 -0.54407094331E-01  0.61300401554E-01  0.29633678197E-01  0.87156681607E-01  0.51100000000E-03 0.  1.
</event>
<event>
 8    1  0.1106168E+005  0.1043930E+01  0.7957747E-01            NaN
         13   -1    0    0    0    0  0.00000000000E+00  0.00000000000E+00  0.74505805969E-08  0.10566000000E+00  0.10566000000E+00 0. -1.
     999900   -1    0    0    0    0 -0.00000000000E+00 -0.00000000000E+00 -0.74505805969E-08  0.93827000000E+00  0.93827000000E+00 0. -1.
     999902    2    1    2    0    0  0.11123968465E-01  0.21787626534E-01 -0.32975310336E-02  0.10192456516E+01  0.10189467019E+01 0.  0.
     999903    2    3    3    0    0  0.10995479640E-01 -0.46540386754E-01  0.11747835539E+00  0.12837217650E+00  0.19782404898E-01 0.  0.
         14    1    1    2    0    0 -0.11123968465E-01 -0.21787626534E-01  0.32975310336E-02  0.24684348387E-01  0.00000000000E+00 0. -1.
     999901    1    3    3    0    0  0.12848882438E-03  0.68328013288E-01 -0.12077588642E+00  0.89087347511E+00  0.88000000000E+00 0. -1.
        -11    1    4    4    0    0  0.52329354907E-02 -0.34194216161E-01  0.59634696270E-01  0.68943354669E-01  0.51100000000E-03 0.  1.
         11    1    4    4    0    0  0.57625441498E-02 -0.12346170593E-01  0.57843659120E-01  0.59428821836E-01  0.51100000000E-03 0. -1.
</event>
<event>
 8    1  0.1106168E+005  0.1043930E+01  0.7957747E-01            NaN
         13   -1    0    0    0    0  0.00000000000E+00  0.00000000000E+00  0.74505805969E-08  0.10566000000E+00  0.10566000000E+00 0.  1.
     999900   -1    0    0    0    0 -0.00000000000E+00 -0.00000000000E+00 -0.74505805969E-08  0.93827000000E+00  0.93827000000E+00 0. -1.
     999902    2    1    2    0    0  0.17017508516E-01  0.19240544042E-02 -0.22076453450E-01  0.10159895745E+01  0.10156053112E+01 0.  0.
     999903    2    3    3    0    0 -0.11075564705E+00 -0.52776877507E-01  0.82995700993E-02  0.12456326006E+00  0.19872361196E-01 0.  0.
         14    1    1    2    0    0 -0.17017508516E-01 -0.19240544042E-02  0.22076453450E-01  0.27940425522E-01  0.00000000000E+00 0.  1.
     999901    1    3    3    0    0  0.12777315556E+00  0.54700931911E-01 -0.30376023549E-01  0.89142631442E+00  0.88000000000E+00 0. -1.
        -11    1    4    4    0    0 -0.44059723320E-01 -0.29065051170E-01  0.10146594570E-01  0.53751752724E-01  0.51100000000E-03 0. -1.
         11    1    4    4    0    0 -0.66695923729E-01 -0.23711826337E-01 -0.18470244711E-02  0.70811507333E-01  0.51100000000E-03 0.  1.
</event>
<event>
 8    1  0.1106168E+005  0.1043930E+01  0.7957747E-01            NaN
         13   -1    0    0    0    0  0.00000000000E+00  0.00000000000E+00  0.74505805969E-08  0.10566000000E+00  0.10566000000E+00 0. -1.
     999900   -1    0    0    0    0 -0.00000000000E+00 -0.00000000000E+00 -0.74505805969E-08  0.93827000000E+00  0.93827000000E+00 0. -1.
     999902    2    1    2    0    0  0.13458424388E-01  0.80929922633E-02  0.18183629119E-01  0.10199035546E+01  0.10196205130E+01 0.  0.
     999903    2    3    3    0    0 -0.95942021463E-01  0.71067511755E-01 -0.44003618163E-01  0.12872371787E+00  0.19442592991E-01 0.  0.
         14    1    1    2    0    0 -0.13458424388E-01 -0.80929922633E-02 -0.18183629119E-01  0.24026445403E-01  0.00000000000E+00 0.  1.
     999901    1    3    3    0    0  0.10940044585E+00 -0.62974519492E-01  0.62187247282E-01  0.89117983672E+00  0.88000000000E+00 0. -1.
        -11    1    4    4    0    0 -0.22985547322E-01  0.84273360709E-02 -0.52196930179E-02  0.25037206216E-01  0.51100000000E-03 0.  1.
         11    1    4    4    0    0 -0.72956474142E-01  0.62640175684E-01 -0.38783925145E-01  0.10368651166E+00  0.51100000000E-03 0. -1.
</event>
<event>
 8    1  0.1106168E+005  0.1043930E+01  0.7957747E-01            NaN
         13   -1    0    0    0    0  0.00000000000E+00  0.00000000000E+00  0.74505805969E-08  0.10566000000E+00  0.10566000000E+00 0. -1.
     999900   -1    0    0    0    0 -0.00000000000E+00 -0.00000000000E+00 -0.74505805969E-08  0.93827000000E+00  0.93827000000E+00 0.  1.
     999902    2    1    2    0    0 -0.82909149131E-02 -0.17768681882E-01  0.12682540730E-01  0.10205780801E+01  0.10203108866E+01 0.  0.
     999903    2    3    3    0    0 -0.70399080122E-01 -0.10853810958E+00  0.26444832699E-01  0.13362491676E+00  0.20487495962E-01 0.  0.
         14    1    1    2    0    0  0.82909149131E-02  0.17768681882E-01 -0.12682540730E-01  0.23351919949E-01  0.00000000000E+00 0.  1.
     999901    1    3    3    0    0  0.62108165208E-01  0.90769427693E-01 -0.13762291969E-01  0.88695316329E+00  0.88000000000E+00 0. -1.
        -11    1    4    4    0    0 -0.43306998238E-01 -0.49270724672E-01  0.94480427656E-02  0.66276896723E-01  0.51100000000E-03 0.  1.
         11    1    4    4    0    0 -0.27092081883E-01 -0.59267384903E-01  0.16996789933E-01  0.67348020038E-01  0.51100000000E-03 0. -1.
</event>
<event>
 8    1  0.1106168E+005  0.1043930E+01  0.7957747E-01            NaN
         13   -1    0    0    0    0  0.00000000000E+00  0.00000000000E+00  0.74505805969E-08  0.10566000000E+00  0.10566000000E+00 0. -1.
     999900   -1    0    0    0    0 -0.00000000000E+00 -0.00000000000E+00 -0.74505805969E-08  0.93827000000E+00  0.93827000000E+00 0.  1.
     999902    2    1    2    0    0 -0.21376183597E-01  0.13096412766E-01 -0.22522091291E-02  0.10187599841E+01  0.10184490049E+01 0.  0.
     999903    2    3    3    0    0  0.42455291500E-01  0.18328842115E-02 -0.11972021710E+00  0.12859142865E+00  0.19925207574E-01 0.  0.
         14    1    1    2    0    0  0.21376183597E-01 -0.13096412766E-01  0.22522091291E-02  0.25170015861E-01  0.00000000000E+00 0. -1.
     999901    1    3    3    0    0 -0.63831475097E-01  0.11263528554E-01  0.11746800798E+00  0.89016855549E+00  0.88000000000E+00 0. -1.
        -11    1    4    4    0    0  0.25443980870E-01 -0.57584229998E-02 -0.88158706401E-01  0.91938970155E-01  0.51100000000E-03 0. -1.
         11    1    4    4    0    0  0.17011310630E-01  0.75913072114E-02 -0.31561510704E-01  0.36652458492E-01  0.51100000000E-03 0.  1.
</event>
<event>
 8    1  0.1106168E+005  0.1043930E+01  0.7957747E-01            NaN
         13   -1    0    0    0    0  0.00000000000E+00  0.00000000000E+00  0.74505805969E-08  0.10566000000E+00  0.10566000000E+00 0.  1.
     999900   -1    0    0    0    0 -0.00000000000E+00 -0.00000000000E+00 -0.74505805969E-08  0.93827000000E+00  0.93827000000E+00 0.  1.
     999902    2    1    2    0    0 -0.10872761862E-01  0.19953469300E-01 -0.87722117991E-02  0.10195720529E+01  0.10192810513E+01 0.  0.
     999903    2    3    3    0    0 -0.67657662693E-01  0.63322923029E-01  0.90583442735E-01  0.13110315610E+00  0.19882795046E-01 0.  0.
         14    1    1    2    0    0  0.10872761862E-01 -0.19953469300E-01  0.87722117991E-02  0.24357947111E-01  0.00000000000E+00 0.  1.
     999901    1    3    3    0    0  0.56784900831E-01 -0.43369453729E-01 -0.99355654534E-01  0.88846889679E+00  0.88000000000E+00 0.  1.
        -11    1    4    4    0    0 -0.36884381033E-01  0.47189793280E-01  0.53972167991E-01  0.80626237619E-01  0.51100000000E-03 0.  1.
         11    1    4    4    0    0 -0.30773281660E-01  0.16133129749E-01  0.36611274744E-01  0.50476918478E-01  0.51100000000E-03 0. -1.
</event>
<event>
 8    1  0.1106168E+005  0.1043930E+01  0.7957747E-01            NaN
         13   -1    0    0    0    0  0.00000000000E+00  0.00000000000E+00  0.74505805969E-08  0.10566000000E+00  0.10566000000E+00 0.  1.
     999900   -1    0    0    0    0 -0.00000000000E+00 -0.00000000000E+00 -0.74505805969E-08  0.93827000000E+00  0.93827000000E+00 0. -1.
     999902    2    1    2    0    0 -0.13493285187E-01  0.75517505267E-02 -0.18473294518E-01  0.10198393319E+01  0.10195547570E+01 0.  0.
     999903    2    3    3    0    0  0.67976429433E-01  0.10416040626E+00 -0.34671332570E-01  0.13066391429E+00  0.20019290846E-01 0.  0.
         14    1    1    2    0    0  0.13493285187E-01 -0.75517505267E-02  0.18473294518E-01  0.24090668142E-01  0.00000000000E+00 0.  1.
     999901    1    3    3    0    0 -0.81469714620E-01 -0.96608655733E-01  0.16198038052E-01  0.88917541756E+00  0.88000000000E+00 0.  1.
        -11    1    4    4    0    0  0.46791275029E-01  0.86338400733E-01 -0.25022583072E-01  0.10134166786E+00  0.51100000000E-03 0. -1.
         11    1    4    4    0    0  0.21185154404E-01  0.17822005526E-01 -0.96487494987E-02  0.29322246435E-01  0.51100000000E-03 0.  1.
</event>
<event>
 8    1  0.1106168E+005  0.1043930E+01  0.7957747E-01            NaN
         13   -1    0    0    0    0  0.00000000000E+00  0.00000000000E+00  0.74505805969E-08  0.10566000000E+00  0.10566000000E+00 0.  1.
     999900   -1    0    0    0    0 -0.00000000000E+00 -0.00000000000E+00 -0.74505805969E-08  0.93827000000E+00  0.93827000000E+00 0.  1.
     999902    2    1    2    0    0  0.97223752147E-03 -0.21728356924E-02  0.23025765166E-01  0.10207815158E+01  0.10205190104E+01 0.  0.
     999903    2    3    3    0    0 -0.67564817894E-02 -0.10424093717E+00  0.81154940813E-01  0.13294333710E+00  0.13265874762E-01 0.  0.
         14    1    1    2    0    0 -0.97223752147E-03  0.21728356924E-02 -0.23025765166E-01  0.23148484232E-01  0.00000000000E+00 0. -1.
     999901    1    3    3    0    0  0.77287193108E-02  0.10206810147E+00 -0.58129175647E-01  0.88783817867E+00  0.88000000000E+00 0.  1.
        -11    1    4    4    0    0  0.18821008314E-02 -0.67349505888E-01  0.50461936264E-01  0.84179370273E-01  0.51100000000E-03 0.  1.
         11    1    4    4    0    0 -0.86385826207E-02 -0.36891431278E-01  0.30693004549E-01  0.48763966827E-01  0.51100000000E-03 0. -1.
</event>
<event>
 8    1  0.1106168E+005  0.1043930E+01  0.7957747E-01            NaN
         13   -1    0    0    0    0  0.00000000000E+00  0.00000000000E+00  0.74505805969E-08  0.10566000000E+00  0.10566000000E+00 0. -1.
     999900   -1    0    0    0    0 -0.00000000000E+00 -0.00000000000E+00 -0.74505805969E-08  0.93827000000E+00  0.93827000000E+00 0.  1.
     999902    2    1    2    0    0 -0.24940241862E-01 -0.21367037853E-02  0.27370909021E-02  0.10187491971E+01  0.10184379479E+01 0.  0.
     999903    2    3    3    0    0  0.28071412476E-01 -0.12803003295E-01  0.12346460939E+00  0.12886204744E+00  0.20248367969E-01 0.  0.
         14    1    1    2    0    0  0.24940241862E-01  0.21367037853E-02 -0.27370909021E-02  0.25180802883E-01  0.00000000000E+00 0. -1.
     999901    1    3    3    0    0 -0.53011654338E-01  0.10666299510E-01 -0.12072751849E+00  0.88988714968E+00  0.88000000000E+00 0.  1.
        -11    1    4    4    0    0  0.23998559859E-01 -0.17183395923E-01  0.86145795414E-01  0.91063489716E-01  0.51100000000E-03 0. -1.
         11    1    4    4    0    0  0.40728526170E-02  0.43803926276E-02  0.37318813981E-01  0.37798557723E-01  0.51100000000E-03 0.  1.
</event>
<event>
 8    1  0.1106168E+005  0.1043930E+01  0.7957747E-01            NaN
         13   -1    0    0    0    0  0.00000000000E+00  0.00000000000E+00  0.74505805969E-08  0.10566000000E+00  0.10566000000E+00 0. -1.
     999900   -1    0    0    0    0 -0.00000000000E+00 -0.00000000000E+00 -0.74505805969E-08  0.93827000000E+00  0.93827000000E+00 0.  1.
     999902    2    1    2    0    0  0.15183242484E-02  0.12358763756E-01 -0.21205630938E-01  0.10193388810E+01  0.10190422127E+01 0.  0.
     999903    2    3    3    0    0  0.61091157141E-01  0.48096045200E-01 -0.10538137389E+00  0.13259673618E+00  0.20767798076E-01 0.  0.
         14    1    1    2    0    0 -0.15183242484E-02 -0.12358763756E-01  0.21205630938E-01  0.24591118998E-01  0.00000000000E+00 0. -1.
     999901    1    3    3    0    0 -0.59572832893E-01 -0.35737281445E-01  0.84175742955E-01  0.88674214482E+00  0.88000000000E+00 0. -1.
        -11    1    4    4    0    0  0.30305444582E-01  0.17643447245E-01 -0.62411311459E-01  0.71590111894E-01  0.51100000000E-03 0.  1.
         11    1    4    4    0    0  0.30785712559E-01  0.30452597955E-01 -0.42970062434E-01  0.61006624285E-01  0.51100000000E-03 0. -1.
</event>
<event>
 8    1  0.1106168E+005  0.1043930E+01  0.7957747E-01            NaN
         13   -1    0    0    0    0  0.00000000000E+00  0.00000000000E+00  0.74505805969E-08  0.10566000000E+00  0.10566000000E+00 0. -1.
     999900   -1    0    0    0    0 -0.00000000000E+00 -0.00000000000E+00 -0.74505805969E-08  0.93827000000E+00  0.93827000000E+00 0.  1.
     999902    2    1    2    0    0  0.20426727759E-01  0.21292805176E-02  0.12005587340E-01  0.10201409443E+01  0.10198635336E+01 0.  0.
     999903    2    3    3    0    0  0.72498980713E-01 -0.80014153446E-01  0.74416872143E-01  0.13258574506E+00  0.19563792521E-01 0.  0.
         14    1    1    2    0    0 -0.20426727759E-01 -0.21292805176E-02 -0.12005587340E-01  0.23789055674E-01  0.00000000000E+00 0.  1.
     999901    1    3    3    0    0 -0.52072252954E-01  0.82143433963E-01 -0.62411284803E-01  0.88755519926E+00  0.88000000000E+00 0.  1.
        -11    1    4    4    0    0  0.16779847757E-02 -0.22614654964E-02  0.72512581582E-02  0.77956221673E-02  0.51100000000E-03 0.  1.
         11    1    4    4    0    0  0.70820995938E-01 -0.77752687949E-01  0.67165613985E-01  0.12479012289E+00  0.51100000000E-03 0. -1.
</event>
<event>
 8    1  0.1106168E+005  0.1043930E+01  0.7957747E-01            NaN
         13   -1    0    0    0    0  0.00000000000E+00  0.00000000000E+00  0.74505805969E-08  0.10566000000E+00  0.10566000000E+00 0. -1.
     999900   -1    0    0    0    0 -0.00000000000E+00 -0.00000000000E+00 -0.74505805969E-08  0.93827000000E+00  0.93827000000E+00 0.  1.
     999902    2    1    2    0    0  0.42519601153E-03 -0.19843782271E-01 -0.15452016259E-01  0.10187760482E+01  0.10184654707E+01 0.  0.
     999903    2    3    3    0    0  0.76715539387E-01  0.54311525438E-02 -0.10397541058E+00  0.13069078753E+00  0.18826166314E-01 0.  0.
         14    1    1    2    0    0 -0.42519601153E-03  0.19843782271E-01  0.15452016259E-01  0.25153951835E-01  0.00000000000E+00 0. -1.
     999901    1    3    3    0    0 -0.76290343376E-01 -0.25274934815E-01  0.88523394317E-01  0.88808526064E+00  0.88000000000E+00 0. -1.
        -11    1    4    4    0    0  0.29337540603E-01  0.10714815107E-01 -0.35989812400E-01  0.47655285845E-01  0.51100000000E-03 0.  1.
         11    1    4    4    0    0  0.47377998784E-01 -0.52836625630E-02 -0.67985598177E-01  0.83035501681E-01  0.51100000000E-03 0. -1.
</event>
<event>
 8    1  0.1106168E+005  0.1043930E+01  0.7957747E-01            NaN
         13   -1    0    0    0    0  0.00000000000E+00  0.00000000000E+00  0.74505805969E-08  0.10566000000E+00  0.10566000000E+00 0.  1.
     999900   -1    0    0    0    0 -0.00000000000E+00 -0.00000000000E+00 -0.74505805969E-08  0.93827000000E+00  0.93827000000E+00 0.  1.
     999902    2    1    2    0    0 -0.97038474226E-02  0.11525585622E-01 -0.19425065852E-01  0.10193467341E+01  0.10190502575E+01 0.  0.
     999903    2    3    3    0    0 -0.80808792569E-01 -0.16769484158E-02 -0.10293234356E+00  0.13243992640E+00  0.20307477448E-01 0.  0.
         14    1    1    2    0    0  0.97038474226E-02 -0.11525585622E-01  0.19425065852E-01  0.24583265895E-01  0.00000000000E+00 0.  1.
     999901    1    3    3    0    0  0.71104945147E-01  0.13202534037E-01  0.83507277710E-01  0.88690680771E+00  0.88000000000E+00 0. -1.
        -11    1    4    4    0    0 -0.52178375155E-01 -0.99874980337E-02 -0.71966209983E-01  0.89452386503E-01  0.51100000000E-03 0.  1.
         11    1    4    4    0    0 -0.28630417415E-01  0.83105496179E-02 -0.30966133579E-01  0.42987539894E-01  0.51100000000E-03 0. -1.
</event>
<event>
 8    1  0.1106168E+005  0.1043930E+01  0.7957747E-01            NaN
         13   -1    0    0    0    0  0.00000000000E+00  0.00000000000E+00  0.74505805969E-08  0.10566000000E+00  0.10566000000E+00 0. -1.
     999900   -1    0    0    0    0 -0.00000000000E+00 -0.00000000000E+00 -0.74505805969E-08  0.93827000000E+00  0.93827000000E+00 0.  1.
     999902    2    1    2    0    0 -0.28911770532E-02 -0.20284395312E-01  0.94679733112E-02  0.10213588211E+01  0.10211093885E+01 0.  0.
     999903    2    3    3    0    0 -0.71416496681E-01  0.98209971408E-01  0.42148543499E-01  0.13017721557E+00  0.20593524551E-01 0.  0.
         14    1    1    2    0    0  0.28911770532E-02  0.20284395312E-01 -0.94679733112E-02  0.22571178892E-01  0.00000000000E+00 0.  1.
     999901    1    3    3    0    0  0.68525319628E-01 -0.11849436672E+00 -0.32680570188E-01  0.89118160553E+00  0.88000000000E+00 0. -1.
        -11    1    4    4    0    0 -0.19027819153E-02  0.78272253043E-02  0.74668843207E-02  0.10995522609E-01  0.51100000000E-03 0. -1.
         11    1    4    4    0    0 -0.69513714766E-01  0.90382746104E-01  0.34681659178E-01  0.11918169297E+00  0.51100000000E-03 0.  1.
</event>
<event>
 8    1  0.1106168E+005  0.1043930E+01  0.7957747E-01            NaN
         13   -1    0    0    0    0  0.00000000000E+00  0.00000000000E+00  0.74505805969E-08  0.10566000000E+00  0.10566000000E+00 0. -1.
     999900   -1    0    0    0    0 -0.00000000000E+00 -0.00000000000E+00 -0.74505805969E-08  0.93827000000E+00  0.93827000000E+00 0. -1.
     999902    2    1    2    0    0 -0.33612037073E-02  0.19680654566E-01  0.12320700962E-01  0.10204688507E+01  0.10201991226E+01 0.  0.
     999903    2    3    3    0    0  0.29605133850E-01 -0.10207191013E+00 -0.68203063208E-01  0.12783536319E+00  0.19876706517E-01 0.  0.
         14    1    1    2    0    0  0.33612037073E-02 -0.19680654566E-01 -0.12320700962E-01  0.23461149305E-01  0.00000000000E+00 0.  1.
     999901    1    3    3    0    0 -0.32966337557E-01  0.12175256470E+00  0.80523764169E-01  0.89263348751E+00  0.88000000000E+00 0.  1.
        -11    1    4    4    0    0  0.19015520225E-01 -0.42302637889E-01 -0.38378817333E-01  0.60202142177E-01  0.51100000000E-03 0. -1.
         11    1    4    4    0    0  0.10589613624E-01 -0.59769272245E-01 -0.29824245875E-01  0.67633221012E-01  0.51100000000E-03 0.  1.
</event>
<event>
 8    1  0.1106168E+005  0.1043930E+01  0.7957747E-01            NaN
         13   -1    0    0    0    0  0.00000000000E+00  0.00000000000E+00  0.74505805969E-08  0.10566000000E+00  0.10566000000E+00 0.  1.
     999900   -1    0    0    0    0 -0.00000000000E+00 -0.00000000000E+00 -0.74505805969E-08  0.93827000000E+00  0.93827000000E+00 0. -1.
     999902    2    1    2    0    0  0.24663113273E-01  0.88841138185E-02 -0.34550617404E-02  0.10174888562E+01  0.10171452396E+01 0.  0.
     999903    2    3    3    0    0  0.70505299444E-01 -0.82283435039E-01  0.67422963195E-01  0.12876127002E+00  0.17089404866E-01 0.  0.
         14    1    1    2    0    0 -0.24663113273E-01 -0.88841138185E-02  0.34550617404E-02  0.26441143816E-01  0.00000000000E+00 0.  1.
     999901    1    3    3    0    0 -0.45842186170E-01  0.91167548857E-01 -0.70878024935E-01  0.88872758617E+00  0.88000000000E+00 0.  1.
        -11    1    4    4    0    0  0.55751257948E-01 -0.53578140228E-01  0.45109838912E-01  0.89520827525E-01  0.51100000000E-03 0. -1.
         11    1    4    4    0    0  0.14754041496E-01 -0.28705294811E-01  0.22313124283E-01  0.39240442491E-01  0.51100000000E-03 0.  1.
</event>
<event>
 8    1  0.1106168E+005  0.1043930E+01  0.7957747E-01            NaN
         13   -1    0    0    0    0  0.00000000000E+00  0.00000000000E+00  0.74505805969E-08  0.10566000000E+00  0.10566000000E+00 0.  1.
     999900   -1    0    0    0    0 -0.00000000000E+00 -0.00000000000E+00 -0.74505805969E-08  0.93827000000E+00  0.93827000000E+00 0.  1.
     999902    2    1    2    0    0 -0.15907628241E-01  0.16181998498E-01 -0.28960123220E-02  0.10210543230E+01  0.10207980378E+01 0.  0.
     999903    2    3    3    0    0 -0.37028406753E-02 -0.75274570062E-01  0.10364686506E+00  0.12983905971E+00  0.20869519913E-01 0.  0.
         14    1    1    2    0    0  0.15907628241E-01 -0.16181998498E-01  0.28960123220E-02  0.22875677018E-01  0.00000000000E+00 0. -1.
     999901    1    3    3    0    0 -0.12204787565E-01  0.91456568560E-01 -0.10654287738E+00  0.89121526327E+00  0.88000000000E+00 0. -1.
        -11    1    4    4    0    0  0.38538261572E-02 -0.39922495975E-02  0.31653312266E-02  0.64086251000E-02  0.51100000000E-03 0.  1.
         11    1    4    4    0    0 -0.75566668325E-02 -0.71282320464E-01  0.10048153384E+00  0.12343043461E+00  0.51100000000E-03 0. -1.
</event>
<event>
 8    1  0.1106168E+005  0.1043930E+01  0.7957747E-01            NaN
         13   -1    0    0    0    0  0.00000000000E+00  0.00000000000E+00  0.74505805969E-08  0.10566000000E+00  0.10566000000E+00 0. -1.
     999900   -1    0    0    0    0 -0.00000000000E+00 -0.00000000000E+00 -0.74505805969E-08  0.93827000000E+00  0.93827000000E+00 0. -1.
     999902    2    1    2    0    0 -0.11932058673E-01  0.17469250104E-01  0.10639099984E-01  0.10202500682E+01  0.10199752264E+01 0.  0.
     999903    2    3    3    0    0 -0.55847288272E-01  0.56371679174E-01 -0.10244553470E+00  0.13107624883E+00  0.19728395995E-01 0.  0.
         14    1    1    2    0    0  0.11932058673E-01 -0.17469250104E-01 -0.10639099984E-01  0.23679931838E-01  0.00000000000E+00 0.  1.
     999901    1    3    3    0    0  0.43915229598E-01 -0.38902429070E-01  0.11308463468E+00  0.88917381933E+00  0.88000000000E+00 0.  1.
        -11    1    4    4    0    0 -0.26500022790E-01  0.34576834690E-01 -0.42505614498E-01  0.60867044366E-01  0.51100000000E-03 0.  1.
         11    1    4    4    0    0 -0.29347265482E-01  0.21794844484E-01 -0.59939920201E-01  0.70209204468E-01  0.51100000000E-03 0. -1.
</event>
<event>
 8    1  0.1106168E+005  0.1043930E+01  0.7957747E-01            NaN
         13   -1    0    0    0    0  0.00000000000E+00  0.00000000000E+00  0.74505805969E-08  0.10566000000E+00  0.10566000000E+00 0. -1.
     999900   -1    0    0    0    0 -0.00000000000E+00 -0.00000000000E+00 -0.74505805969E-08  0.93827000000E+00  0.93827000000E+00 0.  1.
     999902    2    1    2    0    0 -0.10490522415E-01 -0.44622699950E-02  0.21547280231E-01  0.10195527934E+01  0.10192613259E+01 0.  0.
     999903    2    3    3    0    0 -0.12187320749E-01 -0.27846060132E-02 -0.12515310972E+00  0.12740555330E+00  0.20312294873E-01 0.  0.
         14    1    1    2    0    0  0.10490522415E-01  0.44622699950E-02 -0.21547280231E-01  0.24377206555E-01  0.00000000000E+00 0.  1.
     999901    1    3    3    0    0  0.16967983344E-02 -0.16776639818E-02  0.14670038995E+00  0.89214724014E+00  0.88000000000E+00 0. -1.
        -11    1    4    4    0    0 -0.18377225302E-02 -0.69013251628E-02 -0.14292983506E-01  0.15986119342E-01  0.51100000000E-03 0.  1.
         11    1    4    4    0    0 -0.10349598219E-01  0.41167191497E-02 -0.11086012621E+00  0.11141943396E+00  0.51100000000E-03 0. -1.
</event>
<event>
 8    1  0.1106168E+005  0.1043930E+01  0.7957747E-01            NaN
         13   -1    0    0    0    0  0.00000000000E+00  0.00000000000E+00  0.74505805969E-08  0.10566000000E+00  0.10566000000E+00 0.  1.
     999900   -1    0    0    0    0 -0.00000000000E+00 -0.00000000000E+00 -0.74505805969E-08  0.93827000000E+00  0.93827000000E+00 0. -1.
     999902    2    1    2    0    0 -0.93159829764E-02  0.20346377844E-01  0.72478744435E-02  0.10204077910E+01  0.10201366407E+01 0.  0.
     999903    2    3    3    0    0 -0.30336882987E-01 -0.12217016548E+00  0.18566230120E-01  0.12862253184E+00  0.18792950664E-01 0.  0.
         14    1    1    2    0    0  0.93159829764E-02 -0.20346377844E-01 -0.72478744435E-02  0.23522208955E-01  0.00000000000E+00 0. -1.
     999901    1    3    3    0    0  0.21020900011E-01  0.14251654332E+00 -0.11318355676E-01  0.89178525920E+00  0.88000000000E+00 0.  1.
        -11    1    4    4    0    0 -0.23634063368E-01 -0.58543551351E-01  0.12430790824E-01  0.64348286983E-01  0.51100000000E-03 0.  1.
         11    1    4    4    0    0 -0.67028196192E-02 -0.63626614124E-01  0.61354392959E-02  0.64274244858E-01  0.51100000000E-03 0. -1.
</event>
<event>
 8    1  0.1255920E+005  0.1043930E+01  0.7957747E-01            NaN
         13   -1    0    0    0    0  0.00000000000E+00  0.00000000000E+00  0.74505805969E-08  0.10566000000E+00  0.10566000000E+00 0. -1.
     999900   -1    0    0    0    0 -0.00000000000E+00 -0.00000000000E+00 -0.74505805969E-08  0.93827000000E+00  0.93827000000E+00 0.  1.
     999902    2    1    2    0    0  0.79444158304E-02 -0.20449114687E-01 -0.28270302048E-01  0.10081460649E+01  0.10075107931E+01 0.  0.
     999903    2    3    3    0    0  0.11515200842E+00 -0.31865910492E-01  0.58985738125E-04  0.12111373195E+00  0.19827034341E-01 0.  0.
         14    1    1    2    0    0 -0.79444158304E-02  0.20449114687E-01  0.28270302048E-01  0.35783935114E-01  0.00000000000E+00 0. -1.
     999901    1    3    3    0    0 -0.10720759259E+00  0.11416795805E-01 -0.28329287786E-01  0.88703233294E+00  0.88000000000E+00 0. -1.
        -11    1    4    4    0    0  0.35192408835E-01 -0.19029686064E-01 -0.24904886000E-02  0.40088629882E-01  0.51100000000E-03 0.  1.
         11    1    4    4    0    0  0.79959599589E-01 -0.12836224428E-01  0.25494743381E-02  0.81025102063E-01  0.51100000000E-03 0. -1.
</event>
<event>
 8    1  0.1106168E+005  0.1043930E+01  0.7957747E-01            NaN
         13   -1    0    0    0    0  0.00000000000E+00  0.00000000000E+00  0.74505805969E-08  0.10566000000E+00  0.10566000000E+00 0. -1.
     999900   -1    0    0    0    0 -0.00000000000E+00 -0.00000000000E+00 -0.74505805969E-08  0.93827000000E+00  0.93827000000E+00 0. -1.
     999902    2    1    2    0    0 -0.98205313082E-02  0.15264171268E-01 -0.15389386543E-01  0.10201335512E+01  0.10198559659E+01 0.  0.
     999903    2    3    3    0    0 -0.81958366207E-01  0.20032456785E-01  0.96695498831E-01  0.13008320128E+00  0.21287241383E-01 0.  0.
         14    1    1    2    0    0  0.98205313082E-02 -0.15264171268E-01  0.15389386543E-01  0.23796448849E-01  0.00000000000E+00 0.  1.
     999901    1    3    3    0    0  0.72137834899E-01 -0.47682855173E-02 -0.11208488537E+00  0.89005034987E+00  0.88000000000E+00 0. -1.
        -11    1    4    4    0    0 -0.37695019323E-01  0.93035320788E-02  0.28882739166E-01  0.48393635260E-01  0.51100000000E-03 0. -1.
         11    1    4    4    0    0 -0.44263346884E-01  0.10728924707E-01  0.67812759665E-01  0.81689566023E-01  0.51100000000E-03 0.  1.
</event>
<event>
 8    1  0.1106168E+005  0.1043930E+01  0.7957747E-01            NaN
         13   -1    0    0    0    0  0.00000000000E+00  0.00000000000E+00  0.74505805969E-08  0.10566000000E+00  0.10566000000E+00 0.  1.
     999900   -1    0    0    0    0 -0.00000000000E+00 -0.00000000000E+00 -0.74505805969E-08  0.93827000000E+00  0.93827000000E+00 0.  1.
     999902    2    1    2    0    0 -0.76731423502E-02  0.18165596101E-02  0.19859787823E-01  0.10225620760E+01  0.10223387947E+01 0.  0.
     999903    2    3    3    0    0 -0.74244996493E-01 -0.89905869721E-01 -0.58593360450E-01  0.13183219987E+00  0.18739320168E-01 0.  0.
         14    1    1    2    0    0  0.76731423502E-02 -0.18165596101E-02 -0.19859787823E-01  0.21367923968E-01  0.00000000000E+00 0. -1.
     999901    1    3    3    0    0  0.66571854142E-01  0.91722429331E-01  0.78453148272E-01  0.89072987616E+00  0.88000000000E+00 0. -1.
        -11    1    4    4    0    0 -0.62879293721E-01 -0.63956941582E-01 -0.46455455932E-01  0.10100824948E+00  0.51100000000E-03 0. -1.
         11    1    4    4    0    0 -0.11365702772E-01 -0.25948928139E-01 -0.12137904517E-01  0.30823950398E-01  0.51100000000E-03 0.  1.
</event>
<event>
 8    1  0.1106168E+005  0.1043930E+01  0.7957747E-01            NaN
         13   -1    0    0    0    0  0.00000000000E+00  0.00000000000E+00  0.74505805969E-08  0.10566000000E+00  0.10566000000E+00 0.  1.
     999900   -1    0    0    0    0 -0.00000000000E+00 -0.00000000000E+00 -0.74505805969E-08  0.93827000000E+00  0.93827000000E+00 0.  1.
     999902    2    1    2    0    0  0.17089067112E-02  0.19605478153E-01  0.15961254582E-01  0.10185911606E+01  0.10182759428E+01 0.  0.
     999903    2    3    3    0    0 -0.89776777811E-02 -0.12441520698E+00 -0.64620224760E-02  0.12653793111E+00  0.20257044418E-01 0.  0.
         14    1    1    2    0    0 -0.17089067112E-02 -0.19605478153E-01 -0.15961254582E-01  0.25338839428E-01  0.00000000000E+00 0. -1.
     999901    1    3    3    0    0  0.10686584492E-01  0.14402068514E+00  0.22423277058E-01  0.89205322946E+00  0.88000000000E+00 0. -1.
        -11    1    4    4    0    0 -0.11700323415E-01 -0.83293680161E-01 -0.11956609609E-01  0.84958556703E-01  0.51100000000E-03 0.  1.
         11    1    4    4    0    0  0.27226456339E-02 -0.41121526823E-01  0.54945871327E-02  0.41579374409E-01  0.51100000000E-03 0. -1.
</event>
<event>
 8    1  0.1113885E+005  0.1043930E+01  0.7957747E-01            NaN
         13   -1    0    0    0    0  0.00000000000E+00  0.00000000000E+00  0.74505805969E-08  0.10566000000E+00  0.10566000000E+00 0. -1.
     999900   -1    0    0    0    0 -0.00000000000E+00 -0.00000000000E+00 -0.74505805969E-08  0.93827000000E+00  0.93827000000E+00 0.  1.
     999902    2    1    2    0    0 -0.23362170702E-01  0.32380599558E-02  0.53264600646E-03  0.10203384811E+01  0.10200657117E+01 0.  0.
     999903    2    3    3    0    0 -0.12704064351E-01 -0.69041989794E-01  0.10850405629E+00  0.13073417229E+00  0.19751049768E-01 0.  0.
         14    1    1    2    0    0  0.23362170702E-01 -0.32380599558E-02 -0.53264600646E-03  0.23591518899E-01  0.00000000000E+00 0.  1.
     999901    1    3    3    0    0 -0.10658106351E-01  0.72280049750E-01 -0.10797141028E+00  0.88960430881E+00  0.88000000000E+00 0.  1.
        -11    1    4    4    0    0 -0.17358406790E-01 -0.41477384309E-01  0.66556848739E-01  0.80322866797E-01  0.51100000000E-03 0. -1.
         11    1    4    4    0    0  0.46543424391E-02 -0.27564605485E-01  0.41947207549E-01  0.50411305490E-01  0.51100000000E-03 0.  1.
</event>
<event>
 8    1  0.1106168E+005  0.1043930E+01  0.7957747E-01            NaN
         13   -1    0    0    0    0  0.00000000000E+00  0.00000000000E+00  0.74505805969E-08  0.10566000000E+00  0.10566000000E+00 0.  1.
     999900   -1    0    0    0    0 -0.00000000000E+00 -0.00000000000E+00 -0.74505805969E-08  0.93827000000E+00  0.93827000000E+00 0. -1.
     999902    2    1    2    0    0  0.48582587511E-02  0.16419836388E-01 -0.14036908587E-01  0.10217884439E+01  0.10215485184E+01 0.  0.
     999903    2    3    3    0    0 -0.11410123311E+00  0.60896005707E-02 -0.63912442402E-01  0.13232476089E+00  0.19205921432E-01 0.  0.
         14    1    1    2    0    0 -0.48582587511E-02 -0.16419836388E-01  0.14036908587E-01  0.22141556128E-01  0.00000000000E+00 0. -1.
     999901    1    3    3    0    0  0.11895949186E+00  0.10330235817E-01  0.49875533815E-01  0.88946368298E+00  0.88000000000E+00 0.  1.
        -11    1    4    4    0    0 -0.69822002938E-01  0.46527207991E-02 -0.49566252018E-01  0.85754500554E-01  0.51100000000E-03 0. -1.
         11    1    4    4    0    0 -0.44279230171E-01  0.14368797716E-02 -0.14346190384E-01  0.46570260333E-01  0.51100000000E-03 0.  1.
</event>
<event>
 8    1  0.1106168E+005  0.1043930E+01  0.7957747E-01            NaN
         13   -1    0    0    0    0  0.00000000000E+00  0.00000000000E+00  0.74505805969E-08  0.10566000000E+00  0.10566000000E+00 0. -1.
     999900   -1    0    0    0    0 -0.00000000000E+00 -0.00000000000E+00 -0.74505805969E-08  0.93827000000E+00  0.93827000000E+00 0. -1.
     999902    2    1    2    0    0  0.14882770048E-02  0.15988614973E-01  0.16045923406E-01  0.10212292856E+01  0.10209769494E+01 0.  0.
     999903    2    3    3    0    0 -0.64525206797E-01 -0.72390954867E-01 -0.82227051775E-01  0.12891414727E+00  0.21298278425E-01 0.  0.
         14    1    1    2    0    0 -0.14882770048E-02 -0.15988614973E-01 -0.16045923406E-01  0.22700714419E-01  0.00000000000E+00 0.  1.
     999901    1    3    3    0    0  0.66013483802E-01  0.88379569840E-01  0.98272975181E-01  0.89231513831E+00  0.88000000000E+00 0.  1.
        -11    1    4    4    0    0 -0.42825245466E-01 -0.52606106411E-01 -0.68807482254E-01  0.96623676271E-01  0.51100000000E-03 0. -1.
         11    1    4    4    0    0 -0.21699961331E-01 -0.19784848456E-01 -0.13419569521E-01  0.32290470999E-01  0.51100000000E-03 0.  1.
</event>
<event>
 8    1  0.1106168E+005  0.1043930E+01  0.7957747E-01            NaN
         13   -1    0    0    0    0  0.00000000000E+00  0.00000000000E+00  0.74505805969E-08  0.10566000000E+00  0.10566000000E+00 0.  1.
     999900   -1    0    0    0    0 -0.00000000000E+00 -0.00000000000E+00 -0.74505805969E-08  0.93827000000E+00  0.93827000000E+00 0.  1.
     999902    2    1    2    0    0 -0.22706932426E-01 -0.69274008270E-03 -0.36258778806E-02  0.10209249645E+01  0.10206657393E+01 0.  0.
     999903    2    3    3    0    0  0.40336330187E-01  0.28427994991E-01  0.11836921539E+00  0.12979911873E+00  0.20034211701E-01 0.  0.
         14    1    1    2    0    0  0.22706932426E-01  0.69274008270E-03  0.36258778806E-02  0.23005035523E-01  0.00000000000E+00 0.  1.
     999901    1    3    3    0    0 -0.63043262613E-01 -0.29120735074E-01 -0.12199509327E+00  0.89112584575E+00  0.88000000000E+00 0.  1.
        -11    1    4    4    0    0  0.25030028025E-01  0.74620437794E-02  0.45819597135E-01  0.52743539917E-01  0.51100000000E-03 0. -1.
         11    1    4    4    0    0  0.15306302162E-01  0.20965951212E-01  0.72549618258E-01  0.77055578815E-01  0.51100000000E-03 0.  1.
</event>
<event>
 8    1  0.1106168E+005  0.1043930E+01  0.7957747E-01            NaN
         13   -1    0    0    0    0  0.00000000000E+00  0.00000000000E+00  0.74505805969E-08  0.10566000000E+00  0.10566000000E+00 0. -1.
     999900   -1    0    0    0    0 -0.00000000000E+00 -0.00000000000E+00 -0.74505805969E-08  0.93827000000E+00  0.93827000000E+00 0.  1.
     999902    2    1    2    0    0 -0.29412588617E-02  0.26964476240E-02 -0.23079153157E-01  0.10205084470E+01  0.10202396392E+01 0.  0.
     999903    2    3    3    0    0  0.21803136417E-01 -0.99799418304E-01  0.75600660134E-01  0.12873751613E+00  0.20556935457E-01 0.  0.
         14    1    1    2    0    0  0.29412588617E-02 -0.26964476240E-02  0.23079153157E-01  0.23421552979E-01  0.00000000000E+00 0. -1.
     999901    1    3    3    0    0 -0.24744395279E-01  0.10249586593E+00 -0.98679813292E-01  0.89177093089E+00  0.88000000000E+00 0.  1.
        -11    1    4    4    0    0 -0.28582731012E-02 -0.80633954261E-02  0.26717633633E-02  0.89770547168E-02  0.51100000000E-03 0. -1.
         11    1    4    4    0    0  0.24661409519E-01 -0.91736022878E-01  0.72928896771E-01  0.11976046141E+00  0.51100000000E-03 0.  1.
</event>
<event>
 8    1  0.1106168E+005  0.1043930E+01  0.7957747E-01            NaN
         13   -1    0    0    0    0  0.00000000000E+00  0.00000000000E+00  0.74505805969E-08  0.10566000000E+00  0.10566000000E+00 0.  1.
     999900   -1    0    0    0    0 -0.00000000000E+00 -0.00000000000E+00 -0.74505805969E-08  0.93827000000E+00  0.93827000000E+00 0. -1.
     999902    2    1    2    0    0 -0.13877658510E-01  0.98421962860E-02 -0.96067307129E-02  0.10243916401E+01  0.10242052942E+01 0.  0.
     999903    2    3    3    0    0  0.48154472899E-01 -0.81732789866E-01 -0.91623024229E-01  0.13368369927E+00  0.21850644894E-01 0.  0.
         14    1    1    2    0    0  0.13877658510E-01 -0.98421962860E-02  0.96067307129E-02  0.19538359922E-01  0.00000000000E+00 0.  1.
     999901    1    3    3    0    0 -0.62032131409E-01  0.91574986152E-01  0.82016293516E-01  0.89070794081E+00  0.88000000000E+00 0.  1.
        -11    1    4    4    0    0  0.45835982410E-02 -0.26636588702E-01 -0.27766713016E-01  0.38752660596E-01  0.51100000000E-03 0. -1.
         11    1    4    4    0    0  0.43570874658E-01 -0.55096201164E-01 -0.63856311212E-01  0.94931038675E-01  0.51100000000E-03 0.  1.
</event>
<event>
 8    1  0.1106168E+005  0.1043930E+01  0.7957747E-01            NaN
         13   -1    0    0    0    0  0.00000000000E+00  0.00000000000E+00  0.74505805969E-08  0.10566000000E+00  0.10566000000E+00 0.  1.
     999900   -1    0    0    0    0 -0.00000000000E+00 -0.00000000000E+00 -0.74505805969E-08  0.93827000000E+00  0.93827000000E+00 0.  1.
     999902    2    1    2    0    0  0.28627706545E-01 -0.38270411761E-02 -0.11164528676E-01  0.10129648821E+01  0.10124914883E+01 0.  0.
     999903    2    3    3    0    0  0.71400948036E-01 -0.87025177820E-01 -0.55039750201E-01  0.12691944579E+00  0.20191450256E-01 0.  0.
         14    1    1    2    0    0 -0.28627706545E-01  0.38270411761E-02  0.11164528676E-01  0.30965117903E-01  0.00000000000E+00 0.  1.
     999901    1    3    3    0    0 -0.42773241490E-01  0.83198136644E-01  0.43875221525E-01  0.88604543630E+00  0.88000000000E+00 0.  1.
        -11    1    4    4    0    0  0.50380724839E-01 -0.45847605245E-01 -0.32057486625E-01  0.75287209483E-01  0.51100000000E-03 0. -1.
         11    1    4    4    0    0  0.21020223197E-01 -0.41177572575E-01 -0.22982263575E-01  0.51632236311E-01  0.51100000000E-03 0.  1.
</event>
<event>
 8    1  0.1106168E+005  0.1043930E+01  0.7957747E-01            NaN
         13   -1    0    0    0    0  0.00000000000E+00  0.00000000000E+00  0.74505805969E-08  0.10566000000E+00  0.10566000000E+00 0. -1.
     999900   -1    0    0    0    0 -0.00000000000E+00 -0.00000000000E+00 -0.74505805969E-08  0.93827000000E+00  0.93827000000E+00 0.  1.
     999902    2    1    2    0    0  0.40433168517E-02  0.10058150554E-01  0.22472629594E-01  0.10189793711E+01  0.10186738559E+01 0.  0.
     999903    2    3    3    0    0 -0.83008213582E-01  0.48857856652E-01 -0.81421815229E-01  0.12775692867E+00  0.20368287862E-01 0.  0.
         14    1    1    2    0    0 -0.40433168517E-02 -0.10058150554E-01 -0.22472629594E-01  0.24950628942E-01  0.00000000000E+00 0.  1.
     999901    1    3    3    0    0  0.87051530434E-01 -0.38799706097E-01  0.10389444482E+00  0.89122244238E+00  0.88000000000E+00 0. -1.
        -11    1    4    4    0    0 -0.25497228438E-01  0.22451401672E-01 -0.19296420013E-01  0.39074122401E-01  0.51100000000E-03 0. -1.
         11    1    4    4    0    0 -0.57510985144E-01  0.26406454979E-01 -0.62125395216E-01  0.88682806273E-01  0.51100000000E-03 0.  1.
</event>
<event>
 7    1  0.1106168E+005  0.1043930E+01  0.7957747E-01            NaN
         13   -1    0    0    0    0  0.00000000000E+00  0.00000000000E+00  0.74505805969E-08  0.10566000000E+00  0.10566000000E+00 0. -1.
     999900   -1    0    0    0    0 -0.00000000000E+00 -0.00000000000E+00 -0.74505805969E-08  0.93827000000E+00  0.93827000000E+00 0.  1.
     999903    2    1    2    0    0 -0.66417028201E-01  0.97688456606E-02  0.79971176395E-01  0.10666603985E+00  0.21808324596E-01 0.  0.
         14    1    1    2    0    0 -0.20899777359E-01 -0.16005708101E-03 -0.47954364070E-01  0.52311063317E-01  0.00000000000E+00 0.  1.
     999901    1    1    2    0    0  0.87316805560E-01 -0.96087885796E-02 -0.32016812325E-01  0.88495289684E+00  0.88000000000E+00 0.  1.
        -11    1    3    3    0    0 -0.42123941156E-01  0.16695726543E-01  0.50816242910E-01  0.68086161353E-01  0.51100000000E-03 0. -1.
         11    1    3    3    0    0 -0.24293087044E-01 -0.69268808829E-02  0.29154933485E-01  0.38579878492E-01  0.51100000000E-03 0.  1.
</event>
<event>
 8    1  0.1106168E+005  0.1043930E+01  0.7957747E-01            NaN
         13   -1    0    0    0    0  0.00000000000E+00  0.00000000000E+00  0.74505805969E-08  0.10566000000E+00  0.10566000000E+00 0.  1.
     999900   -1    0    0    0    0 -0.00000000000E+00 -0.00000000000E+00 -0.74505805969E-08  0.93827000000E+00  0.93827000000E+00 0. -1.
     999902    2    1    2    0    0 -0.20197155023E-01 -0.10144127348E-01 -0.59700436929E-02  0.10205533062E+01  0.10202855390E+01 0.  0.
     999903    2    3    3    0    0  0.12635952789E+00 -0.15514541484E-01  0.86998298093E-02  0.12829610796E+00  0.13295600464E-01 0.  0.
         14    1    1    2    0    0  0.20197155023E-01  0.10144127348E-01  0.59700436929E-02  0.23376693786E-01  0.00000000000E+00 0. -1.
     999901    1    3    3    0    0 -0.14655668291E+00  0.53704141360E-02 -0.14669873502E-01  0.89225719826E+00  0.88000000000E+00 0. -1.
        -11    1    4    4    0    0  0.56849310076E-01 -0.35800190011E-03  0.34444726839E-02  0.56956981438E-01  0.51100000000E-03 0.  1.
         11    1    4    4    0    0  0.69510217815E-01 -0.15156539584E-01  0.52553571254E-02  0.71339126518E-01  0.51100000000E-03 0. -1.
</event>
<event>
 8    1  0.1106168E+005  0.1043930E+01  0.7957747E-01            NaN
         13   -1    0    0    0    0  0.00000000000E+00  0.00000000000E+00  0.74505805969E-08  0.10566000000E+00  0.10566000000E+00 0.  1.
     999900   -1    0    0    0    0 -0.00000000000E+00 -0.00000000000E+00 -0.74505805969E-08  0.93827000000E+00  0.93827000000E+00 0. -1.
     999902    2    1    2    0    0 -0.16107414595E-01  0.82614657524E-02 -0.13136867541E-01  0.10215631068E+01  0.10213182184E+01 0.  0.
     999903    2    3    3    0    0 -0.45288317517E-01 -0.25985359091E-01 -0.12145061576E+00  0.13378146805E+00  0.20517274027E-01 0.  0.
         14    1    1    2    0    0  0.16107414595E-01 -0.82614657524E-02  0.13136867541E-01  0.22366893170E-01  0.00000000000E+00 0.  1.
     999901    1    3    3    0    0  0.29180902922E-01  0.34246824843E-01  0.10831374822E+00  0.88778163878E+00  0.88000000000E+00 0.  1.
        -11    1    4    4    0    0 -0.15720298446E-01 -0.35520498788E-02 -0.58700960050E-01  0.60875353578E-01  0.51100000000E-03 0.  1.
         11    1    4    4    0    0 -0.29568019071E-01 -0.22433309212E-01 -0.62749655711E-01  0.72906114468E-01  0.51100000000E-03 0. -1.
</event>
<event>
 8    1  0.1106168E+005  0.1043930E+01  0.7957747E-01            NaN
         13   -1    0    0    0    0  0.00000000000E+00  0.00000000000E+00  0.74505805969E-08  0.10566000000E+00  0.10566000000E+00 0.  1.
     999900   -1    0    0    0    0 -0.00000000000E+00 -0.00000000000E+00 -0.74505805969E-08  0.93827000000E+00  0.93827000000E+00 0.  1.
     999902    2    1    2    0    0  0.23964224615E-01  0.17259138136E-01  0.19554271235E-01  0.10085106348E+01  0.10078884705E+01 0.  0.
     999903    2    3    3    0    0 -0.50670763163E-01  0.10576613890E+00  0.21967009452E-01  0.12092419283E+00  0.19649644530E-01 0.  0.
         14    1    1    2    0    0 -0.23964224615E-01 -0.17259138136E-01 -0.19554271235E-01  0.35419365242E-01  0.00000000000E+00 0. -1.
     999901    1    3    3    0    0  0.74634987778E-01 -0.88507000766E-01 -0.24127382175E-02  0.88758644193E+00  0.88000000000E+00 0.  1.
        -11    1    4    4    0    0 -0.23441909312E-01  0.35030440779E-01  0.54115721901E-03  0.42156955126E-01  0.51100000000E-03 0.  1.
         11    1    4    4    0    0 -0.27228853851E-01  0.70735698123E-01  0.21425852233E-01  0.78767237706E-01  0.51100000000E-03 0. -1.
</event>
<event>
 8    1  0.1106168E+005  0.1043930E+01  0.7957747E-01            NaN
         13   -1    0    0    0    0  0.00000000000E+00  0.00000000000E+00  0.74505805969E-08  0.10566000000E+00  0.10566000000E+00 0.  1.
     999900   -1    0    0    0    0 -0.00000000000E+00 -0.00000000000E+00 -0.74505805969E-08  0.93827000000E+00  0.93827000000E+00 0. -1.
     999902    2    1    2    0    0 -0.13810652595E-01 -0.20017617877E-01  0.11625267436E-02  0.10195827082E+01  0.10192919642E+01 0.  0.
     999903    2    3    3    0    0 -0.11194928255E+00  0.33643618151E-01  0.55053614238E-01  0.13086736103E+00  0.20756464974E-01 0.  0.
         14    1    1    2    0    0  0.13810652595E-01  0.20017617877E-01 -0.11625267436E-02  0.24347291821E-01  0.00000000000E+00 0. -1.
     999901    1    3    3    0    0  0.98138629952E-01 -0.53661236028E-01 -0.53891087495E-01  0.88871534715E+00  0.88000000000E+00 0. -1.
        -11    1    4    4    0    0 -0.61001009254E-01  0.28840346717E-01  0.33531309566E-01  0.75349177640E-01  0.51100000000E-03 0.  1.
         11    1    4    4    0    0 -0.50948273292E-01  0.48032714344E-02  0.21522304672E-01  0.55518183394E-01  0.51100000000E-03 0. -1.
</event>
<event>
 8    1  0.1106168E+005  0.1043930E+01  0.7957747E-01            NaN
         13   -1    0    0    0    0  0.00000000000E+00  0.00000000000E+00  0.74505805969E-08  0.10566000000E+00  0.10566000000E+00 0. -1.
     999900   -1    0    0    0    0 -0.00000000000E+00 -0.00000000000E+00 -0.74505805969E-08  0.93827000000E+00  0.93827000000E+00 0.  1.
     999902    2    1    2    0    0  0.41333212473E-02 -0.31714094464E-02 -0.22777503060E-01  0.10205642809E+01  0.10202967679E+01 0.  0.
     999903    2    3    3    0    0 -0.62261150137E-01 -0.37040313283E-01 -0.10974356502E+00  0.13314193254E+00  0.20849184900E-01 0.  0.
         14    1    1    2    0    0 -0.41333212473E-02  0.31714094464E-02  0.22777503060E-01  0.23365719079E-01  0.00000000000E+00 0. -1.
     999901    1    3    3    0    0  0.66394471384E-01  0.33868903836E-01  0.86966061964E-01  0.88742234838E+00  0.88000000000E+00 0. -1.
        -11    1    4    4    0    0 -0.35891130114E-01 -0.15394507136E-01 -0.42394168599E-01  0.57642785525E-01  0.51100000000E-03 0.  1.
         11    1    4    4    0    0 -0.26370020023E-01 -0.21645806146E-01 -0.67349396426E-01  0.75499147013E-01  0.51100000000E-03 0. -1.
</event>
<event>
 8    1  0.1106168E+005  0.1043930E+01  0.7957747E-01            NaN
         13   -1    0    0    0    0  0.00000000000E+00  0.00000000000E+00  0.74505805969E-08  0.10566000000E+00  0.10566000000E+00 0.  1.
     999900   -1    0    0    0    0 -0.00000000000E+00 -0.00000000000E+00 -0.74505805969E-08  0.93827000000E+00  0.93827000000E+00 0. -1.
     999902    2    1    2    0    0 -0.20544044695E-01  0.11134293058E-01  0.41962029817E-02  0.10201889307E+01  0.10199126511E+01 0.  0.
     999903    2    3    3    0    0 -0.11709171469E+00  0.19868580033E-01  0.57307695710E-01  0.13327373120E+00  0.19299878768E-01 0.  0.
         14    1    1    2    0    0  0.20544044695E-01 -0.11134293058E-01 -0.41962029817E-02  0.23741069348E-01  0.00000000000E+00 0.  1.
     999901    1    3    3    0    0  0.96547669994E-01 -0.87342869755E-02 -0.53111492729E-01  0.88691519945E+00  0.88000000000E+00 0. -1.
        -11    1    4    4    0    0 -0.91276169691E-01  0.10840636142E-01  0.36479687152E-01  0.98893312418E-01  0.51100000000E-03 0.  1.
         11    1    4    4    0    0 -0.25815544998E-01  0.90279438910E-02  0.20828008559E-01  0.34380418787E-01  0.51100000000E-03 0. -1.
</event>
<event>
 8    1  0.1106168E+005  0.1043930E+01  0.7957747E-01            NaN
         13   -1    0    0    0    0  0.00000000000E+00  0.00000000000E+00  0.74505805969E-08  0.10566000000E+00  0.10566000000E+00 0.  1.
     999900   -1    0    0    0    0 -0.00000000000E+00 -0.00000000000E+00 -0.74505805969E-08  0.93827000000E+00  0.93827000000E+00 0.  1.
     999902    2    1    2    0    0 -0.58835779799E-02  0.15728347539E-01  0.16630467971E-01  0.10202959172E+01  0.10200221511E+01 0.  0.
     999903    2    3    3    0    0  0.46290274381E-01 -0.17683256338E-01 -0.11648669472E+00  0.12813078383E+00  0.19820712983E-01 0.  0.
         14    1    1    2    0    0  0.58835779799E-02 -0.15728347539E-01 -0.16630467971E-01  0.23634082827E-01  0.00000000000E+00 0. -1.
     999901    1    3    3    0    0 -0.52173852361E-01  0.33411603877E-01  0.13311716269E+00  0.89216513334E+00  0.88000000000E+00 0. -1.
        -11    1    4    4    0    0  0.22786993001E-01  0.45064103547E-04 -0.38110435989E-01  0.44406255563E-01  0.51100000000E-03 0.  1.
         11    1    4    4    0    0  0.23503281380E-01 -0.17728320442E-01 -0.78376258726E-01  0.83724528271E-01  0.51100000000E-03 0. -1.
</event>
<event>
 8    1  0.1106168E+005  0.1043930E+01  0.7957747E-01            NaN
         13   -1    0    0    0    0  0.00000000000E+00  0.00000000000E+00  0.74505805969E-08  0.10566000000E+00  0.10566000000E+00 0.  1.
     999900   -1    0    0    0    0 -0.00000000000E+00 -0.00000000000E+00 -0.74505805969E-08  0.93827000000E+00  0.93827000000E+00 0. -1.
     999902    2    1    2    0    0  0.94578324424E-02 -0.17460280370E-01  0.12352710140E-01  0.10205440762E+01  0.10202760950E+01 0.  0.
     999903    2    3    3    0    0  0.35942925357E-01  0.74625915910E-01 -0.96561550924E-01  0.12866760270E+00  0.19243119753E-01 0.  0.
         14    1    1    2    0    0 -0.94578324424E-02  0.17460280370E-01 -0.12352710140E-01  0.23385923820E-01  0.00000000000E+00 0. -1.
     999901    1    3    3    0    0 -0.26485092915E-01 -0.92086196281E-01  0.10891426106E+00  0.89187647348E+00  0.88000000000E+00 0.  1.
        -11    1    4    4    0    0  0.66066192098E-02  0.32055407178E-01 -0.30143202824E-01  0.44497981350E-01  0.51100000000E-03 0.  1.
         11    1    4    4    0    0  0.29336306147E-01  0.42570508732E-01 -0.66418348100E-01  0.84169621345E-01  0.51100000000E-03 0. -1.
</event>
<event>
 8    1  0.1106168E+005  0.1043930E+01  0.7957747E-01            NaN
         13   -1    0    0    0    0  0.00000000000E+00  0.00000000000E+00  0.74505805969E-08  0.10566000000E+00  0.10566000000E+00 0. -1.
     999900   -1    0    0    0    0 -0.00000000000E+00 -0.00000000000E+00 -0.74505805969E-08  0.93827000000E+00  0.93827000000E+00 0.  1.
     999902    2    1    2    0    0  0.79995304846E-02 -0.89248028982E-02 -0.21043880402E-01  0.10197124548E+01  0.10194248383E+01 0.  0.
     999903    2    3    3    0    0  0.94514887865E-03  0.15587171002E-01  0.12477041212E+00  0.12734907079E+00  0.20156311290E-01 0.  0.
         14    1    1    2    0    0 -0.79995304846E-02  0.89248028982E-02  0.21043880402E-01  0.24217545233E-01  0.00000000000E+00 0. -1.
     999901    1    3    3    0    0  0.70543816059E-02 -0.24511973901E-01 -0.14581429252E+00  0.89236338398E+00  0.88000000000E+00 0.  1.
        -11    1    4    4    0    0 -0.67217683277E-03  0.11113275694E-01  0.23961912878E-01  0.26427090421E-01  0.51100000000E-03 0. -1.
         11    1    4    4    0    0  0.16173257114E-02  0.44738953085E-02  0.10080849924E+00  0.10092198037E+00  0.51100000000E-03 0.  1.
</event>
<event>
 8    1  0.1106168E+005  0.1043930E+01  0.7957747E-01            NaN
         13   -1    0    0    0    0  0.00000000000E+00  0.00000000000E+00  0.74505805969E-08  0.10566000000E+00  0.10566000000E+00 0.  1.
     999900   -1    0    0    0    0 -0.00000000000E+00 -0.00000000000E+00 -0.74505805969E-08  0.93827000000E+00  0.93827000000E+00 0. -1.
     999902    2    1    2    0    0 -0.41119463161E-02 -0.24023907752E-01 -0.28807284359E-03  0.10195550286E+01  0.10192636151E+01 0.  0.
     999903    2    3    3    0    0  0.61888856288E-02 -0.82918258554E-01  0.10014064243E+00  0.13182726707E+00  0.20893543718E-01 0.  0.
         14    1    1    2    0    0  0.41119463161E-02  0.24023907752E-01  0.28807284359E-03  0.24374971428E-01  0.00000000000E+00 0.  1.
     999901    1    3    3    0    0 -0.10300831945E-01  0.58894350802E-01 -0.10042871527E+00  0.88772776151E+00  0.88000000000E+00 0. -1.
        -11    1    4    4    0    0  0.13265814032E-01 -0.59105337125E-01  0.75939598459E-01  0.97141682267E-01  0.51100000000E-03 0. -1.
         11    1    4    4    0    0 -0.70769284035E-02 -0.23812921429E-01  0.24201043972E-01  0.34685584800E-01  0.51100000000E-03 0.  1.
</event>
<event>
 8    1  0.1106168E+005  0.1043930E+01  0.7957747E-01            NaN
         13   -1    0    0    0    0  0.00000000000E+00  0.00000000000E+00  0.74505805969E-08  0.10566000000E+00  0.10566000000E+00 0. -1.
     999900   -1    0    0    0    0 -0.00000000000E+00 -0.00000000000E+00 -0.74505805969E-08  0.93827000000E+00  0.93827000000E+00 0.  1.
     999902    2    1    2    0    0 -0.23688444275E-01  0.91214278049E-02  0.72125327406E-02  0.10175413004E+01  0.10171990634E+01 0.  0.
     999903    2    3    3    0    0 -0.56315845504E-01 -0.24657480801E-01 -0.11099300812E+00  0.12839670482E+00  0.19667235306E-01 0.  0.
         14    1    1    2    0    0  0.23688444275E-01 -0.91214278049E-02 -0.72125327406E-02  0.26388699587E-01  0.00000000000E+00 0. -1.
     999901    1    3    3    0    0  0.32627401229E-01  0.33778908606E-01  0.11820554086E+00  0.88914459559E+00  0.88000000000E+00 0. -1.
        -11    1    4    4    0    0 -0.20669219398E-02 -0.41474638102E-02 -0.19653343844E-01  0.20198729356E-01  0.51100000000E-03 0. -1.
         11    1    4    4    0    0 -0.54248923565E-01 -0.20510016990E-01 -0.91339664271E-01  0.10819797547E+00  0.51100000000E-03 0.  1.
</event>
<event>
 8    1  0.1106168E+005  0.1043930E+01  0.7957747E-01            NaN
         13   -1    0    0    0    0  0.00000000000E+00  0.00000000000E+00  0.74505805969E-08  0.10566000000E+00  0.10566000000E+00 0. -1.
     999900   -1    0    0    0    0 -0.00000000000E+00 -0.00000000000E+00 -0.74505805969E-08  0.93827000000E+00  0.93827000000E+00 0.  1.
     999902    2    1    2    0    0  0.16919435608E-01 -0.60110831903E-02  0.12870625409E-01  0.10218380689E+01  0.10215992294E+01 0.  0.
     999903    2    3    3    0    0 -0.57420657986E-01 -0.79438812685E-01 -0.83749063996E-01  0.13040470325E+00  0.19591426298E-01 0.  0.
         14    1    1    2    0    0 -0.16919435608E-01  0.60110831903E-02 -0.12870625409E-01  0.22091931125E-01  0.00000000000E+00 0.  1.
     999901    1    3    3    0    0  0.74340093594E-01  0.73427729494E-01  0.96619689405E-01  0.89143336563E+00  0.88000000000E+00 0. -1.
        -11    1    4    4    0    0 -0.35659057380E-01 -0.54554429859E-01 -0.43694781421E-01  0.78468141528E-01  0.51100000000E-03 0. -1.
         11    1    4    4    0    0 -0.21761600606E-01 -0.24884382826E-01 -0.40054282575E-01  0.51936561719E-01  0.51100000000E-03 0.  1.
</event>
<event>
 8    1  0.1106168E+005  0.1043930E+01  0.7957747E-01            NaN
         13   -1    0    0    0    0  0.00000000000E+00  0.00000000000E+00  0.74505805969E-08  0.10566000000E+00  0.10566000000E+00 0.  1.
     999900   -1    0    0    0    0 -0.00000000000E+00 -0.00000000000E+00 -0.74505805969E-08  0.93827000000E+00  0.93827000000E+00 0.  1.
     999902    2    1    2    0    0  0.22221069918E-01  0.93573292700E-02  0.68528125023E-03  0.10198093622E+01  0.10195240703E+01 0.  0.
     999903    2    3    3    0    0  0.13042206026E+00  0.10351342394E-01 -0.14225076075E-01  0.13305643088E+00  0.19611142719E-01 0.  0.
         14    1    1    2    0    0 -0.22221069918E-01 -0.93573292700E-02 -0.68528125023E-03  0.24120637839E-01  0.00000000000E+00 0.  1.
     999901    1    3    3    0    0 -0.10820099034E+00 -0.99401312400E-03  0.14910357325E-01  0.88675293128E+00  0.88000000000E+00 0. -1.
        -11    1    4    4    0    0  0.88109460435E-01  0.15140574884E-02 -0.20572513621E-02  0.88147959661E-01  0.51100000000E-03 0.  1.
         11    1    4    4    0    0  0.42312599824E-01  0.88372849057E-02 -0.12167824713E-01  0.44908471223E-01  0.51100000000E-03 0. -1.
</event>
<event>
 8    1  0.1106168E+005  0.1043930E+01  0.7957747E-01            NaN
         13   -1    0    0    0    0  0.00000000000E+00  0.00000000000E+00  0.74505805969E-08  0.10566000000E+00  0.10566000000E+00 0.  1.
     999900   -1    0    0    0    0 -0.00000000000E+00 -0.00000000000E+00 -0.74505805969E-08  0.93827000000E+00  0.93827000000E+00 0.  1.
     999902    2    1    2    0    0  0.13726707095E-02 -0.19911923023E-02 -0.22287639879E-01  0.10215115263E+01  0.10212654946E+01 0.  0.
     999903    2    3    3    0    0 -0.12434959451E+00  0.20495036767E-01 -0.34604659127E-01  0.13220650133E+00  0.19955159064E-01 0.  0.
         14    1    1    2    0    0 -0.13726707095E-02  0.19911923023E-02  0.22287639879E-01  0.22418473700E-01  0.00000000000E+00 0.  1.
     999901    1    3    3    0    0  0.12572226522E+00 -0.22486229069E-01  0.12317019248E-01  0.88930502497E+00  0.88000000000E+00 0.  1.
        -11    1    4    4    0    0 -0.10743252017E+00  0.13056702204E-01 -0.34914186422E-01  0.11371668917E+00  0.51100000000E-03 0.  1.
         11    1    4    4    0    0 -0.16917074347E-01  0.74383345629E-02  0.30952729571E-03  0.18489812159E-01  0.51100000000E-03 0. -1.
</event>
<event>
 8    1  0.1106168E+005  0.1043930E+01  0.7957747E-01            NaN
         13   -1    0    0    0    0  0.00000000000E+00  0.00000000000E+00  0.74505805969E-08  0.10566000000E+00  0.10566000000E+00 0. -1.
     999900   -1    0    0    0    0 -0.00000000000E+00 -0.00000000000E+00 -0.74505805969E-08  0.93827000000E+00  0.93827000000E+00 0.  1.
     999902    2    1    2    0    0 -0.10611594136E-01 -0.19681831985E-01  0.66877758011E-02  0.10205910457E+01  0.10203241524E+01 0.  0.
     999903    2    3    3    0    0  0.17403178780E-01  0.12016717808E+00  0.36582268905E-01  0.12860659867E+00  0.21409659080E-01 0.  0.
         14    1    1    2    0    0  0.10611594136E-01  0.19681831985E-01 -0.66877758011E-02  0.23338954251E-01  0.00000000000E+00 0.  1.
     999901    1    3    3    0    0 -0.28014772917E-01 -0.13984901007E+00 -0.29894493104E-01  0.89198444708E+00  0.88000000000E+00 0. -1.
        -11    1    4    4    0    0  0.87822620130E-02  0.47950678369E-01  0.25559776712E-01  0.55045063254E-01  0.51100000000E-03 0. -1.
         11    1    4    4    0    0  0.86209167675E-02  0.72216499715E-01  0.11022492193E-01  0.73561535412E-01  0.51100000000E-03 0.  1.
</event>
<event>
 7    1  0.1106168E+005  0.1043930E+01  0.7957747E-01            NaN
         13   -1    0    0    0    0  0.00000000000E+00  0.00000000000E+00  0.74505805969E-08  0.10566000000E+00  0.10566000000E+00 0. -1.
     999900   -1    0    0    0    0 -0.00000000000E+00 -0.00000000000E+00 -0.74505805969E-08  0.93827000000E+00  0.93827000000E+00 0. -1.
     999903    2    1    2    0    0 -0.73864624946E-01  0.24041325972E-01  0.41194298360E-01  0.90015088686E-01  0.19281540417E-01 0.  0.
         14    1    1    2    0    0 -0.54395051849E-01  0.11948071388E-01  0.25787235668E-01  0.61372303191E-01  0.00000000000E+00 0. -1.
     999901    1    1    2    0    0  0.12825967680E+00 -0.35989397360E-01 -0.66981534029E-01  0.89254260812E+00  0.88000000000E+00 0.  1.
        -11    1    3    3    0    0 -0.52461802477E-01  0.12412396437E-01  0.19311045640E-01  0.57266795870E-01  0.51100000000E-03 0.  1.
         11    1    3    3    0    0 -0.21402822469E-01  0.11628929534E-01  0.21883252721E-01  0.32748292817E-01  0.51100000000E-03 0. -1.
</event>
<event>
 8    1  0.1106168E+005  0.1043930E+01  0.7957747E-01            NaN
         13   -1    0    0    0    0  0.00000000000E+00  0.00000000000E+00  0.74505805969E-08  0.10566000000E+00  0.10566000000E+00 0. -1.
     999900   -1    0    0    0    0 -0.00000000000E+00 -0.00000000000E+00 -0.74505805969E-08  0.93827000000E+00  0.93827000000E+00 0.  1.
     999902    2    1    2    0    0  0.19181764245E-01 -0.51203050123E-02  0.12001510461E-01  0.10207309945E+01  0.10204673289E+01 0.  0.
     999903    2    3    3    0    0  0.87922372253E-01 -0.43238482471E-01  0.88721550772E-01  0.13390280864E+00  0.21413516332E-01 0.  0.
         14    1    1    2    0    0 -0.19181764245E-01  0.51203050123E-02 -0.12001510461E-01  0.23199005503E-01  0.00000000000E+00 0.  1.
     999901    1    3    3    0    0 -0.68740608007E-01  0.38118177459E-01 -0.76720040312E-01  0.88682818586E+00  0.88000000000E+00 0.  1.
        -11    1    4    4    0    0  0.12333782329E-01 -0.15810310362E-03  0.17759708594E-01  0.21629044211E-01  0.51100000000E-03 0.  1.
         11    1    4    4    0    0  0.75588589924E-01 -0.43080379368E-01  0.70961842179E-01  0.11227376443E+00  0.51100000000E-03 0. -1.
</event>
<event>
 8    1  0.1106168E+005  0.1043930E+01  0.7957747E-01            NaN
         13   -1    0    0    0    0  0.00000000000E+00  0.00000000000E+00  0.74505805969E-08  0.10566000000E+00  0.10566000000E+00 0.  1.
     999900   -1    0    0    0    0 -0.00000000000E+00 -0.00000000000E+00 -0.74505805969E-08  0.93827000000E+00  0.93827000000E+00 0. -1.
     999902    2    1    2    0    0 -0.16755674695E-01 -0.17115782812E-01 -0.60616843435E-03  0.10199702401E+01  0.10196887861E+01 0.  0.
     999903    2    3    3    0    0 -0.27360808478E-01  0.12452166792E+00 -0.72297761522E-02  0.12855703146E+00  0.14845236684E-01 0.  0.
         14    1    1    2    0    0  0.16755674695E-01  0.17115782812E-01  0.60616843435E-03  0.23959759930E-01  0.00000000000E+00 0.  1.
     999901    1    3    3    0    0  0.10605133783E-01 -0.14163745073E+00  0.66236077178E-02  0.89141320861E+00  0.88000000000E+00 0. -1.
        -11    1    4    4    0    0  0.87319828572E-03  0.16832787431E-01  0.12188549872E-02  0.16907156367E-01  0.51100000000E-03 0.  1.
         11    1    4    4    0    0 -0.28234006763E-01  0.10768888049E+00 -0.84486311393E-02  0.11164987509E+00  0.51100000000E-03 0. -1.
</event>
<event>
 8    1  0.1106168E+005  0.1043930E+01  0.7957747E-01            NaN
         13   -1    0    0    0    0  0.00000000000E+00  0.00000000000E+00  0.74505805969E-08  0.10566000000E+00  0.10566000000E+00 0. -1.
     999900   -1    0    0    0    0 -0.00000000000E+00 -0.00000000000E+00 -0.74505805969E-08  0.93827000000E+00  0.93827000000E+00 0.  1.
     999902    2    1    2    0    0  0.30986055856E-04  0.97640779164E-02  0.13361772504E-01  0.10273808265E+01  0.10272475299E+01 0.  0.
     999903    2    3    3    0    0  0.89838937837E-02 -0.10056109825E+00  0.91049308548E-01  0.13705102680E+00  0.17313651549E-01 0.  0.
         14    1    1    2    0    0 -0.30986055856E-04 -0.97640779164E-02 -0.13361772504E-01  0.16549173458E-01  0.00000000000E+00 0.  1.
     999901    1    3    3    0    0 -0.89529077279E-02  0.11032517617E+00 -0.77687536044E-01  0.89032979974E+00  0.88000000000E+00 0.  1.
        -11    1    4    4    0    0  0.10067118487E-01 -0.88311852317E-01  0.72077506264E-01  0.11443669938E+00  0.51100000000E-03 0.  1.
         11    1    4    4    0    0 -0.10832247034E-02 -0.12249245936E-01  0.18971802284E-01  0.22614327421E-01  0.51100000000E-03 0. -1.
</event>
<event>
 8    1  0.1106168E+005  0.1043930E+01  0.7957747E-01            NaN
         13   -1    0    0    0    0  0.00000000000E+00  0.00000000000E+00  0.74505805969E-08  0.10566000000E+00  0.10566000000E+00 0.  1.
     999900   -1    0    0    0    0 -0.00000000000E+00 -0.00000000000E+00 -0.74505805969E-08  0.93827000000E+00  0.93827000000E+00 0.  1.
     999902    2    1    2    0    0 -0.17523775122E-01 -0.38066623279E-02  0.13691131211E-01  0.10213685185E+01  0.10211193026E+01 0.  0.
     999903    2    3    3    0    0 -0.23249979374E-01 -0.12806164935E+00 -0.12906108919E-01  0.13222313986E+00  0.19391840881E-01 0.  0.
         14    1    1    2    0    0  0.17523775122E-01  0.38066623279E-02 -0.13691131211E-01  0.22561481477E-01  0.00000000000E+00 0. -1.
     999901    1    3    3    0    0  0.57262042514E-02  0.12425498702E+00  0.26597240130E-01  0.88914537866E+00  0.88000000000E+00 0.  1.
        -11    1    4    4    0    0 -0.67804251238E-02 -0.17468948906E-01 -0.77687881032E-02  0.20291710878E-01  0.51100000000E-03 0.  1.
         11    1    4    4    0    0 -0.16469554250E-01 -0.11059270044E+00 -0.51373208156E-02  0.11193142898E+00  0.51100000000E-03 0. -1.
</event>
<event>
 8    1  0.1106168E+005  0.1043930E+01  0.7957747E-01            NaN
         13   -1    0    0    0    0  0.00000000000E+00  0.00000000000E+00  0.74505805969E-08  0.10566000000E+00  0.10566000000E+00 0. -1.
     999900   -1    0    0    0    0 -0.00000000000E+00 -0.00000000000E+00 -0.74505805969E-08  0.93827000000E+00  0.93827000000E+00 0. -1.
     999902    2    1    2    0    0  0.11718756227E-01 -0.11558701177E-01  0.16964269258E-01  0.10202927571E+01  0.10200189170E+01 0.  0.
     999903    2    3    3    0    0  0.33156239351E-01 -0.66222644173E-01 -0.10483097511E+00  0.12996596659E+00  0.20416765649E-01 0.  0.
         14    1    1    2    0    0 -0.11718756227E-01  0.11558701177E-01 -0.16964269258E-01  0.23637242899E-01  0.00000000000E+00 0.  1.
     999901    1    3    3    0    0 -0.21437483125E-01  0.54663942996E-01  0.12179524437E+00  0.89032679051E+00  0.88000000000E+00 0.  1.
        -11    1    4    4    0    0  0.11613259321E-01 -0.33381939620E-01 -0.34408647711E-01  0.49329887930E-01  0.51100000000E-03 0. -1.
         11    1    4    4    0    0  0.21542980030E-01 -0.32840704553E-01 -0.70422327403E-01  0.80636078662E-01  0.51100000000E-03 0.  1.
</event>
<event>
 8    1  0.1106168E+005  0.1043930E+01  0.7957747E-01            NaN
         13   -1    0    0    0    0  0.00000000000E+00  0.00000000000E+00  0.74505805969E-08  0.10566000000E+00  0.10566000000E+00 0. -1.
     999900   -1    0    0    0    0 -0.00000000000E+00 -0.00000000000E+00 -0.74505805969E-08  0.93827000000E+00  0.93827000000E+00 0.  1.
     999902    2    1    2    0    0 -0.11741803027E-01  0.10508883303E-01 -0.17132417598E-01  0.10206528374E+01  0.10203873716E+01 0.  0.
     999903    2    3    3    0    0 -0.11572286220E+00  0.48159036049E-01  0.37093979298E-01  0.13207526802E+00  0.18890196725E-01 0.  0.
         14    1    1    2    0    0  0.11741803027E-01 -0.10508883303E-01  0.17132417598E-01  0.23277162613E-01  0.00000000000E+00 0. -1.
     999901    1    3    3    0    0  0.10398105917E+00 -0.37650152746E-01 -0.54226396896E-01  0.88857756937E+00  0.88000000000E+00 0.  1.
        -11    1    4    4    0    0 -0.70459022278E-01  0.36253537876E-01  0.30025761353E-01  0.84738422777E-01  0.51100000000E-03 0. -1.
         11    1    4    4    0    0 -0.45263839922E-01  0.11905498173E-01  0.70682179455E-02  0.47336845238E-01  0.51100000000E-03 0.  1.
</event>
<event>
 8    1  0.1106168E+005  0.1043930E+01  0.7957747E-01            NaN
         13   -1    0    0    0    0  0.00000000000E+00  0.00000000000E+00  0.74505805969E-08  0.10566000000E+00  0.10566000000E+00 0.  1.
     999900   -1    0    0    0    0 -0.00000000000E+00 -0.00000000000E+00 -0.74505805969E-08  0.93827000000E+00  0.93827000000E+00 0.  1.
     999902    2    1    2    0    0  0.64259896376E-02  0.74931765556E-02 -0.22401977203E-01  0.10194496074E+01  0.10191556370E+01 0.  0.
     999903    2    3    3    0    0 -0.27889547654E-01 -0.11458350702E+00  0.45246405402E-01  0.12779015650E+00  0.19387623519E-01 0.  0.
         14    1    1    2    0    0 -0.64259896376E-02 -0.74931765556E-02  0.22401977203E-01  0.24480392569E-01  0.00000000000E+00 0.  1.
     999901    1    3    3    0    0  0.34315537292E-01  0.12207668358E+00 -0.67648382605E-01  0.89165945094E+00  0.88000000000E+00 0.  1.
        -11    1    4    4    0    0 -0.56122451821E-02 -0.27251110219E-01  0.22190808544E-02  0.27916048162E-01  0.51100000000E-03 0. -1.
         11    1    4    4    0    0 -0.22277302472E-01 -0.87332396803E-01  0.43027324548E-01  0.99874108334E-01  0.51100000000E-03 0.  1.
</event>
<event>
 8    1  0.1106168E+005  0.1043930E+01  0.7957747E-01            NaN
         13   -1    0    0    0    0  0.00000000000E+00  0.00000000000E+00  0.74505805969E-08  0.10566000000E+00  0.10566000000E+00 0. -1.
     999900   -1    0    0    0    0 -0.00000000000E+00 -0.00000000000E+00 -0.74505805969E-08  0.93827000000E+00  0.93827000000E+00 0.  1.
     999902    2    1    2    0    0 -0.52902395978E-02  0.15045112255E-01 -0.19173469800E-01  0.10189907943E+01  0.10186855623E+01 0.  0.
     999903    2    3    3    0    0  0.99366017998E-01 -0.20205787285E-01 -0.78687760688E-01  0.13009400106E+00  0.21232193903E-01 0.  0.
         14    1    1    2    0    0  0.52902395978E-02 -0.15045112255E-01  0.19173469800E-01  0.24939205720E-01  0.00000000000E+00 0. -1.
     999901    1    3    3    0    0 -0.10465625760E+00  0.35250899540E-01  0.59514290889E-01  0.88889679322E+00  0.88000000000E+00 0. -1.
        -11    1    4    4    0    0  0.33080087182E-01  0.26915453169E-02 -0.20934293300E-01  0.39243373213E-01  0.51100000000E-03 0.  1.
         11    1    4    4    0    0  0.66285930815E-01 -0.22897332602E-01 -0.57753467388E-01  0.90850627850E-01  0.51100000000E-03 0. -1.
</event>
<event>
 8    1  0.1106168E+005  0.1043930E+01  0.7957747E-01            NaN
         13   -1    0    0    0    0  0.00000000000E+00  0.00000000000E+00  0.74505805969E-08  0.10566000000E+00  0.10566000000E+00 0.  1.
     999900   -1    0    0    0    0 -0.00000000000E+00 -0.00000000000E+00 -0.74505805969E-08  0.93827000000E+00  0.93827000000E+00 0.  1.
     999902    2    1    2    0    0 -0.13935734548E-01 -0.23512018752E-02  0.18680781719E-01  0.10205055586E+01  0.10202366837E+01 0.  0.
     999903    2    3    3    0    0  0.12718189653E+00  0.87309500449E-02  0.44126758990E-02  0.12907940985E+00  0.19762541485E-01 0.  0.
         14    1    1    2    0    0  0.13935734548E-01  0.23512018752E-02 -0.18680781719E-01  0.23424441366E-01  0.00000000000E+00 0. -1.
     999901    1    3    3    0    0 -0.14111763108E+00 -0.11082151920E-01  0.14268105820E-01  0.89142614878E+00  0.88000000000E+00 0. -1.
        -11    1    4    4    0    0  0.46148161388E-01  0.65205587133E-02  0.10528037401E-01  0.47783586910E-01  0.51100000000E-03 0. -1.
         11    1    4    4    0    0  0.81033735139E-01  0.22103913317E-02 -0.61153615015E-02  0.81295822941E-01  0.51100000000E-03 0.  1.
</event>
<event>
 8    1  0.1106168E+005  0.1043930E+01  0.7957747E-01            NaN
         13   -1    0    0    0    0  0.00000000000E+00  0.00000000000E+00  0.74505805969E-08  0.10566000000E+00  0.10566000000E+00 0.  1.
     999900   -1    0    0    0    0 -0.00000000000E+00 -0.00000000000E+00 -0.74505805969E-08  0.93827000000E+00  0.93827000000E+00 0. -1.
     999902    2    1    2    0    0 -0.19587918384E-02 -0.18405370372E-01  0.14321886537E-01  0.10205267746E+01  0.10202583922E+01 0.  0.
     999903    2    3    3    0    0 -0.11529511372E+00  0.54930786749E-01  0.14865087129E-01  0.13023266094E+00  0.20717639323E-01 0.  0.
         14    1    1    2    0    0  0.19587918384E-02  0.18405370372E-01 -0.14321886537E-01  0.23403225375E-01  0.00000000000E+00 0. -1.
     999901    1    3    3    0    0  0.11333632188E+00 -0.73336157121E-01 -0.54320059171E-03  0.89029411369E+00  0.88000000000E+00 0. -1.
        -11    1    4    4    0    0 -0.53110544066E-01  0.34368101121E-01  0.93462776646E-03  0.63269510159E-01  0.51100000000E-03 0. -1.
         11    1    4    4    0    0 -0.62184569653E-01  0.20562685628E-01  0.13930459362E-01  0.66963150779E-01  0.51100000000E-03 0.  1.
</event>
<event>
 8    1  0.1106168E+005  0.1043930E+01  0.7957747E-01            NaN
         13   -1    0    0    0    0  0.00000000000E+00  0.00000000000E+00  0.74505805969E-08  0.10566000000E+00  0.10566000000E+00 0. -1.
     999900   -1    0    0    0    0 -0.00000000000E+00 -0.00000000000E+00 -0.74505805969E-08  0.93827000000E+00  0.93827000000E+00 0.  1.
     999902    2    1    2    0    0  0.45711375699E-02  0.11613810618E-01 -0.20263822964E-01  0.10201308736E+01  0.10198532252E+01 0.  0.
     999903    2    3    3    0    0  0.88607041746E-01 -0.86788674375E-01 -0.36216886786E-01  0.13052445362E+00  0.18479400904E-01 0.  0.
         14    1    1    2    0    0 -0.45711375699E-02 -0.11613810618E-01  0.20263822964E-01  0.23799126389E-01  0.00000000000E+00 0. -1.
     999901    1    3    3    0    0 -0.84035904176E-01  0.98402484993E-01  0.15953063823E-01  0.88960641999E+00  0.88000000000E+00 0. -1.
        -11    1    4    4    0    0  0.43237408940E-01 -0.54976281036E-01 -0.18534925864E-01  0.72357927045E-01  0.51100000000E-03 0.  1.
         11    1    4    4    0    0  0.45369632805E-01 -0.31812393339E-01 -0.17681960923E-01  0.58166526576E-01  0.51100000000E-03 0. -1.
</event>
<event>
 8    1  0.1106168E+005  0.1043930E+01  0.7957747E-01            NaN
         13   -1    0    0    0    0  0.00000000000E+00  0.00000000000E+00  0.74505805969E-08  0.10566000000E+00  0.10566000000E+00 0.  1.
     999900   -1    0    0    0    0 -0.00000000000E+00 -0.00000000000E+00 -0.74505805969E-08  0.93827000000E+00  0.93827000000E+00 0. -1.
     999902    2    1    2    0    0 -0.14747745744E-01  0.17395581304E-01 -0.36937719485E-02  0.10208270520E+01  0.10205655902E+01 0.  0.
     999903    2    3    3    0    0  0.89775100150E-01  0.78434156018E-01  0.50539204827E-01  0.13088775709E+00  0.19128729555E-01 0.  0.
         14    1    1    2    0    0  0.14747745744E-01 -0.17395581304E-01  0.36937719485E-02  0.23102947965E-01  0.00000000000E+00 0.  1.
     999901    1    3    3    0    0 -0.10452284589E+00 -0.61038574714E-01 -0.54232976775E-01  0.88993929494E+00  0.88000000000E+00 0. -1.
        -11    1    4    4    0    0  0.27687197326E-01  0.32097768899E-01  0.10474074874E-01  0.43667093211E-01  0.51100000000E-03 0.  1.
         11    1    4    4    0    0  0.62087902824E-01  0.46336387119E-01  0.40065129953E-01  0.87220663879E-01  0.51100000000E-03 0. -1.
</event>
<event>
 8    1  0.1106168E+005  0.1043930E+01  0.7957747E-01            NaN
         13   -1    0    0    0    0  0.00000000000E+00  0.00000000000E+00  0.74505805969E-08  0.10566000000E+00  0.10566000000E+00 0.  1.
     999900   -1    0    0    0    0 -0.00000000000E+00 -0.00000000000E+00 -0.74505805969E-08  0.93827000000E+00  0.93827000000E+00 0. -1.
     999902    2    1    2    0    0  0.18580040537E-01  0.11582876981E-01  0.88574904477E-02  0.10203114462E+01  0.10200380440E+01 0.  0.
     999903    2    3    3    0    0  0.79075891178E-01 -0.83139078157E-01  0.63760911890E-01  0.13146591273E+00  0.72615040718E-02 0.  0.
         14    1    1    2    0    0 -0.18580040537E-01 -0.11582876981E-01 -0.88574904477E-02  0.23618553778E-01  0.00000000000E+00 0.  1.
     999901    1    3    3    0    0 -0.60495850641E-01  0.94721955139E-01 -0.54903421443E-01  0.88884553350E+00  0.88000000000E+00 0. -1.
        -11    1    4    4    0    0  0.47954507839E-01 -0.49175642248E-01  0.42048893699E-01  0.80537253460E-01  0.51100000000E-03 0. -1.
         11    1    4    4    0    0  0.31121383339E-01 -0.33963435909E-01  0.21712018191E-01  0.50928659266E-01  0.51100000000E-03 0.  1.
</event>
<event>
 8    1  0.1106168E+005  0.1043930E+01  0.7957747E-01            NaN
         13   -1    0    0    0    0  0.00000000000E+00  0.00000000000E+00  0.74505805969E-08  0.10566000000E+00  0.10566000000E+00 0.  1.
     999900   -1    0    0    0    0 -0.00000000000E+00 -0.00000000000E+00 -0.74505805969E-08  0.93827000000E+00  0.93827000000E+00 0. -1.
     999902    2    1    2    0    0  0.87046044509E-02  0.19061575569E-01 -0.10765861644E-01  0.10203711889E+01  0.10200991842E+01 0.  0.
     999903    2    3    3    0    0 -0.10003327632E+00 -0.70801167963E-01  0.31471729036E-01  0.12813621234E+00  0.20222695886E-01 0.  0.
         14    1    1    2    0    0 -0.87046044509E-02 -0.19061575569E-01  0.10765861644E-01  0.23558811064E-01  0.00000000000E+00 0. -1.
     999901    1    3    3    0    0  0.10873788077E+00  0.89862743532E-01 -0.42237590680E-01  0.89223497659E+00  0.88000000000E+00 0. -1.
        -11    1    4    4    0    0 -0.45752759321E-01 -0.44739439092E-01  0.16617822648E-01  0.66116151932E-01  0.51100000000E-03 0.  1.
         11    1    4    4    0    0 -0.54280516999E-01 -0.26061728872E-01  0.14853906388E-01  0.62020060411E-01  0.51100000000E-03 0. -1.
</event>
<event>
 8    1  0.1106168E+005  0.1043930E+01  0.7957747E-01            NaN
         13   -1    0    0    0    0  0.00000000000E+00  0.00000000000E+00  0.74505805969E-08  0.10566000000E+00  0.10566000000E+00 0. -1.
     999900   -1    0    0    0    0 -0.00000000000E+00 -0.00000000000E+00 -0.74505805969E-08  0.93827000000E+00  0.93827000000E+00 0. -1.
     999902    2    1    2    0    0  0.22764818271E-02  0.15492973457E-01 -0.14394900518E-01  0.10226596508E+01  0.10224384253E+01 0.  0.
     999903    2    3    3    0    0 -0.12998973371E+00 -0.33582610206E-02 -0.16388274639E-01  0.13257330980E+00  0.19962418190E-01 0.  0.
         14    1    1    2    0    0 -0.22764818271E-02 -0.15492973457E-01  0.14394900518E-01  0.21270349245E-01  0.00000000000E+00 0. -1.
     999901    1    3    3    0    0  0.13226621553E+00  0.18851234478E-01  0.19933741208E-02  0.89008634095E+00  0.88000000000E+00 0.  1.
        -11    1    4    4    0    0 -0.41262285823E-01 -0.54406592075E-02  0.29873697838E-02  0.41729635790E-01  0.51100000000E-03 0.  1.
         11    1    4    4    0    0 -0.88727447883E-01  0.20823981869E-02 -0.19375644423E-01  0.90843674011E-01  0.51100000000E-03 0. -1.
</event>
<event>
 8    1  0.1106168E+005  0.1043930E+01  0.7957747E-01            NaN
         13   -1    0    0    0    0  0.00000000000E+00  0.00000000000E+00  0.74505805969E-08  0.10566000000E+00  0.10566000000E+00 0. -1.
     999900   -1    0    0    0    0 -0.00000000000E+00 -0.00000000000E+00 -0.74505805969E-08  0.93827000000E+00  0.93827000000E+00 0.  1.
     999902    2    1    2    0    0 -0.69976022251E-02 -0.21785173421E-01 -0.54822397168E-02  0.10204009718E+01  0.10201296623E+01 0.  0.
     999903    2    3    3    0    0  0.72893861453E-01  0.62768806884E-01  0.83292100429E-01  0.12831750872E+00  0.16564144850E-01 0.  0.
         14    1    1    2    0    0  0.69976022251E-02  0.21785173421E-01  0.54822397168E-02  0.23529028246E-01  0.00000000000E+00 0. -1.
     999901    1    3    3    0    0 -0.79891463678E-01 -0.84553980305E-01 -0.88774340146E-01  0.89208346304E+00  0.88000000000E+00 0.  1.
        -11    1    4    4    0    0  0.31407839318E-01  0.37122414812E-01  0.45744732125E-01  0.66763520656E-01  0.51100000000E-03 0.  1.
         11    1    4    4    0    0  0.41486022135E-01  0.25646392071E-01  0.37547368304E-01  0.61553988062E-01  0.51100000000E-03 0. -1.
</event>
<event>
 8    1  0.1106168E+005  0.1043930E+01  0.7957747E-01            NaN
         13   -1    0    0    0    0  0.00000000000E+00  0.00000000000E+00  0.74505805969E-08  0.10566000000E+00  0.10566000000E+00 0. -1.
     999900   -1    0    0    0    0 -0.00000000000E+00 -0.00000000000E+00 -0.74505805969E-08  0.93827000000E+00  0.93827000000E+00 0. -1.
     999902    2    1    2    0    0  0.16006274326E-01 -0.14440544920E-01 -0.10409841538E-01  0.10199905982E+01  0.10197096281E+01 0.  0.
     999903    2    3    3    0    0  0.67324439200E-01 -0.18211043719E-01  0.10841685915E+00  0.13051459773E+00  0.20386825282E-01 0.  0.
         14    1    1    2    0    0 -0.16006274326E-01  0.14440544920E-01  0.10409841538E-01  0.23939401752E-01  0.00000000000E+00 0.  1.
     999901    1    3    3    0    0 -0.51318164873E-01  0.37704987996E-02 -0.11882670069E+00  0.88947600052E+00  0.88000000000E+00 0. -1.
        -11    1    4    4    0    0  0.35226635911E-01 -0.92981782931E-02  0.38178357963E-01  0.52775184840E-01  0.51100000000E-03 0.  1.
         11    1    4    4    0    0  0.32097803289E-01 -0.89128654264E-02  0.70238501186E-01  0.77739412887E-01  0.51100000000E-03 0. -1.
</event>
<event>
 8    1  0.1106168E+005  0.1043930E+01  0.7957747E-01            NaN
         13   -1    0    0    0    0  0.00000000000E+00  0.00000000000E+00  0.74505805969E-08  0.10566000000E+00  0.10566000000E+00 0.  1.
     999900   -1    0    0    0    0 -0.00000000000E+00 -0.00000000000E+00 -0.74505805969E-08  0.93827000000E+00  0.93827000000E+00 0.  1.
     999902    2    1    2    0    0  0.78269677829E-02  0.10871798502E-01 -0.19660895652E-01  0.10201390722E+01  0.10198616173E+01 0.  0.
     999903    2    3    3    0    0  0.45899612742E-01 -0.11300927511E+00 -0.41534547062E-01  0.13037814740E+00  0.19886478069E-01 0.  0.
         14    1    1    2    0    0 -0.78269677829E-02 -0.10871798502E-01  0.19660895652E-01  0.23790927791E-01  0.00000000000E+00 0. -1.
     999901    1    3    3    0    0 -0.38072644959E-01  0.12388107361E+00  0.21873651410E-01  0.88976092481E+00  0.88000000000E+00 0. -1.
        -11    1    4    4    0    0  0.29838559600E-01 -0.47941217250E-01 -0.16495613355E-01  0.58830828070E-01  0.51100000000E-03 0.  1.
         11    1    4    4    0    0  0.16061053142E-01 -0.65068057855E-01 -0.25038933707E-01  0.71547319330E-01  0.51100000000E-03 0. -1.
</event>
<event>
 8    1  0.1106168E+005  0.1043930E+01  0.7957747E-01            NaN
         13   -1    0    0    0    0  0.00000000000E+00  0.00000000000E+00  0.74505805969E-08  0.10566000000E+00  0.10566000000E+00 0. -1.
     999900   -1    0    0    0    0 -0.00000000000E+00 -0.00000000000E+00 -0.74505805969E-08  0.93827000000E+00  0.93827000000E+00 0.  1.
     999902    2    1    2    0    0 -0.14418810952E-02 -0.80091027767E-02  0.11597908301E-01  0.10297618588E+01  0.10296643869E+01 0.  0.
     999903    2    3    3    0    0 -0.51012820045E-01  0.12664923629E+00  0.58992765962E-02  0.13812144883E+00  0.20009905076E-01 0.  0.
         14    1    1    2    0    0  0.14418810952E-02  0.80091027767E-02 -0.11597908301E-01  0.14168141210E-01  0.00000000000E+00 0.  1.
     999901    1    3    3    0    0  0.49570938950E-01 -0.13465833907E+00  0.56986317048E-02  0.89164040996E+00  0.88000000000E+00 0. -1.
        -11    1    4    4    0    0 -0.42202468938E-01  0.85309267002E-01  0.97406227839E-02  0.95675808197E-01  0.51100000000E-03 0.  1.
         11    1    4    4    0    0 -0.88103511073E-02  0.41339969288E-01 -0.38413461876E-02  0.42445640634E-01  0.51100000000E-03 0. -1.
</event>
<event>
 8    1  0.1106168E+005  0.1043930E+01  0.7957747E-01            NaN
         13   -1    0    0    0    0  0.00000000000E+00  0.00000000000E+00  0.74505805969E-08  0.10566000000E+00  0.10566000000E+00 0. -1.
     999900   -1    0    0    0    0 -0.00000000000E+00 -0.00000000000E+00 -0.74505805969E-08  0.93827000000E+00  0.93827000000E+00 0.  1.
     999902    2    1    2    0    0 -0.20935526917E-01 -0.88221139912E-02  0.51803936372E-02  0.10206284451E+01  0.10203624162E+01 0.  0.
     999903    2    3    3    0    0  0.16831997438E-01  0.12673450049E+00 -0.25137595208E-02  0.12941512517E+00  0.19925006469E-01 0.  0.
         14    1    1    2    0    0  0.20935526917E-01  0.88221139912E-02 -0.51803936372E-02  0.23301554901E-01  0.00000000000E+00 0. -1.
     999901    1    3    3    0    0 -0.37767524355E-01 -0.13555661448E+00  0.76941531580E-02  0.89121331993E+00  0.88000000000E+00 0. -1.
        -11    1    4    4    0    0  0.90240564945E-02  0.32649242879E-01 -0.81266901256E-02  0.34838353428E-01  0.51100000000E-03 0.  1.
         11    1    4    4    0    0  0.78079409431E-02  0.94085257614E-01  0.56129306048E-02  0.94576771741E-01  0.51100000000E-03 0. -1.
</event>
<event>
 8    1  0.1106168E+005  0.1043930E+01  0.7957747E-01            NaN
         13   -1    0    0    0    0  0.00000000000E+00  0.00000000000E+00  0.74505805969E-08  0.10566000000E+00  0.10566000000E+00 0. -1.
     999900   -1    0    0    0    0 -0.00000000000E+00 -0.00000000000E+00 -0.74505805969E-08  0.93827000000E+00  0.93827000000E+00 0. -1.
     999902    2    1    2    0    0 -0.15651285034E-01 -0.16089967726E-01  0.75636052970E-02  0.10202433390E+01  0.10199683391E+01 0.  0.
     999903    2    3    3    0    0 -0.12918791031E+00 -0.10916934338E-01 -0.19705943155E-01  0.13251536612E+00  0.19060494070E-01 0.  0.
         14    1    1    2    0    0  0.15651285034E-01  0.16089967726E-01 -0.75636052970E-02  0.23686661009E-01  0.00000000000E+00 0.  1.
     999901    1    3    3    0    0  0.11353662528E+00 -0.51730333879E-02  0.27269548452E-01  0.88772797288E+00  0.88000000000E+00 0.  1.
        -11    1    4    4    0    0 -0.14113781941E-01  0.31611962673E-02 -0.63883680082E-02  0.15819746184E-01  0.51100000000E-03 0.  1.
         11    1    4    4    0    0 -0.11507412837E+00 -0.14078130606E-01 -0.13317575147E-01  0.11669561993E+00  0.51100000000E-03 0. -1.
</event>
<event>
 7    1  0.1106168E+005  0.1043930E+01  0.7957747E-01            NaN
         13   -1    0    0    0    0  0.00000000000E+00  0.00000000000E+00  0.74505805969E-08  0.10566000000E+00  0.10566000000E+00 0. -1.
     999900   -1    0    0    0    0 -0.00000000000E+00 -0.00000000000E+00 -0.74505805969E-08  0.93827000000E+00  0.93827000000E+00 0.  1.
     999903    2    1    2    0    0 -0.45012678984E-01 -0.64322782052E-01 -0.13984649774E-01  0.82373513539E-01  0.20646155655E-01 0.  0.
         14    1    1    2    0    0  0.54683251535E-01 -0.46607708032E-01  0.19768491204E-01  0.74520666200E-01  0.00000000000E+00 0.  1.
     999901    1    1    2    0    0 -0.96705725510E-02  0.11093049008E+00 -0.57838414300E-02  0.88703582026E+00  0.88000000000E+00 0. -1.
        -11    1    3    3    0    0 -0.36749671358E-01 -0.39088632652E-01 -0.15271800696E-01  0.55784841713E-01  0.51100000000E-03 0.  1.
         11    1    3    3    0    0 -0.82630076260E-02 -0.25234149400E-01  0.12871509222E-02  0.26588671826E-01  0.51100000000E-03 0. -1.
</event>
<event>
 8    1  0.1106168E+005  0.1043930E+01  0.7957747E-01            NaN
         13   -1    0    0    0    0  0.00000000000E+00  0.00000000000E+00  0.74505805969E-08  0.10566000000E+00  0.10566000000E+00 0.  1.
     999900   -1    0    0    0    0 -0.00000000000E+00 -0.00000000000E+00 -0.74505805969E-08  0.93827000000E+00  0.93827000000E+00 0.  1.
     999902    2    1    2    0    0  0.10915461916E-01 -0.20376776506E-01 -0.44992582848E-02  0.10203799755E+01  0.10201081760E+01 0.  0.
     999903    2    3    3    0    0 -0.74448658465E-01  0.90440651781E-01  0.47500628957E-01  0.12781539870E+00  0.18930191518E-01 0.  0.
         14    1    1    2    0    0 -0.10915461916E-01  0.20376776506E-01  0.44992582848E-02  0.23550024517E-01  0.00000000000E+00 0.  1.
     999901    1    3    3    0    0  0.85364120381E-01 -0.11081742829E+00 -0.51999887242E-01  0.89256457679E+00  0.88000000000E+00 0. -1.
        -11    1    4    4    0    0 -0.43225636848E-01  0.50583636696E-01  0.36895524042E-01  0.76083511996E-01  0.51100000000E-03 0. -1.
         11    1    4    4    0    0 -0.31223021617E-01  0.39857015085E-01  0.10605104915E-01  0.51731886701E-01  0.51100000000E-03 0.  1.
</event>
<event>
 8    1  0.1106168E+005  0.1043930E+01  0.7957747E-01            NaN
         13   -1    0    0    0    0  0.00000000000E+00  0.00000000000E+00  0.74505805969E-08  0.10566000000E+00  0.10566000000E+00 0.  1.
     999900   -1    0    0    0    0 -0.00000000000E+00 -0.00000000000E+00 -0.74505805969E-08  0.93827000000E+00  0.93827000000E+00 0.  1.
     999902    2    1    2    0    0 -0.65167593688E-02  0.69447675449E-03  0.17265840165E-01  0.10254621986E+01  0.10252958896E+01 0.  0.
     999903    2    3    3    0    0 -0.43784390588E-01 -0.12639656683E+00 -0.31533044124E-02  0.13531729405E+00  0.20190635812E-01 0.  0.
         14    1    1    2    0    0  0.65167593688E-02 -0.69447675449E-03 -0.17265840165E-01  0.18467801365E-01  0.00000000000E+00 0. -1.
     999901    1    3    3    0    0  0.37267631219E-01  0.12709104358E+00  0.20419144578E-01  0.89014490459E+00  0.88000000000E+00 0.  1.
        -11    1    4    4    0    0 -0.35790610216E-01 -0.99280605564E-01  0.56982657934E-02  0.10568981869E+00  0.51100000000E-03 0. -1.
         11    1    4    4    0    0 -0.79937803721E-02 -0.27115961266E-01 -0.88515702059E-02  0.29627475359E-01  0.51100000000E-03 0.  1.
</event>
<event>
 8    1  0.1106168E+005  0.1043930E+01  0.7957747E-01            NaN
         13   -1    0    0    0    0  0.00000000000E+00  0.00000000000E+00  0.74505805969E-08  0.10566000000E+00  0.10566000000E+00 0.  1.
     999900   -1    0    0    0    0 -0.00000000000E+00 -0.00000000000E+00 -0.74505805969E-08  0.93827000000E+00  0.93827000000E+00 0. -1.
     999902    2    1    2    0    0 -0.33447172291E-02 -0.44232395272E-02 -0.21752632235E-01  0.10214816328E+01  0.10212349372E+01 0.  0.
     999903    2    3    3    0    0 -0.12412457052E+00  0.47654953706E-02  0.37873810993E-01  0.13118532338E+00  0.18588828855E-01 0.  0.
         14    1    1    2    0    0  0.33447172291E-02  0.44232395272E-02  0.21752632235E-01  0.22448367210E-01  0.00000000000E+00 0.  1.
     999901    1    3    3    0    0  0.12077985329E+00 -0.91887348979E-02 -0.59626443228E-01  0.89029630941E+00  0.88000000000E+00 0.  1.
        -11    1    4    4    0    0 -0.19481902971E-01  0.75802062038E-02  0.58074454132E-02  0.21702341180E-01  0.51100000000E-03 0.  1.
         11    1    4    4    0    0 -0.10464266755E+00 -0.28147108332E-02  0.32066365579E-01  0.10948298220E+00  0.51100000000E-03 0. -1.
</event>
<event>
 8    1  0.1106168E+005  0.1043930E+01  0.7957747E-01            NaN
         13   -1    0    0    0    0  0.00000000000E+00  0.00000000000E+00  0.74505805969E-08  0.10566000000E+00  0.10566000000E+00 0.  1.
     999900   -1    0    0    0    0 -0.00000000000E+00 -0.00000000000E+00 -0.74505805969E-08  0.93827000000E+00  0.93827000000E+00 0. -1.
     999902    2    1    2    0    0 -0.21661533217E-01  0.70051148073E-02 -0.63179638802E-02  0.10203035250E+01  0.10200299372E+01 0.  0.
     999903    2    3    3    0    0  0.10436437198E-01  0.41310424744E-01 -0.12269335008E+00  0.13139950062E+00  0.19917334004E-01 0.  0.
         14    1    1    2    0    0  0.21661533217E-01 -0.70051148073E-02  0.63179638802E-02  0.23626475031E-01  0.00000000000E+00 0. -1.
     999901    1    3    3    0    0 -0.32097970415E-01 -0.34305309937E-01  0.11637538620E+00  0.88890402435E+00  0.88000000000E+00 0.  1.
        -11    1    4    4    0    0  0.12138667988E-01  0.15346152147E-01 -0.37233268832E-01  0.42064582194E-01  0.51100000000E-03 0. -1.
         11    1    4    4    0    0 -0.17022307905E-02  0.25964272597E-01 -0.85460081252E-01  0.89334918423E-01  0.51100000000E-03 0.  1.
</event>
<event>
 8    1  0.1118609E+005  0.1043930E+01  0.7957747E-01            NaN
         13   -1    0    0    0    0  0.00000000000E+00  0.00000000000E+00  0.74505805969E-08  0.10566000000E+00  0.10566000000E+00 0.  1.
     999900   -1    0    0    0    0 -0.00000000000E+00 -0.00000000000E+00 -0.74505805969E-08  0.93827000000E+00  0.93827000000E+00 0.  1.
     999902    2    1    2    0    0  0.17332963644E-01 -0.36629504693E-02  0.16262280539E-01  0.10198819106E+01  0.10195983528E+01 0.  0.
     999903    2    3    3    0    0  0.71389712149E-01  0.20375578343E-01  0.10883173538E+00  0.13305098710E+00  0.18616211991E-01 0.  0.
         14    1    1    2    0    0 -0.17332963644E-01  0.36629504693E-02 -0.16262280539E-01  0.24048089387E-01  0.00000000000E+00 0. -1.
     999901    1    3    3    0    0 -0.54056748505E-01 -0.24038528812E-01 -0.92569454843E-01  0.88683092351E+00  0.88000000000E+00 0. -1.
        -11    1    4    4    0    0  0.17176803838E-01  0.69672811835E-02  0.42299607204E-01  0.46185533317E-01  0.51100000000E-03 0.  1.
         11    1    4    4    0    0  0.54212908312E-01  0.13408297160E-01  0.66532128178E-01  0.86865453785E-01  0.51100000000E-03 0. -1.
</event>
<event>
 8    1  0.1106168E+005  0.1043930E+01  0.7957747E-01            NaN
         13   -1    0    0    0    0  0.00000000000E+00  0.00000000000E+00  0.74505805969E-08  0.10566000000E+00  0.10566000000E+00 0.  1.
     999900   -1    0    0    0    0 -0.00000000000E+00 -0.00000000000E+00 -0.74505805969E-08  0.93827000000E+00  0.93827000000E+00 0. -1.
     999902    2    1    2    0    0  0.46715091970E-03 -0.20262632681E-02  0.23142747626E-01  0.10206940206E+01  0.10204295041E+01 0.  0.
     999903    2    3    3    0    0  0.11156082086E+00  0.54571365362E-01 -0.33580012630E-01  0.13009727309E+00  0.19334749812E-01 0.  0.
         14    1    1    2    0    0 -0.46715091970E-03  0.20262632681E-02 -0.23142747626E-01  0.23235979439E-01  0.00000000000E+00 0. -1.
     999901    1    3    3    0    0 -0.11109366994E+00 -0.56597628630E-01  0.56722760256E-01  0.89059674747E+00  0.88000000000E+00 0. -1.
        -11    1    4    4    0    0  0.10616117583E+00  0.53932377610E-01 -0.35584768839E-01  0.12427965844E+00  0.51100000000E-03 0. -1.
         11    1    4    4    0    0  0.53996450289E-02  0.63898775245E-03  0.20047562091E-02  0.58176146524E-02  0.51100000000E-03 0.  1.
</event>
<event>
 8    1  0.1106168E+005  0.1043930E+01  0.7957747E-01            NaN
         13   -1    0    0    0    0  0.00000000000E+00  0.00000000000E+00  0.74505805969E-08  0.10566000000E+00  0.10566000000E+00 0. -1.
     999900   -1    0    0    0    0 -0.00000000000E+00 -0.00000000000E+00 -0.74505805969E-08  0.93827000000E+00  0.93827000000E+00 0. -1.
     999902    2    1    2    0    0 -0.28822384148E-02 -0.22065679943E-01  0.74594423961E-02  0.10204599167E+01  0.10201899807E+01 0.  0.
     999903    2    3    3    0    0 -0.90259056244E-01  0.86877756196E-01 -0.22569625919E-01  0.12894147857E+00  0.20544467027E-01 0.  0.
         14    1    1    2    0    0  0.28822384148E-02  0.22065679943E-01 -0.74594423961E-02  0.23470083308E-01  0.00000000000E+00 0.  1.
     999901    1    3    3    0    0  0.87376817830E-01 -0.10894343614E+00  0.30029068315E-01  0.89151843812E+00  0.88000000000E+00 0. -1.
        -11    1    4    4    0    0 -0.58887984173E-01  0.68269813305E-01 -0.11947265283E-01  0.90948119042E-01  0.51100000000E-03 0.  1.
         11    1    4    4    0    0 -0.31371072072E-01  0.18607942891E-01 -0.10622360636E-01  0.37993359526E-01  0.51100000000E-03 0. -1.
</event>
<event>
 8    1  0.1106168E+005  0.1043930E+01  0.7957747E-01            NaN
         13   -1    0    0    0    0  0.00000000000E+00  0.00000000000E+00  0.74505805969E-08  0.10566000000E+00  0.10566000000E+00 0.  1.
     999900   -1    0    0    0    0 -0.00000000000E+00 -0.00000000000E+00 -0.74505805969E-08  0.93827000000E+00  0.93827000000E+00 0. -1.
     999902    2    1    2    0    0 -0.74431599822E-02  0.11428880374E-01  0.19713382063E-01  0.10199584049E+01  0.10196766696E+01 0.  0.
     999903    2    3    3    0    0  0.11002865021E+00 -0.60194443568E-01 -0.19286754750E-01  0.12841449835E+00  0.19713690008E-01 0.  0.
         14    1    1    2    0    0  0.74431599822E-02 -0.11428880374E-01 -0.19713382063E-01  0.23971595055E-01  0.00000000000E+00 0. -1.
     999901    1    3    3    0    0 -0.11747181019E+00  0.71623323942E-01  0.39000136813E-01  0.89154390660E+00  0.88000000000E+00 0.  1.
        -11    1    4    4    0    0  0.20025687027E-01 -0.19908690400E-01 -0.64891422198E-02  0.28978512420E-01  0.51100000000E-03 0. -1.
         11    1    4    4    0    0  0.90002963180E-01 -0.40285753169E-01 -0.12797612530E-01  0.99435985926E-01  0.51100000000E-03 0.  1.
</event>
<event>
 8    1  0.1106168E+005  0.1043930E+01  0.7957747E-01            NaN
         13   -1    0    0    0    0  0.00000000000E+00  0.00000000000E+00  0.74505805969E-08  0.10566000000E+00  0.10566000000E+00 0.  1.
     999900   -1    0    0    0    0 -0.00000000000E+00 -0.00000000000E+00 -0.74505805969E-08  0.93827000000E+00  0.93827000000E+00 0. -1.
     999902    2    1    2    0    0 -0.49333729718E-02 -0.22795561103E-01 -0.45608598909E-02  0.10201649581E+01  0.10198881137E+01 0.  0.
     999903    2    3    3    0    0  0.73615829073E-01  0.10132588649E+00 -0.16599013824E-01  0.12790881321E+00  0.19972773318E-01 0.  0.
         14    1    1    2    0    0  0.49333729718E-02  0.22795561103E-01  0.45608598909E-02  0.23765041928E-01  0.00000000000E+00 0.  1.
     999901    1    3    3    0    0 -0.78549202045E-01 -0.12412144759E+00  0.12038153933E-01  0.89225614486E+00  0.88000000000E+00 0. -1.
        -11    1    4    4    0    0  0.28420129653E-01  0.55102866158E-01 -0.11493464839E-01  0.63058627351E-01  0.51100000000E-03 0.  1.
         11    1    4    4    0    0  0.45195699420E-01  0.46223020330E-01 -0.51055489847E-02  0.64850185859E-01  0.51100000000E-03 0. -1.
</event>
<event>
 8    1  0.1106168E+005  0.1043930E+01  0.7957747E-01            NaN
         13   -1    0    0    0    0  0.00000000000E+00  0.00000000000E+00  0.74505805969E-08  0.10566000000E+00  0.10566000000E+00 0. -1.
     999900   -1    0    0    0    0 -0.00000000000E+00 -0.00000000000E+00 -0.74505805969E-08  0.93827000000E+00  0.93827000000E+00 0.  1.
     999902    2    1    2    0    0 -0.41769262915E-02 -0.13279467004E-01  0.19470910299E-01  0.10199945179E+01  0.10197136408E+01 0.  0.
     999903    2    3    3    0    0 -0.94619573762E-01  0.70846032168E-01 -0.47262285868E-01  0.12886585624E+00  0.20016523855E-01 0.  0.
         14    1    1    2    0    0  0.41769262915E-02  0.13279467004E-01 -0.19470910299E-01  0.23935482134E-01  0.00000000000E+00 0.  1.
     999901    1    3    3    0    0  0.90442647471E-01 -0.84125499172E-01  0.66733196166E-01  0.89112866162E+00  0.88000000000E+00 0. -1.
        -11    1    4    4    0    0 -0.52856890788E-01  0.49567041712E-01 -0.22638925347E-01  0.75917880566E-01  0.51100000000E-03 0.  1.
         11    1    4    4    0    0 -0.41762682974E-01  0.21278990456E-01 -0.24623360521E-01  0.52947975678E-01  0.51100000000E-03 0. -1.
</event>
<event>
 8    1  0.1106168E+005  0.1043930E+01  0.7957747E-01            NaN
         13   -1    0    0    0    0  0.00000000000E+00  0.00000000000E+00  0.74505805969E-08  0.10566000000E+00  0.10566000000E+00 0. -1.
     999900   -1    0    0    0    0 -0.00000000000E+00 -0.00000000000E+00 -0.74505805969E-08  0.93827000000E+00  0.93827000000E+00 0. -1.
     999902    2    1    2    0    0  0.21111952019E-01 -0.36494645180E-02 -0.89242916775E-02  0.10207206034E+01  0.10204566988E+01 0.  0.
     999903    2    3    3    0    0 -0.12455686740E+00  0.96323939347E-02  0.20169509774E-01  0.12817241869E+00  0.20351008818E-01 0.  0.
         14    1    1    2    0    0 -0.21111952019E-01  0.36494645180E-02  0.89242916775E-02  0.23209396616E-01  0.00000000000E+00 0. -1.
     999901    1    3    3    0    0  0.14566881942E+00 -0.13281858453E-01 -0.29093801451E-01  0.89254818469E+00  0.88000000000E+00 0.  1.
        -11    1    4    4    0    0 -0.79156919082E-01  0.15771596653E-01  0.11220714545E-01  0.81490653792E-01  0.51100000000E-03 0. -1.
         11    1    4    4    0    0 -0.45399948317E-01 -0.61392027188E-02  0.89487952290E-02  0.46681764900E-01  0.51100000000E-03 0.  1.
</event>
<event>
 8    1  0.1106168E+005  0.1043930E+01  0.7957747E-01            NaN
         13   -1    0    0    0    0  0.00000000000E+00  0.00000000000E+00  0.74505805969E-08  0.10566000000E+00  0.10566000000E+00 0. -1.
     999900   -1    0    0    0    0 -0.00000000000E+00 -0.00000000000E+00 -0.74505805969E-08  0.93827000000E+00  0.93827000000E+00 0.  1.
     999902    2    1    2    0    0 -0.17582772074E-01  0.52127337218E-02  0.89300961435E-02  0.10235321304E+01  0.10233288567E+01 0.  0.
     999903    2    3    3    0    0 -0.70307900868E-01 -0.76658133487E-01  0.83128058211E-01  0.13505696718E+00  0.22592918525E-01 0.  0.
         14    1    1    2    0    0  0.17582772074E-01 -0.52127337218E-02 -0.89300961435E-02  0.20397869590E-01  0.00000000000E+00 0.  1.
     999901    1    3    3    0    0  0.52725128794E-01  0.81870867209E-01 -0.74197962067E-01  0.88847516323E+00  0.88000000000E+00 0.  1.
        -11    1    4    4    0    0 -0.44555711996E-01 -0.49417813746E-01  0.66405449647E-01  0.94006790450E-01  0.51100000000E-03 0.  1.
         11    1    4    4    0    0 -0.25752188872E-01 -0.27240319741E-01  0.16722608564E-01  0.41050176729E-01  0.51100000000E-03 0. -1.
</event>
<event>
 8    1  0.1106168E+005  0.1043930E+01  0.7957747E-01            NaN
         13   -1    0    0    0    0  0.00000000000E+00  0.00000000000E+00  0.74505805969E-08  0.10566000000E+00  0.10566000000E+00 0. -1.
     999900   -1    0    0    0    0 -0.00000000000E+00 -0.00000000000E+00 -0.74505805969E-08  0.93827000000E+00  0.93827000000E+00 0.  1.
     999902    2    1    2    0    0 -0.20942918944E-01 -0.10059907265E-01 -0.40600553108E-02  0.10203441645E+01  0.10200715281E+01 0.  0.
     999903    2    3    3    0    0  0.27652364097E-01 -0.41431659875E-01  0.11827513812E+00  0.13000064204E+00  0.20734583493E-01 0.  0.
         14    1    1    2    0    0  0.20942918944E-01  0.10059907265E-01  0.40600553108E-02  0.23585835520E-01  0.00000000000E+00 0. -1.
     999901    1    3    3    0    0 -0.48595283041E-01  0.31371752610E-01 -0.12233519344E+00  0.89034352244E+00  0.88000000000E+00 0. -1.
        -11    1    4    4    0    0  0.30830914765E-01 -0.37482095153E-01  0.10224551830E+00  0.11318065159E+00  0.51100000000E-03 0.  1.
         11    1    4    4    0    0 -0.31785506685E-02 -0.39495647217E-02  0.16029619826E-01  0.16819990446E-01  0.51100000000E-03 0. -1.
</event>
<event>
 8    1  0.1106168E+005  0.1043930E+01  0.7957747E-01            NaN
         13   -1    0    0    0    0  0.00000000000E+00  0.00000000000E+00  0.74505805969E-08  0.10566000000E+00  0.10566000000E+00 0.  1.
     999900   -1    0    0    0    0 -0.00000000000E+00 -0.00000000000E+00 -0.74505805969E-08  0.93827000000E+00  0.93827000000E+00 0. -1.
     999902    2    1    2    0    0 -0.19290951948E-01 -0.12899268894E-01  0.33566230495E-02  0.10204822094E+01  0.10202127919E+01 0.  0.
     999903    2    3    3    0    0  0.17824016670E-01  0.71203923394E-01 -0.10446446568E+00  0.12914823440E+00  0.19461438330E-01 0.  0.
         14    1    1    2    0    0  0.19290951948E-01  0.12899268894E-01 -0.33566230495E-02  0.23447790586E-01  0.00000000000E+00 0.  1.
     999901    1    3    3    0    0 -0.37114968618E-01 -0.84103192287E-01  0.10782108872E+00  0.89133397502E+00  0.88000000000E+00 0.  1.
        -11    1    4    4    0    0  0.16987335432E-02  0.42845613805E-01 -0.52460064878E-01  0.67756563121E-01  0.51100000000E-03 0. -1.
         11    1    4    4    0    0  0.16125283127E-01  0.28358309589E-01 -0.52004400797E-01  0.61391671275E-01  0.51100000000E-03 0.  1.
</event>
<event>
 8    1  0.1106168E+005  0.1043930E+01  0.7957747E-01            NaN
         13   -1    0    0    0    0  0.00000000000E+00  0.00000000000E+00  0.74505805969E-08  0.10566000000E+00  0.10566000000E+00 0. -1.
     999900   -1    0    0    0    0 -0.00000000000E+00 -0.00000000000E+00 -0.74505805969E-08  0.93827000000E+00  0.93827000000E+00 0. -1.
     999902    2    1    2    0    0  0.21733028712E-01  0.36511165995E-02 -0.12370037425E-01  0.10186580192E+01  0.10183444835E+01 0.  0.
     999903    2    3    3    0    0  0.10917845779E+00 -0.28991927861E-01  0.62207653715E-01  0.13058476575E+00  0.20545591693E-01 0.  0.
         14    1    1    2    0    0 -0.21733028712E-01 -0.36511165995E-02  0.12370037425E-01  0.25271980834E-01  0.00000000000E+00 0.  1.
     999901    1    3    3    0    0 -0.87445429080E-01  0.32643044461E-01 -0.74577691139E-01  0.88807325342E+00  0.88000000000E+00 0. -1.
        -11    1    4    4    0    0  0.73398290950E-01 -0.16800824235E-01  0.51732049712E-01  0.91356679546E-01  0.51100000000E-03 0.  1.
         11    1    4    4    0    0  0.35780166842E-01 -0.12191103626E-01  0.10475604003E-01  0.39228086203E-01  0.51100000000E-03 0. -1.
</event>
<event>
 8    1  0.1106168E+005  0.1043930E+01  0.7957747E-01            NaN
         13   -1    0    0    0    0  0.00000000000E+00  0.00000000000E+00  0.74505805969E-08  0.10566000000E+00  0.10566000000E+00 0.  1.
     999900   -1    0    0    0    0 -0.00000000000E+00 -0.00000000000E+00 -0.74505805969E-08  0.93827000000E+00  0.93827000000E+00 0. -1.
     999902    2    1    2    0    0 -0.14951344434E-01  0.11264431695E-01 -0.47353452971E-02  0.10246205822E+01  0.10244386189E+01 0.  0.
     999903    2    3    3    0    0  0.72382383183E-01 -0.10176398533E+00  0.38885747109E-01  0.13203702713E+00  0.18070890943E-01 0.  0.
         14    1    1    2    0    0  0.14951344434E-01 -0.11264431695E-01  0.47353452971E-02  0.19309417828E-01  0.00000000000E+00 0.  1.
     999901    1    3    3    0    0 -0.87333727617E-01  0.11302841702E+00 -0.43621092406E-01  0.89258355504E+00  0.88000000000E+00 0. -1.
        -11    1    4    4    0    0  0.43562171000E-01 -0.56060469389E-01  0.13223931554E-01  0.72218920354E-01  0.51100000000E-03 0.  1.
         11    1    4    4    0    0  0.28820212183E-01 -0.45703515938E-01  0.25661815555E-01  0.59818106773E-01  0.51100000000E-03 0. -1.
</event>
<event>
 8    1  0.1106168E+005  0.1043930E+01  0.7957747E-01            NaN
         13   -1    0    0    0    0  0.00000000000E+00  0.00000000000E+00  0.74505805969E-08  0.10566000000E+00  0.10566000000E+00 0.  1.
     999900   -1    0    0    0    0 -0.00000000000E+00 -0.00000000000E+00 -0.74505805969E-08  0.93827000000E+00  0.93827000000E+00 0.  1.
     999902    2    1    2    0    0  0.11726272002E-01 -0.14975470228E-01 -0.14281476383E-01  0.10201449053E+01  0.10198675880E+01 0.  0.
     999903    2    3    3    0    0  0.62890637973E-01  0.63738163091E-01 -0.94473349089E-01  0.13152554645E+00  0.18867164680E-01 0.  0.
         14    1    1    2    0    0 -0.11726272002E-01  0.14975470228E-01  0.14281476383E-01  0.23785094729E-01  0.00000000000E+00 0.  1.
     999901    1    3    3    0    0 -0.51164365971E-01 -0.78713633319E-01  0.80191872706E-01  0.88861935882E+00  0.88000000000E+00 0. -1.
        -11    1    4    4    0    0  0.42203817682E-01  0.46066251691E-01 -0.53043829399E-01  0.81958347532E-01  0.51100000000E-03 0.  1.
         11    1    4    4    0    0  0.20686820291E-01  0.17671911400E-01 -0.41429519690E-01  0.49567198923E-01  0.51100000000E-03 0. -1.
</event>
<event>
 8    1  0.1106168E+005  0.1043930E+01  0.7957747E-01            NaN
         13   -1    0    0    0    0  0.00000000000E+00  0.00000000000E+00  0.74505805969E-08  0.10566000000E+00  0.10566000000E+00 0.  1.
     999900   -1    0    0    0    0 -0.00000000000E+00 -0.00000000000E+00 -0.74505805969E-08  0.93827000000E+00  0.93827000000E+00 0. -1.
     999902    2    1    2    0    0 -0.15375334113E-01 -0.16332953223E-01 -0.78518038235E-02  0.10201641193E+01  0.10198872552E+01 0.  0.
     999903    2    3    3    0    0  0.58506646225E-01  0.10609673527E+00 -0.35459677763E-01  0.12819451765E+00  0.22291270033E-01 0.  0.
         14    1    1    2    0    0  0.15375334113E-01  0.16332953223E-01  0.78518038235E-02  0.23765880656E-01  0.00000000000E+00 0.  1.
     999901    1    3    3    0    0 -0.73881980338E-01 -0.12242968850E+00  0.27607873940E-01  0.89196960169E+00  0.88000000000E+00 0. -1.
        -11    1    4    4    0    0  0.51349538712E-01  0.72877625864E-01 -0.23954929733E-01  0.92314805188E-01  0.51100000000E-03 0.  1.
         11    1    4    4    0    0  0.71571075134E-02  0.33219109411E-01 -0.11504748030E-01  0.35879712460E-01  0.51100000000E-03 0. -1.
</event>
<event>
 8    1  0.1106168E+005  0.1043930E+01  0.7957747E-01            NaN
         13   -1    0    0    0    0  0.00000000000E+00  0.00000000000E+00  0.74505805969E-08  0.10566000000E+00  0.10566000000E+00 0. -1.
     999900   -1    0    0    0    0 -0.00000000000E+00 -0.00000000000E+00 -0.74505805969E-08  0.93827000000E+00  0.93827000000E+00 0. -1.
     999902    2    1    2    0    0  0.17662498665E-01 -0.11867983219E-01  0.93643025697E-02  0.10206812786E+01  0.10204164686E+01 0.  0.
     999903    2    3    3    0    0  0.12522794258E+00 -0.29686965215E-01 -0.20541921713E-01  0.13344837619E+00  0.28690504574E-01 0.  0.
         14    1    1    2    0    0 -0.17662498665E-01  0.11867983219E-01 -0.93643025697E-02  0.23248721414E-01  0.00000000000E+00 0. -1.
     999901    1    3    3    0    0 -0.10756544392E+00  0.17818981996E-01  0.29906224283E-01  0.88723290240E+00  0.88000000000E+00 0. -1.
        -11    1    4    4    0    0  0.11586161630E+00 -0.34360666816E-01 -0.22095500483E-01  0.12285374157E+00  0.51100000000E-03 0. -1.
         11    1    4    4    0    0  0.93663262851E-02  0.46737016004E-02  0.15535787697E-02  0.10594634620E-01  0.51100000000E-03 0.  1.
</event>
<event>
 7    1  0.1106168E+005  0.1043930E+01  0.7957747E-01            NaN
         13   -1    0    0    0    0  0.00000000000E+00  0.00000000000E+00  0.74505805969E-08  0.10566000000E+00  0.10566000000E+00 0.  1.
     999900   -1    0    0    0    0 -0.00000000000E+00 -0.00000000000E+00 -0.74505805969E-08  0.93827000000E+00  0.93827000000E+00 0.  1.
     999903    2    1    2    0    0  0.70756395359E-01  0.51198997707E-01  0.79114957859E-01  0.11938322516E+00  0.19114733659E-01 0.  0.
         14    1    1    2    0    0 -0.23049867538E-01 -0.32272673803E-01 -0.37278193366E-02  0.39833635346E-01  0.00000000000E+00 0.  1.
     999901    1    1    2    0    0 -0.47706527821E-01 -0.18926323904E-01 -0.75387138522E-01  0.88471313949E+00  0.88000000000E+00 0. -1.
        -11    1    3    3    0    0  0.15098482065E-01  0.17135190189E-01  0.12122578652E-01  0.25861108593E-01  0.51100000000E-03 0. -1.
         11    1    3    3    0    0  0.55657913294E-01  0.34063807518E-01  0.66992379207E-01  0.93522116570E-01  0.51100000000E-03 0.  1.
</event>
<event>
 8    1  0.1106168E+005  0.1043930E+01  0.7957747E-01            NaN
         13   -1    0    0    0    0  0.00000000000E+00  0.00000000000E+00  0.74505805969E-08  0.10566000000E+00  0.10566000000E+00 0. -1.
     999900   -1    0    0    0    0 -0.00000000000E+00 -0.00000000000E+00 -0.74505805969E-08  0.93827000000E+00  0.93827000000E+00 0.  1.
     999902    2    1    2    0    0 -0.52876861680E-02 -0.98567335490E-02 -0.25420066277E-01  0.10161578090E+01  0.10157782230E+01 0.  0.
     999903    2    3    3    0    0  0.48714353930E-01 -0.73851686595E-01 -0.92632239427E-01  0.12963141317E+00  0.19910088090E-01 0.  0.
         14    1    1    2    0    0  0.52876861680E-02  0.98567335490E-02  0.25420066277E-01  0.27772190961E-01  0.00000000000E+00 0. -1.
     999901    1    3    3    0    0 -0.54002040098E-01  0.63994953046E-01  0.67212173149E-01  0.88652639587E+00  0.88000000000E+00 0. -1.
        -11    1    4    4    0    0  0.38742953559E-02 -0.98311979101E-02 -0.21430865700E-01  0.23899910931E-01  0.51100000000E-03 0. -1.
         11    1    4    4    0    0  0.44840058574E-01 -0.64020488685E-01 -0.71201373727E-01  0.10573150224E+00  0.51100000000E-03 0.  1.
</event>
<event>
 8    1  0.1106168E+005  0.1043930E+01  0.7957747E-01            NaN
         13   -1    0    0    0    0  0.00000000000E+00  0.00000000000E+00  0.74505805969E-08  0.10566000000E+00  0.10566000000E+00 0. -1.
     999900   -1    0    0    0    0 -0.00000000000E+00 -0.00000000000E+00 -0.74505805969E-08  0.93827000000E+00  0.93827000000E+00 0.  1.
     999902    2    1    2    0    0  0.20908567497E-02  0.22556119666E-01 -0.65118388337E-02  0.10203598014E+01  0.10200875306E+01 0.  0.
     999903    2    3    3    0    0  0.11000332200E+00  0.63054998913E-01  0.29816311199E-01  0.13210027072E+00  0.22018296314E-01 0.  0.
         14    1    1    2    0    0 -0.20908567497E-02 -0.22556119666E-01  0.65118388337E-02  0.23570198585E-01  0.00000000000E+00 0. -1.
     999901    1    3    3    0    0 -0.10791246525E+00 -0.40498879247E-01 -0.36328150032E-01  0.88825953069E+00  0.88000000000E+00 0. -1.
        -11    1    4    4    0    0  0.25519665924E-01  0.25023676213E-01  0.12345996363E-01  0.37816960048E-01  0.51100000000E-03 0. -1.
         11    1    4    4    0    0  0.84483656079E-01  0.38031322700E-01  0.17470314835E-01  0.94283310677E-01  0.51100000000E-03 0.  1.
</event>
<event>
 8    1  0.1106168E+005  0.1043930E+01  0.7957747E-01            NaN
         13   -1    0    0    0    0  0.00000000000E+00  0.00000000000E+00  0.74505805969E-08  0.10566000000E+00  0.10566000000E+00 0.  1.
     999900   -1    0    0    0    0 -0.00000000000E+00 -0.00000000000E+00 -0.74505805969E-08  0.93827000000E+00  0.93827000000E+00 0.  1.
     999902    2    1    2    0    0  0.54813322134E-03  0.42456803172E-02 -0.24131038185E-01  0.10194221797E+01  0.10191275422E+01 0.  0.
     999903    2    3    3    0    0  0.48557627043E-01  0.70754891773E-01  0.92684946398E-01  0.12792099578E+00  0.20228297452E-01 0.  0.
         14    1    1    2    0    0 -0.54813322134E-03 -0.42456803172E-02  0.24131038185E-01  0.24507820288E-01  0.00000000000E+00 0.  1.
     999901    1    3    3    0    0 -0.48009493821E-01 -0.66509211455E-01 -0.11681598458E+00  0.89150118394E+00  0.88000000000E+00 0. -1.
        -11    1    4    4    0    0  0.13618459051E-01  0.35887229150E-01  0.34450528391E-01  0.51579605179E-01  0.51100000000E-03 0. -1.
         11    1    4    4    0    0  0.34939167992E-01  0.34867662622E-01  0.58234418007E-01  0.76341390597E-01  0.51100000000E-03 0.  1.
</event>
<event>
 8    1  0.1106168E+005  0.1043930E+01  0.7957747E-01            NaN
         13   -1    0    0    0    0  0.00000000000E+00  0.00000000000E+00  0.74505805969E-08  0.10566000000E+00  0.10566000000E+00 0. -1.
     999900   -1    0    0    0    0 -0.00000000000E+00 -0.00000000000E+00 -0.74505805969E-08  0.93827000000E+00  0.93827000000E+00 0. -1.
     999902    2    1    2    0    0 -0.56175493298E-02  0.13858681553E-01  0.18184269916E-01  0.10203866870E+01  0.10201150442E+01 0.  0.
     999903    2    3    3    0    0  0.74186751335E-01  0.63810940903E-01 -0.82777332079E-01  0.12962454158E+00  0.19362975559E-01 0.  0.
         14    1    1    2    0    0  0.56175493298E-02 -0.13858681553E-01 -0.18184269916E-01  0.23543313005E-01  0.00000000000E+00 0.  1.
     999901    1    3    3    0    0 -0.79804300664E-01 -0.49952259350E-01  0.10096160200E+00  0.89076214541E+00  0.88000000000E+00 0.  1.
        -11    1    4    4    0    0  0.33466258136E-01  0.39228949400E-01 -0.50229603508E-01  0.71987325928E-01  0.51100000000E-03 0. -1.
         11    1    4    4    0    0  0.40720493199E-01  0.24581991503E-01 -0.32547728571E-01  0.57637215657E-01  0.51100000000E-03 0.  1.
</event>
<event>
 8    1  0.1106168E+005  0.1043930E+01  0.7957747E-01            NaN
         13   -1    0    0    0    0  0.00000000000E+00  0.00000000000E+00  0.74505805969E-08  0.10566000000E+00  0.10566000000E+00 0. -1.
     999900   -1    0    0    0    0 -0.00000000000E+00 -0.00000000000E+00 -0.74505805969E-08  0.93827000000E+00  0.93827000000E+00 0. -1.
     999902    2    1    2    0    0  0.16719556837E-01 -0.16148787924E-01 -0.31307788808E-02  0.10204751773E+01  0.10202055963E+01 0.  0.
     999903    2    3    3    0    0  0.83191965167E-01 -0.65549826409E-03 -0.10116432794E+00  0.13240468468E+00  0.19376442657E-01 0.  0.
         14    1    1    2    0    0 -0.16719556837E-01  0.16148787924E-01  0.31307788808E-02  0.23454822716E-01  0.00000000000E+00 0.  1.
     999901    1    3    3    0    0 -0.66472408330E-01 -0.15493289660E-01  0.98033549064E-01  0.88807049261E+00  0.88000000000E+00 0.  1.
        -11    1    4    4    0    0  0.48530417995E-01 -0.13787673593E-02 -0.43874615677E-01  0.65439632425E-01  0.51100000000E-03 0. -1.
         11    1    4    4    0    0  0.34661547173E-01  0.72326909519E-03 -0.57289712268E-01  0.66965052254E-01  0.51100000000E-03 0.  1.
</event>
<event>
 8    1  0.1106168E+005  0.1043930E+01  0.7957747E-01            NaN
         13   -1    0    0    0    0  0.00000000000E+00  0.00000000000E+00  0.74505805969E-08  0.10566000000E+00  0.10566000000E+00 0. -1.
     999900   -1    0    0    0    0 -0.00000000000E+00 -0.00000000000E+00 -0.74505805969E-08  0.93827000000E+00  0.93827000000E+00 0.  1.
     999902    2    1    2    0    0  0.17786936633E-01  0.98843460355E-02  0.11714733393E-01  0.10204500002E+01  0.10201798334E+01 0.  0.
     999903    2    3    3    0    0 -0.99041353118E-01  0.81361936940E-01 -0.16596908482E-03  0.12977663339E+00  0.20322219799E-01 0.  0.
         14    1    1    2    0    0 -0.17786936633E-01 -0.98843460355E-02 -0.11714733393E-01  0.23479999783E-01  0.00000000000E+00 0.  1.
     999901    1    3    3    0    0  0.11682828975E+00 -0.71477590905E-01  0.11880702478E-01  0.89067336683E+00  0.88000000000E+00 0. -1.
        -11    1    4    4    0    0 -0.64700128026E-01  0.41158639407E-01  0.35857534300E-02  0.76767564199E-01  0.51100000000E-03 0. -1.
         11    1    4    4    0    0 -0.34341225091E-01  0.40203297534E-01 -0.37517225148E-02  0.53009069188E-01  0.51100000000E-03 0.  1.
</event>
<event>
 8    1  0.1106168E+005  0.1043930E+01  0.7957747E-01            NaN
         13   -1    0    0    0    0  0.00000000000E+00  0.00000000000E+00  0.74505805969E-08  0.10566000000E+00  0.10566000000E+00 0. -1.
     999900   -1    0    0    0    0 -0.00000000000E+00 -0.00000000000E+00 -0.74505805969E-08  0.93827000000E+00  0.93827000000E+00 0.  1.
     999902    2    1    2    0    0  0.14857231160E-01 -0.96014943008E-03 -0.18512794001E-01  0.10201732589E+01  0.10198966102E+01 0.  0.
     999903    2    3    3    0    0 -0.31517363069E-01  0.11046196952E+00  0.55117372838E-01  0.12888941354E+00  0.19477300875E-01 0.  0.
         14    1    1    2    0    0 -0.14857231160E-01  0.96014943008E-03  0.18512794001E-01  0.23756741072E-01  0.00000000000E+00 0. -1.
     999901    1    3    3    0    0  0.46374594229E-01 -0.11142211895E+00 -0.73630166839E-01  0.89128384539E+00  0.88000000000E+00 0. -1.
        -11    1    4    4    0    0 -0.23592389984E-01  0.72018449722E-01  0.26404639168E-01  0.80254121739E-01  0.51100000000E-03 0. -1.
         11    1    4    4    0    0 -0.79249730851E-02  0.38443519796E-01  0.28712733670E-01  0.48635291801E-01  0.51100000000E-03 0.  1.
</event>
<event>
 8    1  0.1106168E+005  0.1043930E+01  0.7957747E-01            NaN
         13   -1    0    0    0    0  0.00000000000E+00  0.00000000000E+00  0.74505805969E-08  0.10566000000E+00  0.10566000000E+00 0. -1.
     999900   -1    0    0    0    0 -0.00000000000E+00 -0.00000000000E+00 -0.74505805969E-08  0.93827000000E+00  0.93827000000E+00 0. -1.
     999902    2    1    2    0    0  0.30668632226E-01  0.42103177111E-02 -0.11919024711E-01  0.10107584018E+01  0.10102139337E+01 0.  0.
     999903    2    3    3    0    0 -0.56035482646E-01  0.92217562574E-01 -0.51687023312E-01  0.12123922133E+00  0.19579230030E-01 0.  0.
         14    1    1    2    0    0 -0.30668632226E-01 -0.42103177111E-02  0.11919024711E-01  0.33171598211E-01  0.00000000000E+00 0. -1.
     999901    1    3    3    0    0  0.86704114872E-01 -0.88007244862E-01  0.39767998601E-01  0.88951918045E+00  0.88000000000E+00 0.  1.
        -11    1    4    4    0    0 -0.55683113959E-02  0.19409238294E-01 -0.38635967180E-02  0.20564851654E-01  0.51100000000E-03 0.  1.
         11    1    4    4    0    0 -0.50467171250E-01  0.72808324280E-01 -0.47823426594E-01  0.10067436968E+00  0.51100000000E-03 0. -1.
</event>
<event>
 8    1  0.1106168E+005  0.1043930E+01  0.7957747E-01            NaN
         13   -1    0    0    0    0  0.00000000000E+00  0.00000000000E+00  0.74505805969E-08  0.10566000000E+00  0.10566000000E+00 0.  1.
     999900   -1    0    0    0    0 -0.00000000000E+00 -0.00000000000E+00 -0.74505805969E-08  0.93827000000E+00  0.93827000000E+00 0.  1.
     999902    2    1    2    0    0  0.15271625740E-01  0.31910640576E-01  0.13392827526E-01  0.10061030339E+01  0.10053916826E+01 0.  0.
     999903    2    3    3    0    0  0.79221237301E-01 -0.50779070530E-01  0.68971010408E-01  0.11817506636E+00  0.18810305383E-01 0.  0.
         14    1    1    2    0    0 -0.15271625740E-01 -0.31910640576E-01 -0.13392827526E-01  0.37826966094E-01  0.00000000000E+00 0. -1.
     999901    1    3    3    0    0 -0.63949611561E-01  0.82689711106E-01 -0.55578182882E-01  0.88792796755E+00  0.88000000000E+00 0. -1.
        -11    1    4    4    0    0  0.86190881032E-02 -0.12264491382E-01  0.15664035795E-01  0.21687082952E-01  0.51100000000E-03 0.  1.
         11    1    4    4    0    0  0.70602149198E-01 -0.38514579147E-01  0.53306974613E-01  0.96487983406E-01  0.51100000000E-03 0. -1.
</event>
<event>
 8    1  0.1106168E+005  0.1043930E+01  0.7957747E-01            NaN
         13   -1    0    0    0    0  0.00000000000E+00  0.00000000000E+00  0.74505805969E-08  0.10566000000E+00  0.10566000000E+00 0.  1.
     999900   -1    0    0    0    0 -0.00000000000E+00 -0.00000000000E+00 -0.74505805969E-08  0.93827000000E+00  0.93827000000E+00 0. -1.
     999902    2    1    2    0    0  0.65451938649E-02  0.91552493195E-02  0.20434467682E-01  0.10206013562E+01  0.10203347013E+01 0.  0.
     999903    2    3    3    0    0  0.79250404275E-01 -0.95586168541E-01 -0.32304126989E-01  0.12984989163E+00  0.20002388403E-01 0.  0.
         14    1    1    2    0    0 -0.65451938649E-02 -0.91552493195E-02 -0.20434467682E-01  0.23328643816E-01  0.00000000000E+00 0.  1.
     999901    1    3    3    0    0 -0.72705210410E-01  0.10474141786E+00  0.52738594671E-01  0.89075146455E+00  0.88000000000E+00 0.  1.
        -11    1    4    4    0    0  0.17644743001E-01 -0.28964875674E-01 -0.16585268653E-01  0.37757558656E-01  0.51100000000E-03 0.  1.
         11    1    4    4    0    0  0.61605661274E-01 -0.66621292867E-01 -0.15718858336E-01  0.92092332974E-01  0.51100000000E-03 0. -1.
</event>
<event>
 8    1  0.1106168E+005  0.1043930E+01  0.7957747E-01            NaN
         13   -1    0    0    0    0  0.00000000000E+00  0.00000000000E+00  0.74505805969E-08  0.10566000000E+00  0.10566000000E+00 0.  1.
     999900   -1    0    0    0    0 -0.00000000000E+00 -0.00000000000E+00 -0.74505805969E-08  0.93827000000E+00  0.93827000000E+00 0. -1.
     999902    2    1    2    0    0  0.17617520701E-04  0.18092316456E-01 -0.20838364926E-01  0.10163334481E+01  0.10159587137E+01 0.  0.
     999903    2    3    3    0    0  0.10030051492E+00  0.60944655374E-01  0.44862582539E-01  0.12717114739E+00  0.19631737205E-01 0.  0.
         14    1    1    2    0    0 -0.17617520701E-04 -0.18092316456E-01  0.20838364926E-01  0.27596551921E-01  0.00000000000E+00 0.  1.
     999901    1    3    3    0    0 -0.10028289740E+00 -0.42852338918E-01 -0.65700947465E-01  0.88916230068E+00  0.88000000000E+00 0. -1.
        -11    1    4    4    0    0  0.54164304170E-01  0.41210656021E-01  0.32835177114E-01  0.75567850260E-01  0.51100000000E-03 0.  1.
         11    1    4    4    0    0  0.46136210750E-01  0.19733999354E-01  0.12027405425E-01  0.51603297134E-01  0.51100000000E-03 0. -1.
</event>
<event>
 8    1  0.1106168E+005  0.1043930E+01  0.7957747E-01            NaN
         13   -1    0    0    0    0  0.00000000000E+00  0.00000000000E+00  0.74505805969E-08  0.10566000000E+00  0.10566000000E+00 0.  1.
     999900   -1    0    0    0    0 -0.00000000000E+00 -0.00000000000E+00 -0.74505805969E-08  0.93827000000E+00  0.93827000000E+00 0. -1.
     999902    2    1    2    0    0 -0.15427882295E-01 -0.18229838061E-01  0.54405151197E-02  0.10194362099E+01  0.10191419137E+01 0.  0.
     999903    2    3    3    0    0  0.81750220825E-01 -0.36447841641E-01  0.91751150625E-01  0.12970310096E+00  0.19826169360E-01 0.  0.
         14    1    1    2    0    0  0.15427882295E-01  0.18229838061E-01 -0.54405151197E-02  0.24493790082E-01  0.00000000000E+00 0. -1.
     999901    1    3    3    0    0 -0.97178103120E-01  0.18218003580E-01 -0.86310635505E-01  0.88973310896E+00  0.88000000000E+00 0. -1.
        -11    1    4    4    0    0  0.33019635452E-01 -0.16710261702E-01  0.51823301561E-01  0.63682374934E-01  0.51100000000E-03 0. -1.
         11    1    4    4    0    0  0.48730585374E-01 -0.19737579939E-01  0.39927849063E-01  0.66020726023E-01  0.51100000000E-03 0.  1.
</event>
<event>
 8    1  0.1106168E+005  0.1043930E+01  0.7957747E-01            NaN
         13   -1    0    0    0    0  0.00000000000E+00  0.00000000000E+00  0.74505805969E-08  0.10566000000E+00  0.10566000000E+00 0. -1.
     999900   -1    0    0    0    0 -0.00000000000E+00 -0.00000000000E+00 -0.74505805969E-08  0.93827000000E+00  0.93827000000E+00 0.  1.
     999902    2    1    2    0    0 -0.50387041053E-02 -0.61636094741E-02  0.15879833363E-01  0.10261663369E+01  0.10260125746E+01 0.  0.
     999903    2    3    3    0    0  0.11066887257E+00  0.81899468971E-02 -0.72642152524E-01  0.13407306266E+00  0.19596663515E-01 0.  0.
         14    1    1    2    0    0  0.50387041053E-02  0.61636094741E-02 -0.15879833363E-01  0.17763663148E-01  0.00000000000E+00 0.  1.
     999901    1    3    3    0    0 -0.11570757667E+00 -0.14353556371E-01  0.88521985887E-01  0.89209327420E+00  0.88000000000E+00 0.  1.
        -11    1    4    4    0    0  0.12312566505E-01  0.59687457708E-02 -0.45654727559E-02  0.14433637189E-01  0.51100000000E-03 0.  1.
         11    1    4    4    0    0  0.98356306063E-01  0.22212011263E-02 -0.68076679768E-01  0.11963942547E+00  0.51100000000E-03 0. -1.
</event>
<event>
 8    1  0.1106168E+005  0.1043930E+01  0.7957747E-01            NaN
         13   -1    0    0    0    0  0.00000000000E+00  0.00000000000E+00  0.74505805969E-08  0.10566000000E+00  0.10566000000E+00 0.  1.
     999900   -1    0    0    0    0 -0.00000000000E+00 -0.00000000000E+00 -0.74505805969E-08  0.93827000000E+00  0.93827000000E+00 0. -1.
     999902    2    1    2    0    0  0.44026973411E-02  0.54782565210E-02 -0.22962240161E-01  0.10199162641E+01  0.10196335255E+01 0.  0.
     999903    2    3    3    0    0  0.11371995064E+00 -0.18516321557E-01 -0.61475020165E-01  0.13199214805E+00  0.19174663117E-01 0.  0.
         14    1    1    2    0    0 -0.44026973411E-02 -0.54782565210E-02  0.22962240161E-01  0.24013735894E-01  0.00000000000E+00 0.  1.
     999901    1    3    3    0    0 -0.10931725330E+00  0.23994578078E-01  0.38512780004E-01  0.88792411605E+00  0.88000000000E+00 0.  1.
        -11    1    4    4    0    0  0.68673231703E-01 -0.62175885060E-02 -0.45597927057E-01  0.82668635118E-01  0.51100000000E-03 0.  1.
         11    1    4    4    0    0  0.45046718936E-01 -0.12298733051E-01 -0.15877093108E-01  0.49323512934E-01  0.51100000000E-03 0. -1.
</event>
<event>
 8    1  0.1106168E+005  0.1043930E+01  0.7957747E-01            NaN
         13   -1    0    0    0    0  0.00000000000E+00  0.00000000000E+00  0.74505805969E-08  0.10566000000E+00  0.10566000000E+00 0.  1.
     999900   -1    0    0    0    0 -0.00000000000E+00 -0.00000000000E+00 -0.74505805969E-08  0.93827000000E+00  0.93827000000E+00 0. -1.
     999902    2    1    2    0    0 -0.18890332378E-01 -0.39664318274E-02 -0.12878776909E-01  0.10207256872E+01  0.10204618995E+01 0.  0.
     999903    2    3    3    0    0 -0.12128615543E+00 -0.50846372139E-01 -0.12214890598E-01  0.13354866193E+00  0.19757441442E-01 0.  0.
         14    1    1    2    0    0  0.18890332378E-01  0.39664318274E-02  0.12878776909E-01  0.23204312820E-01  0.00000000000E+00 0.  1.
     999901    1    3    3    0    0  0.10239582305E+00  0.46879940311E-01 -0.66388631044E-03  0.88717702525E+00  0.88000000000E+00 0.  1.
        -11    1    4    4    0    0 -0.35575172087E-01 -0.17452362124E-01  0.50668663423E-02  0.39951371294E-01  0.51100000000E-03 0.  1.
         11    1    4    4    0    0 -0.85710983345E-01 -0.33394010014E-01 -0.17281756941E-01  0.93597290638E-01  0.51100000000E-03 0. -1.
</event>
<event>
 8    1  0.1106168E+005  0.1043930E+01  0.7957747E-01            NaN
         13   -1    0    0    0    0  0.00000000000E+00  0.00000000000E+00  0.74505805969E-08  0.10566000000E+00  0.10566000000E+00 0. -1.
     999900   -1    0    0    0    0 -0.00000000000E+00 -0.00000000000E+00 -0.74505805969E-08  0.93827000000E+00  0.93827000000E+00 0.  1.
     999902    2    1    2    0    0  0.87418343504E-02 -0.17598786095E-01 -0.11530583721E-01  0.10211464248E+01  0.10208922223E+01 0.  0.
     999903    2    3    3    0    0 -0.24790503198E-01 -0.12962528088E+00 -0.34327018128E-02  0.13337397143E+00  0.18961812193E-01 0.  0.
         14    1    1    2    0    0 -0.87418343504E-02  0.17598786095E-01  0.11530583721E-01  0.22783575241E-01  0.00000000000E+00 0. -1.
     999901    1    3    3    0    0  0.33532337549E-01  0.11202649479E+00 -0.80978819079E-02  0.88777245333E+00  0.88000000000E+00 0. -1.
        -11    1    4    4    0    0 -0.13028756868E-01 -0.10131419159E+00  0.23273778303E-02  0.10217627774E+00  0.51100000000E-03 0. -1.
         11    1    4    4    0    0 -0.11761746331E-01 -0.28311089289E-01 -0.57600796431E-02  0.31197693696E-01  0.51100000000E-03 0.  1.
</event>
<event>
 8    1  0.1106168E+005  0.1043930E+01  0.7957747E-01            NaN
         13   -1    0    0    0    0  0.00000000000E+00  0.00000000000E+00  0.74505805969E-08  0.10566000000E+00  0.10566000000E+00 0.  1.
     999900   -1    0    0    0    0 -0.00000000000E+00 -0.00000000000E+00 -0.74505805969E-08  0.93827000000E+00  0.93827000000E+00 0. -1.
     999902    2    1    2    0    0  0.40389825140E-02  0.18259793422E-01 -0.14774881272E-01  0.10200966085E+01  0.10198181505E+01 0.  0.
     999903    2    3    3    0    0 -0.12341173823E+00  0.16687119151E-01 -0.34277321726E-01  0.13069990018E+00  0.19965270935E-01 0.  0.
         14    1    1    2    0    0 -0.40389825140E-02 -0.18259793422E-01  0.14774881272E-01  0.23833391537E-01  0.00000000000E+00 0. -1.
     999901    1    3    3    0    0  0.12745072074E+00  0.15726742709E-02  0.19502440454E-01  0.88939670828E+00  0.88000000000E+00 0.  1.
        -11    1    4    4    0    0 -0.33414948265E-01  0.10487302929E-01 -0.27326534703E-02  0.35132190457E-01  0.51100000000E-03 0.  1.
         11    1    4    4    0    0 -0.89996789965E-01  0.61998162219E-02 -0.31544668255E-01  0.95567709722E-01  0.51100000000E-03 0. -1.
</event>
<event>
 8    1  0.1106168E+005  0.1043930E+01  0.7957747E-01            NaN
         13   -1    0    0    0    0  0.00000000000E+00  0.00000000000E+00  0.74505805969E-08  0.10566000000E+00  0.10566000000E+00 0.  1.
     999900   -1    0    0    0    0 -0.00000000000E+00 -0.00000000000E+00 -0.74505805969E-08  0.93827000000E+00  0.93827000000E+00 0. -1.
     999902    2    1    2    0    0 -0.11236867460E-01  0.44407632725E-02  0.21534651160E-01  0.10192373134E+01  0.10189381592E+01 0.  0.
     999903    2    3    3    0    0  0.48610621287E-01 -0.60016257421E-01 -0.98542620114E-01  0.12673802465E+00  0.19670669934E-01 0.  0.
         14    1    1    2    0    0  0.11236867460E-01 -0.44407632725E-02 -0.21534651160E-01  0.24692686556E-01  0.00000000000E+00 0. -1.
     999901    1    3    3    0    0 -0.59847488748E-01  0.64457020693E-01  0.12007727127E+00  0.89249928880E+00  0.88000000000E+00 0.  1.
        -11    1    4    4    0    0  0.27788696576E-01 -0.46539634077E-01 -0.59592391324E-01  0.80558447242E-01  0.51100000000E-03 0. -1.
         11    1    4    4    0    0  0.20821924711E-01 -0.13476623344E-01 -0.38950228791E-01  0.46179577405E-01  0.51100000000E-03 0.  1.
</event>
<event>
 8    1  0.1106168E+005  0.1043930E+01  0.7957747E-01            NaN
         13   -1    0    0    0    0  0.00000000000E+00  0.00000000000E+00  0.74505805969E-08  0.10566000000E+00  0.10566000000E+00 0. -1.
     999900   -1    0    0    0    0 -0.00000000000E+00 -0.00000000000E+00 -0.74505805969E-08  0.93827000000E+00  0.93827000000E+00 0.  1.
     999902    2    1    2    0    0 -0.11102179971E-01  0.18842297730E-01 -0.92384039887E-02  0.10201889239E+01  0.10199126442E+01 0.  0.
     999903    2    3    3    0    0  0.11321188862E+00  0.15462225592E-01  0.56264534299E-01  0.12903458969E+00  0.20693365441E-01 0.  0.
         14    1    1    2    0    0  0.11102179971E-01 -0.18842297730E-01  0.92384039887E-02  0.23741076052E-01  0.00000000000E+00 0. -1.
     999901    1    3    3    0    0 -0.12431406859E+00  0.33800721382E-02 -0.65502938287E-01  0.89115433425E+00  0.88000000000E+00 0. -1.
        -11    1    4    4    0    0  0.38646126556E-01 -0.34090512181E-02  0.13852539057E-01  0.41198285005E-01  0.51100000000E-03 0. -1.
         11    1    4    4    0    0  0.74565762059E-01  0.18871276810E-01  0.42411995242E-01  0.87836304688E-01  0.51100000000E-03 0.  1.
</event>
<event>
 8    1  0.1106168E+005  0.1043930E+01  0.7957747E-01            NaN
         13   -1    0    0    0    0  0.00000000000E+00  0.00000000000E+00  0.74505805969E-08  0.10566000000E+00  0.10566000000E+00 0.  1.
     999900   -1    0    0    0    0 -0.00000000000E+00 -0.00000000000E+00 -0.74505805969E-08  0.93827000000E+00  0.93827000000E+00 0.  1.
     999902    2    1    2    0    0 -0.15967510476E-01  0.11123997687E-01  0.13717117323E-01  0.10201210936E+01  0.10198432142E+01 0.  0.
     999903    2    3    3    0    0 -0.99484431806E-01 -0.44825409755E-01  0.71946544073E-01  0.13248598927E+00  0.21674007852E-01 0.  0.
         14    1    1    2    0    0  0.15967510476E-01 -0.11123997687E-01 -0.13717117323E-01  0.23808906380E-01  0.00000000000E+00 0. -1.
     999901    1    3    3    0    0  0.83516921330E-01  0.55949407442E-01 -0.58229426750E-01  0.88763510435E+00  0.88000000000E+00 0. -1.
        -11    1    4    4    0    0 -0.66192449765E-01 -0.21567736792E-01  0.53884051658E-01  0.88036127926E-01  0.51100000000E-03 0. -1.
         11    1    4    4    0    0 -0.33291982041E-01 -0.23257672964E-01  0.18062492415E-01  0.44449861340E-01  0.51100000000E-03 0.  1.
</event>
<event>
 8    1  0.1106168E+005  0.1043930E+01  0.7957747E-01            NaN
         13   -1    0    0    0    0  0.00000000000E+00  0.00000000000E+00  0.74505805969E-08  0.10566000000E+00  0.10566000000E+00 0.  1.
     999900   -1    0    0    0    0 -0.00000000000E+00 -0.00000000000E+00 -0.74505805969E-08  0.93827000000E+00  0.93827000000E+00 0.  1.
     999902    2    1    2    0    0  0.58912185497E-02 -0.22965107028E-01 -0.73039814432E-02  0.10191217203E+01  0.10188197240E+01 0.  0.
     999903    2    3    3    0    0 -0.19273831655E-01  0.10315595031E+00  0.67610195260E-01  0.12662413782E+00  0.21210919499E-01 0.  0.
         14    1    1    2    0    0 -0.58912185497E-02  0.22965107028E-01  0.73039814432E-02  0.24808279702E-01  0.00000000000E+00 0. -1.
     999901    1    3    3    0    0  0.25165050205E-01 -0.12612105733E+00 -0.74914176704E-01  0.89249758248E+00  0.88000000000E+00 0. -1.
        -11    1    4    4    0    0 -0.90279437236E-02  0.89365591772E-01  0.58201217565E-01  0.10702969498E+00  0.51100000000E-03 0.  1.
         11    1    4    4    0    0 -0.10245887932E-01  0.13790358533E-01  0.94089776950E-02  0.19594442841E-01  0.51100000000E-03 0. -1.
</event>
<event>
 8    1  0.1106168E+005  0.1043930E+01  0.7957747E-01            NaN
         13   -1    0    0    0    0  0.00000000000E+00  0.00000000000E+00  0.74505805969E-08  0.10566000000E+00  0.10566000000E+00 0. -1.
     999900   -1    0    0    0    0 -0.00000000000E+00 -0.00000000000E+00 -0.74505805969E-08  0.93827000000E+00  0.93827000000E+00 0. -1.
     999902    2    1    2    0    0 -0.35977269763E-02  0.10700515726E-01  0.20510150867E-01  0.10205182302E+01  0.10202496495E+01 0.  0.
     999903    2    3    3    0    0  0.24317251710E-01  0.86276678433E-01  0.96960428759E-01  0.13353703120E+00  0.19895225166E-01 0.  0.
         14    1    1    2    0    0  0.35977269763E-02 -0.10700515726E-01 -0.20510150867E-01  0.23411769792E-01  0.00000000000E+00 0.  1.
     999901    1    3    3    0    0 -0.27914978686E-01 -0.75576162707E-01 -0.76450277892E-01  0.88698119901E+00  0.88000000000E+00 0. -1.
        -11    1    4    4    0    0  0.13661462186E-02  0.38841088779E-01  0.46088158436E-01  0.60289932841E-01  0.51100000000E-03 0.  1.
         11    1    4    4    0    0  0.22951105491E-01  0.47435589654E-01  0.50872270323E-01  0.73247098359E-01  0.51100000000E-03 0. -1.
</event>
<event>
 8    1  0.1106168E+005  0.1043930E+01  0.7957747E-01            NaN
         13   -1    0    0    0    0  0.00000000000E+00  0.00000000000E+00  0.74505805969E-08  0.10566000000E+00  0.10566000000E+00 0.  1.
     999900   -1    0    0    0    0 -0.00000000000E+00 -0.00000000000E+00 -0.74505805969E-08  0.93827000000E+00  0.93827000000E+00 0.  1.
     999902    2    1    2    0    0 -0.23521753367E-01 -0.18814992854E-02 -0.13971073319E-02  0.10202917930E+01  0.10200179303E+01 0.  0.
     999903    2    3    3    0    0 -0.11874207145E+00 -0.46469340248E-01  0.33477610944E-01  0.13334690717E+00  0.20039164215E-01 0.  0.
         14    1    1    2    0    0  0.23521753367E-01  0.18814992854E-02  0.13971073319E-02  0.23638206994E-01  0.00000000000E+00 0.  1.
     999901    1    3    3    0    0  0.95220318081E-01  0.44587840963E-01 -0.34874718276E-01  0.88694488584E+00  0.88000000000E+00 0. -1.
        -11    1    4    4    0    0 -0.87778302524E-01 -0.43437631391E-01  0.26425551441E-01  0.10144175228E+00  0.51100000000E-03 0.  1.
         11    1    4    4    0    0 -0.30963768923E-01 -0.30317088568E-02  0.70520595028E-02  0.31905154893E-01  0.51100000000E-03 0. -1.
</event>
<event>
 8    1  0.1106168E+005  0.1043930E+01  0.7957747E-01            NaN
         13   -1    0    0    0    0  0.00000000000E+00  0.00000000000E+00  0.74505805969E-08  0.10566000000E+00  0.10566000000E+00 0.  1.
     999900   -1    0    0    0    0 -0.00000000000E+00 -0.00000000000E+00 -0.74505805969E-08  0.93827000000E+00  0.93827000000E+00 0.  1.
     999902    2    1    2    0    0  0.37934664484E-02  0.22468517592E-01  0.58059782467E-02  0.10204154502E+01  0.10201444784E+01 0.  0.
     999903    2    3    3    0    0  0.36668164485E-01 -0.12102091088E+00  0.57878864100E-02  0.12818792191E+00  0.20199716264E-01 0.  0.
         14    1    1    2    0    0 -0.37934664484E-02 -0.22468517592E-01 -0.58059782467E-02  0.23514549834E-01  0.00000000000E+00 0.  1.
     999901    1    3    3    0    0 -0.32874698036E-01  0.14348942847E+00  0.18091836621E-04  0.89222752826E+00  0.88000000000E+00 0. -1.
        -11    1    4    4    0    0  0.39240978649E-02 -0.43943414833E-01 -0.13195650765E-02  0.44140963110E-01  0.51100000000E-03 0.  1.
         11    1    4    4    0    0  0.32744066620E-01 -0.77077496046E-01  0.71074514865E-02  0.84046958798E-01  0.51100000000E-03 0. -1.
</event>
<event>
 8    1  0.1106168E+005  0.1043930E+01  0.7957747E-01            NaN
         13   -1    0    0    0    0  0.00000000000E+00  0.00000000000E+00  0.74505805969E-08  0.10566000000E+00  0.10566000000E+00 0.  1.
     999900   -1    0    0    0    0 -0.00000000000E+00 -0.00000000000E+00 -0.74505805969E-08  0.93827000000E+00  0.93827000000E+00 0.  1.
     999902    2    1    2    0    0  0.31222548371E-03 -0.19766366322E-01 -0.11887608619E-01  0.10208622311E+01  0.10206015741E+01 0.  0.
     999903    2    3    3    0    0 -0.18826539962E-01 -0.12762078009E+00 -0.29609223551E-01  0.13389384242E+00  0.20232468997E-01 0.  0.
         14    1    1    2    0    0 -0.31222548371E-03  0.19766366322E-01  0.11887608619E-01  0.23067768878E-01  0.00000000000E+00 0. -1.
     999901    1    3    3    0    0  0.19138765446E-01  0.10785441377E+00  0.17721614932E-01  0.88696838870E+00  0.88000000000E+00 0.  1.
        -11    1    4    4    0    0 -0.10414308661E-01 -0.32723176445E-01 -0.15128177912E-01  0.37528482376E-01  0.51100000000E-03 0. -1.
         11    1    4    4    0    0 -0.84122313010E-02 -0.94897603648E-01 -0.14481045638E-01  0.96365360049E-01  0.51100000000E-03 0.  1.
</event>
<event>
 8    1  0.1106168E+005  0.1043930E+01  0.7957747E-01            NaN
         13   -1    0    0    0    0  0.00000000000E+00  0.00000000000E+00  0.74505805969E-08  0.10566000000E+00  0.10566000000E+00 0. -1.
     999900   -1    0    0    0    0 -0.00000000000E+00 -0.00000000000E+00 -0.74505805969E-08  0.93827000000E+00  0.93827000000E+00 0.  1.
     999902    2    1    2    0    0 -0.62496864595E-03 -0.24509838445E-01 -0.17008837853E-02  0.10193532677E+01  0.10190569506E+01 0.  0.
     999903    2    3    3    0    0  0.12466649744E+00 -0.12575795553E-01 -0.28553378455E-01  0.12999314414E+00  0.19571302558E-01 0.  0.
         14    1    1    2    0    0  0.62496864595E-03  0.24509838445E-01  0.17008837853E-02  0.24576732331E-01  0.00000000000E+00 0. -1.
     999901    1    3    3    0    0 -0.12529146609E+00 -0.11934042892E-01  0.26852494670E-01  0.88936012353E+00  0.88000000000E+00 0. -1.
        -11    1    4    4    0    0  0.57840194103E-01 -0.14954278945E-01 -0.97999606094E-02  0.60542702793E-01  0.51100000000E-03 0.  1.
         11    1    4    4    0    0  0.66826303340E-01  0.23784833920E-02 -0.18753417846E-01  0.69450441346E-01  0.51100000000E-03 0. -1.
</event>
<event>
 8    1  0.1106168E+005  0.1043930E+01  0.7957747E-01            NaN
         13   -1    0    0    0    0  0.00000000000E+00  0.00000000000E+00  0.74505805969E-08  0.10566000000E+00  0.10566000000E+00 0. -1.
     999900   -1    0    0    0    0 -0.00000000000E+00 -0.00000000000E+00 -0.74505805969E-08  0.93827000000E+00  0.93827000000E+00 0.  1.
     999902    2    1    2    0    0  0.76911914132E-02  0.12181996536E-01  0.19630741192E-01  0.10195800213E+01  0.10192892123E+01 0.  0.
     999903    2    3    3    0    0  0.19426934471E-01  0.73335866979E-01 -0.10253227969E+00  0.12896151303E+00  0.19043326799E-01 0.  0.
         14    1    1    2    0    0 -0.76911914132E-02 -0.12181996536E-01 -0.19630741192E-01  0.24349978741E-01  0.00000000000E+00 0.  1.
     999901    1    3    3    0    0 -0.11735743057E-01 -0.61153870443E-01  0.12216302088E+00  0.89061850823E+00  0.88000000000E+00 0. -1.
        -11    1    4    4    0    0  0.11378406633E-01  0.15871413983E-01 -0.18994810486E-01  0.27247639636E-01  0.51100000000E-03 0. -1.
         11    1    4    4    0    0  0.80485278379E-02  0.57464452996E-01 -0.83537469202E-01  0.10171387339E+00  0.51100000000E-03 0.  1.
</event>
<event>
 8    1  0.1106168E+005  0.1043930E+01  0.7957747E-01            NaN
         13   -1    0    0    0    0  0.00000000000E+00  0.00000000000E+00  0.74505805969E-08  0.10566000000E+00  0.10566000000E+00 0. -1.
     999900   -1    0    0    0    0 -0.00000000000E+00 -0.00000000000E+00 -0.74505805969E-08  0.93827000000E+00  0.93827000000E+00 0.  1.
     999902    2    1    2    0    0  0.21543632299E-01 -0.98894432843E-02  0.11456832122E-02  0.10201972848E+01  0.10199212019E+01 0.  0.
     999903    2    3    3    0    0  0.96060496068E-02  0.11818865036E+00  0.48442124100E-01  0.12958880893E+00  0.19641454903E-01 0.  0.
         14    1    1    2    0    0 -0.21543632299E-01  0.98894432843E-02 -0.11456832122E-02  0.23732715208E-01  0.00000000000E+00 0. -1.
     999901    1    3    3    0    0  0.11937582692E-01 -0.12807809364E+00 -0.47296440888E-01  0.89060847586E+00  0.88000000000E+00 0.  1.
        -11    1    4    4    0    0 -0.26838427827E-02  0.62206750493E-01  0.18698985484E-01  0.65013813902E-01  0.51100000000E-03 0. -1.
         11    1    4    4    0    0  0.12289892389E-01  0.55981899866E-01  0.29743138616E-01  0.64574995031E-01  0.51100000000E-03 0.  1.
</event>
<event>
 8    1  0.1106168E+005  0.1043930E+01  0.7957747E-01            NaN
         13   -1    0    0    0    0  0.00000000000E+00  0.00000000000E+00  0.74505805969E-08  0.10566000000E+00  0.10566000000E+00 0.  1.
     999900   -1    0    0    0    0 -0.00000000000E+00 -0.00000000000E+00 -0.74505805969E-08  0.93827000000E+00  0.93827000000E+00 0.  1.
     999902    2    1    2    0    0  0.15592470224E-01 -0.11481440046E-01 -0.13400753206E-01  0.10203815652E+01  0.10201098029E+01 0.  0.
     999903    2    3    3    0    0  0.12173158141E+00  0.33339521464E-01 -0.36293979921E-01  0.13257610832E+00  0.18140284279E-01 0.  0.
         14    1    1    2    0    0 -0.15592470224E-01  0.11481440046E-01  0.13400753206E-01  0.23548434761E-01  0.00000000000E+00 0.  1.
     999901    1    3    3    0    0 -0.10613911119E+00 -0.44820961510E-01  0.22893226715E-01  0.88780545692E+00  0.88000000000E+00 0. -1.
        -11    1    4    4    0    0  0.38421490930E-01  0.19422751134E-02 -0.11539848640E-01  0.40167307920E-01  0.51100000000E-03 0.  1.
         11    1    4    4    0    0  0.83310090479E-01  0.31397246351E-01 -0.24754131281E-01  0.92408800395E-01  0.51100000000E-03 0. -1.
</event>
<event>
 8    1  0.1106168E+005  0.1043930E+01  0.7957747E-01            NaN
         13   -1    0    0    0    0  0.00000000000E+00  0.00000000000E+00  0.74505805969E-08  0.10566000000E+00  0.10566000000E+00 0.  1.
     999900   -1    0    0    0    0 -0.00000000000E+00 -0.00000000000E+00 -0.74505805969E-08  0.93827000000E+00  0.93827000000E+00 0. -1.
     999902    2    1    2    0    0 -0.66077660813E-02 -0.17820292871E-01  0.15395508438E-01  0.10194709099E+01  0.10191774570E+01 0.  0.
     999903    2    3    3    0    0  0.77305359057E-01 -0.75356953631E-01  0.73809587514E-01  0.13168485199E+00  0.15435544563E-01 0.  0.
         14    1    1    2    0    0  0.66077660813E-02  0.17820292871E-01 -0.15395508438E-01  0.24459090144E-01  0.00000000000E+00 0.  1.
     999901    1    3    3    0    0 -0.83913125138E-01  0.57536660760E-01 -0.58414079075E-01  0.88778605786E+00  0.88000000000E+00 0. -1.
        -11    1    4    4    0    0  0.67800706266E-01 -0.67404965343E-01  0.58911194649E-01  0.11229939937E+00  0.51100000000E-03 0.  1.
         11    1    4    4    0    0  0.95046527912E-02 -0.79519882880E-02  0.14898392865E-01  0.19385452622E-01  0.51100000000E-03 0. -1.
</event>
<event>
 8    1  0.1106168E+005  0.1043930E+01  0.7957747E-01            NaN
         13   -1    0    0    0    0  0.00000000000E+00  0.00000000000E+00  0.74505805969E-08  0.10566000000E+00  0.10566000000E+00 0.  1.
     999900   -1    0    0    0    0 -0.00000000000E+00 -0.00000000000E+00 -0.74505805969E-08  0.93827000000E+00  0.93827000000E+00 0.  1.
     999902    2    1    2    0    0  0.20551996919E-01  0.68361512144E-02  0.91735047633E-02  0.10204082924E+01  0.10201371537E+01 0.  0.
     999903    2    3    3    0    0  0.13019490065E+00 -0.84533947755E-02 -0.17525645673E-01  0.13307059949E+00  0.19454155126E-01 0.  0.
         14    1    1    2    0    0 -0.20551996919E-01 -0.68361512144E-02 -0.91735047633E-02  0.23521707643E-01  0.00000000000E+00 0. -1.
     999901    1    3    3    0    0 -0.10964290374E+00  0.15289545990E-01  0.26699150437E-01  0.88733769287E+00  0.88000000000E+00 0. -1.
        -11    1    4    4    0    0  0.11626917147E+00 -0.37031242791E-02 -0.10632063931E-01  0.11681410560E+00  0.51100000000E-03 0.  1.
         11    1    4    4    0    0  0.13925729189E-01 -0.47502704964E-02 -0.68935817421E-02  0.16256493886E-01  0.51100000000E-03 0. -1.
</event>
<event>
 8    1  0.1106168E+005  0.1043930E+01  0.7957747E-01            NaN
         13   -1    0    0    0    0  0.00000000000E+00  0.00000000000E+00  0.74505805969E-08  0.10566000000E+00  0.10566000000E+00 0. -1.
     999900   -1    0    0    0    0 -0.00000000000E+00 -0.00000000000E+00 -0.74505805969E-08  0.93827000000E+00  0.93827000000E+00 0.  1.
     999902    2    1    2    0    0 -0.20182980270E-01 -0.65016575568E-02  0.11152395784E-01  0.10199716992E+01  0.10196902800E+01 0.  0.
     999903    2    3    3    0    0  0.23374633167E-01  0.19963301457E-01  0.12579867624E+00  0.13107270084E+00  0.20244482708E-01 0.  0.
         14    1    1    2    0    0  0.20182980270E-01  0.65016575568E-02 -0.11152395784E-01  0.23958300760E-01  0.00000000000E+00 0. -1.
     999901    1    3    3    0    0 -0.43557613437E-01 -0.26464959014E-01 -0.11464628045E+00  0.88889899841E+00  0.88000000000E+00 0.  1.
        -11    1    4    4    0    0  0.43326223479E-02  0.37990521383E-02  0.66163810753E-01  0.66416228348E-01  0.51100000000E-03 0.  1.
         11    1    4    4    0    0  0.19042010819E-01  0.16164249319E-01  0.59634865485E-01  0.64656472487E-01  0.51100000000E-03 0. -1.
</event>
<event>
 8    1  0.1106168E+005  0.1043930E+01  0.7957747E-01            NaN
         13   -1    0    0    0    0  0.00000000000E+00  0.00000000000E+00  0.74505805969E-08  0.10566000000E+00  0.10566000000E+00 0.  1.
     999900   -1    0    0    0    0 -0.00000000000E+00 -0.00000000000E+00 -0.74505805969E-08  0.93827000000E+00  0.93827000000E+00 0.  1.
     999902    2    1    2    0    0  0.16425706431E-01 -0.14445231292E-01  0.10709073500E-01  0.10195752716E+01  0.10192843478E+01 0.  0.
     999903    2    3    3    0    0  0.57807064654E-01 -0.48912632590E-01 -0.10424440734E+00  0.13046632368E+00  0.20505189675E-01 0.  0.
         14    1    1    2    0    0 -0.16425706431E-01  0.14445231292E-01 -0.10709073500E-01  0.24354728372E-01  0.00000000000E+00 0.  1.
     999901    1    3    3    0    0 -0.41381358223E-01  0.34467401298E-01  0.11495348084E+00  0.88910894795E+00  0.88000000000E+00 0. -1.
        -11    1    4    4    0    0  0.17140871043E-01 -0.26620326925E-01 -0.48917141008E-01  0.58271769075E-01  0.51100000000E-03 0. -1.
         11    1    4    4    0    0  0.40666193611E-01 -0.22292305665E-01 -0.55327266328E-01  0.72194554608E-01  0.51100000000E-03 0.  1.
</event>
<event>
 8    1  0.1106168E+005  0.1043930E+01  0.7957747E-01            NaN
         13   -1    0    0    0    0  0.00000000000E+00  0.00000000000E+00  0.74505805969E-08  0.10566000000E+00  0.10566000000E+00 0.  1.
     999900   -1    0    0    0    0 -0.00000000000E+00 -0.00000000000E+00 -0.74505805969E-08  0.93827000000E+00  0.93827000000E+00 0. -1.
     999902    2    1    2    0    0 -0.20435354854E-01  0.23030950470E-02  0.11612401692E-01  0.10203131448E+01  0.10200397824E+01 0.  0.
     999903    2    3    3    0    0  0.10533502750E+00 -0.69815044181E-01 -0.93031065664E-02  0.12820515049E+00  0.19503958798E-01 0.  0.
         14    1    1    2    0    0  0.20435354854E-01 -0.23030950470E-02 -0.11612401692E-01  0.23616855164E-01  0.00000000000E+00 0. -1.
     999901    1    3    3    0    0 -0.12577038235E+00  0.72118139228E-01  0.20915508258E-01  0.89210799434E+00  0.88000000000E+00 0. -1.
        -11    1    4    4    0    0  0.48567478717E-01 -0.43581988979E-01 -0.69076825558E-02  0.65621390960E-01  0.51100000000E-03 0.  1.
         11    1    4    4    0    0  0.56767548784E-01 -0.26233055202E-01 -0.23954240106E-02  0.62583759533E-01  0.51100000000E-03 0. -1.
</event>
<event>
 8    1  0.1106168E+005  0.1043930E+01  0.7957747E-01            NaN
         13   -1    0    0    0    0  0.00000000000E+00  0.00000000000E+00  0.74505805969E-08  0.10566000000E+00  0.10566000000E+00 0. -1.
     999900   -1    0    0    0    0 -0.00000000000E+00 -0.00000000000E+00 -0.74505805969E-08  0.93827000000E+00  0.93827000000E+00 0.  1.
     999902    2    1    2    0    0 -0.17093548787E-01  0.12679637977E-01  0.11066098004E-01  0.10199420623E+01  0.10196599381E+01 0.  0.
     999903    2    3    3    0    0 -0.48312103716E-01 -0.44783089707E-02 -0.11849897469E+00  0.12974202784E+00  0.20901487240E-01 0.  0.
         14    1    1    2    0    0  0.17093548787E-01 -0.12679637977E-01 -0.11066098004E-01  0.23987937685E-01  0.00000000000E+00 0.  1.
     999901    1    3    3    0    0  0.31218554929E-01  0.17157946948E-01  0.12956507269E+00  0.89020003447E+00  0.88000000000E+00 0. -1.
        -11    1    4    4    0    0 -0.73164377690E-02  0.12279542581E-02 -0.43015700398E-01  0.43653748235E-01  0.51100000000E-03 0.  1.
         11    1    4    4    0    0 -0.40995665947E-01 -0.57062632288E-02 -0.75483274293E-01  0.86088279606E-01  0.51100000000E-03 0. -1.
</event>
<event>
 8    1  0.1106168E+005  0.1043930E+01  0.7957747E-01            NaN
         13   -1    0    0    0    0  0.00000000000E+00  0.00000000000E+00  0.74505805969E-08  0.10566000000E+00  0.10566000000E+00 0.  1.
     999900   -1    0    0    0    0 -0.00000000000E+00 -0.00000000000E+00 -0.74505805969E-08  0.93827000000E+00  0.93827000000E+00 0. -1.
     999902    2    1    2    0    0  0.17953294778E-01 -0.11643299197E-01  0.10840221386E-01  0.10199425531E+01  0.10196604405E+01 0.  0.
     999903    2    3    3    0    0  0.91995407354E-01  0.49163226057E-02  0.93527518560E-01  0.13281593043E+00  0.20133292004E-01 0.  0.
         14    1    1    2    0    0 -0.17953294778E-01  0.11643299197E-01 -0.10840221386E-01  0.23987446911E-01  0.00000000000E+00 0. -1.
     999901    1    3    3    0    0 -0.74042112576E-01 -0.16559621803E-01 -0.82687297174E-01  0.88712662265E+00  0.88000000000E+00 0. -1.
        -11    1    4    4    0    0  0.25189253991E-01 -0.52226020033E-02  0.34868114316E-01  0.43333827494E-01  0.51100000000E-03 0. -1.
         11    1    4    4    0    0  0.66806153363E-01  0.10138924609E-01  0.58659404244E-01  0.89482102940E-01  0.51100000000E-03 0.  1.
</event>
<event>
 8    1  0.1106168E+005  0.1043930E+01  0.7957747E-01            NaN
         13   -1    0    0    0    0  0.00000000000E+00  0.00000000000E+00  0.74505805969E-08  0.10566000000E+00  0.10566000000E+00 0. -1.
     999900   -1    0    0    0    0 -0.00000000000E+00 -0.00000000000E+00 -0.74505805969E-08  0.93827000000E+00  0.93827000000E+00 0.  1.
     999902    2    1    2    0    0  0.36560005714E-02 -0.62998616414E-02  0.20699233222E-01  0.10219865989E+01  0.10217509948E+01 0.  0.
     999903    2    3    3    0    0  0.13013172128E+00  0.65625680655E-02  0.16702083336E-01  0.13284233205E+00  0.19768495455E-01 0.  0.
         14    1    1    2    0    0 -0.36560005714E-02  0.62998616414E-02 -0.20699233222E-01  0.21943401123E-01  0.00000000000E+00 0.  1.
     999901    1    3    3    0    0 -0.12647572071E+00 -0.12862429707E-01  0.39971498859E-02  0.88914426683E+00  0.88000000000E+00 0.  1.
        -11    1    4    4    0    0  0.64871824506E-01  0.17551039086E-02 -0.15149669600E-02  0.64915254373E-01  0.51100000000E-03 0. -1.
         11    1    4    4    0    0  0.65259896777E-01  0.48074641569E-02  0.18217050296E-01  0.67927077675E-01  0.51100000000E-03 0.  1.
</event>
<event>
 8    1  0.1106168E+005  0.1043930E+01  0.7957747E-01            NaN
         13   -1    0    0    0    0  0.00000000000E+00  0.00000000000E+00  0.74505805969E-08  0.10566000000E+00  0.10566000000E+00 0. -1.
     999900   -1    0    0    0    0 -0.00000000000E+00 -0.00000000000E+00 -0.74505805969E-08  0.93827000000E+00  0.93827000000E+00 0.  1.
     999902    2    1    2    0    0  0.13365717717E-01 -0.13305876772E-01  0.15554374972E-01  0.10194835821E+01  0.10191904370E+01 0.  0.
     999903    2    3    3    0    0  0.44733711968E-01 -0.12253423309E+00 -0.33396263229E-02  0.13197483952E+00  0.19760108762E-01 0.  0.
         14    1    1    2    0    0 -0.13365717717E-01  0.13305876772E-01 -0.15554374972E-01  0.24446417887E-01  0.00000000000E+00 0.  1.
     999901    1    3    3    0    0 -0.31367994251E-01  0.10922835632E+00  0.18894001294E-01  0.88750874259E+00  0.88000000000E+00 0.  1.
        -11    1    4    4    0    0  0.40088457594E-01 -0.84637698498E-01 -0.88026791484E-04  0.93653047516E-01  0.51100000000E-03 0.  1.
         11    1    4    4    0    0  0.46452543738E-02 -0.37896534591E-01 -0.32515995314E-02  0.38321792008E-01  0.51100000000E-03 0. -1.
</event>
<event>
 8    1  0.1106168E+005  0.1043930E+01  0.7957747E-01            NaN
         13   -1    0    0    0    0  0.00000000000E+00  0.00000000000E+00  0.74505805969E-08  0.10566000000E+00  0.10566000000E+00 0. -1.
     999900   -1    0    0    0    0 -0.00000000000E+00 -0.00000000000E+00 -0.74505805969E-08  0.93827000000E+00  0.93827000000E+00 0. -1.
     999902    2    1    2    0    0  0.53090255844E-02  0.39540831449E-02  0.22946995175E-01  0.10200472633E+01  0.10197676374E+01 0.  0.
     999903    2    3    3    0    0  0.18712828718E-01  0.12544730037E+00  0.27708253684E-01  0.13158627181E+00  0.21447714979E-01 0.  0.
         14    1    1    2    0    0 -0.53090255844E-02 -0.39540831449E-02 -0.22946995175E-01  0.23882736731E-01  0.00000000000E+00 0.  1.
     999901    1    3    3    0    0 -0.13403803133E-01 -0.12149321722E+00 -0.47612585082E-02  0.88846099146E+00  0.88000000000E+00 0. -1.
        -11    1    4    4    0    0  0.52037543134E-03  0.69865146369E-01  0.10747662687E-01  0.70690754996E-01  0.51100000000E-03 0. -1.
         11    1    4    4    0    0  0.18192453286E-01  0.55582153998E-01  0.16960590996E-01  0.60895516810E-01  0.51100000000E-03 0.  1.
</event>
<event>
 8    1  0.1106168E+005  0.1043930E+01  0.7957747E-01            NaN
         13   -1    0    0    0    0  0.00000000000E+00  0.00000000000E+00  0.74505805969E-08  0.10566000000E+00  0.10566000000E+00 0.  1.
     999900   -1    0    0    0    0 -0.00000000000E+00 -0.00000000000E+00 -0.74505805969E-08  0.93827000000E+00  0.93827000000E+00 0.  1.
     999902    2    1    2    0    0  0.41635426702E-02 -0.86072844205E-02  0.21733779786E-01  0.10201859983E+01  0.10199096497E+01 0.  0.
     999903    2    3    3    0    0 -0.22057226932E-04 -0.80111684195E-01  0.10453083544E+00  0.13340206134E+00  0.21249281926E-01 0.  0.
         14    1    1    2    0    0 -0.41635426702E-02  0.86072844205E-02 -0.21733779786E-01  0.23744001694E-01  0.00000000000E+00 0. -1.
     999901    1    3    3    0    0  0.41855998971E-02  0.71504399775E-01 -0.82797055649E-01  0.88678393696E+00  0.88000000000E+00 0.  1.
        -11    1    4    4    0    0  0.74028308289E-02 -0.42370367359E-01  0.42901188842E-01  0.60752144484E-01  0.51100000000E-03 0. -1.
         11    1    4    4    0    0 -0.74248880558E-02 -0.37741316836E-01  0.61629646593E-01  0.72649916857E-01  0.51100000000E-03 0.  1.
</event>
<event>
 8    1  0.1106168E+005  0.1043930E+01  0.7957747E-01            NaN
         13   -1    0    0    0    0  0.00000000000E+00  0.00000000000E+00  0.74505805969E-08  0.10566000000E+00  0.10566000000E+00 0. -1.
     999900   -1    0    0    0    0 -0.00000000000E+00 -0.00000000000E+00 -0.74505805969E-08  0.93827000000E+00  0.93827000000E+00 0.  1.
     999902    2    1    2    0    0  0.10227632192E-01  0.14471125216E-01 -0.16149574632E-01  0.10199544565E+01  0.10196726272E+01 0.  0.
     999903    2    3    3    0    0  0.60216630755E-01 -0.15316962353E-01 -0.11534614374E+00  0.13247139218E+00  0.19577663689E-01 0.  0.
         14    1    1    2    0    0 -0.10227632192E-01 -0.14471125216E-01  0.16149574632E-01  0.23975543499E-01  0.00000000000E+00 0. -1.
     999901    1    3    3    0    0 -0.49988998563E-01  0.29788087568E-01  0.99196569104E-01  0.88748306432E+00  0.88000000000E+00 0. -1.
        -11    1    4    4    0    0  0.18628082772E-01 -0.14556246406E-02 -0.53433244086E-01  0.56608276828E-01  0.51100000000E-03 0.  1.
         11    1    4    4    0    0  0.41588547983E-01 -0.13861337712E-01 -0.61912899650E-01  0.75863115350E-01  0.51100000000E-03 0. -1.
</event>
<event>
 8    1  0.1106168E+005  0.1043930E+01  0.7957747E-01            NaN
         13   -1    0    0    0    0  0.00000000000E+00  0.00000000000E+00  0.74505805969E-08  0.10566000000E+00  0.10566000000E+00 0.  1.
     999900   -1    0    0    0    0 -0.00000000000E+00 -0.00000000000E+00 -0.74505805969E-08  0.93827000000E+00  0.93827000000E+00 0.  1.
     999902    2    1    2    0    0 -0.99333910043E-02 -0.15668290907E-01 -0.14422684750E-01  0.10204314589E+01  0.10201608603E+01 0.  0.
     999903    2    3    3    0    0 -0.39208536977E-01  0.72743266146E-01 -0.99454691341E-01  0.13144097544E+00  0.23592419426E-01 0.  0.
         14    1    1    2    0    0  0.99333910043E-02  0.15668290907E-01  0.14422684750E-01  0.23498541065E-01  0.00000000000E+00 0.  1.
     999901    1    3    3    0    0  0.29275145973E-01 -0.88411557053E-01  0.85032006591E-01  0.88899048349E+00  0.88000000000E+00 0. -1.
        -11    1    4    4    0    0 -0.51402548547E-02  0.60431084519E-02 -0.23331838788E-01  0.24649081159E-01  0.51100000000E-03 0. -1.
         11    1    4    4    0    0 -0.34068282123E-01  0.66700157694E-01 -0.76122852553E-01  0.10679189428E+00  0.51100000000E-03 0.  1.
</event>
<event>
 8    1  0.1106168E+005  0.1043930E+01  0.7957747E-01            NaN
         13   -1    0    0    0    0  0.00000000000E+00  0.00000000000E+00  0.74505805969E-08  0.10566000000E+00  0.10566000000E+00 0. -1.
     999900   -1    0    0    0    0 -0.00000000000E+00 -0.00000000000E+00 -0.74505805969E-08  0.93827000000E+00  0.93827000000E+00 0.  1.
     999902    2    1    2    0    0 -0.19049089286E-01  0.12874802129E-01 -0.27851051890E-02  0.10207700099E+01  0.10205072405E+01 0.  0.
     999903    2    3    3    0    0  0.88370969307E-01  0.91792920119E-01  0.19356260021E-01  0.13045693100E+00  0.20223195666E-01 0.  0.
         14    1    1    2    0    0  0.19049089286E-01 -0.12874802129E-01  0.27851051890E-02  0.23159990143E-01  0.00000000000E+00 0.  1.
     999901    1    3    3    0    0 -0.10742005859E+00 -0.78918117990E-01 -0.22141365210E-01  0.89031307886E+00  0.88000000000E+00 0.  1.
        -11    1    4    4    0    0  0.71400168031E-01  0.75932854476E-01  0.23523779326E-01  0.10685228916E+00  0.51100000000E-03 0. -1.
         11    1    4    4    0    0  0.16970801276E-01  0.15860065643E-01 -0.41675193051E-02  0.23604641838E-01  0.51100000000E-03 0.  1.
</event>
<event>
 8    1  0.1106168E+005  0.1043930E+01  0.7957747E-01            NaN
         13   -1    0    0    0    0  0.00000000000E+00  0.00000000000E+00  0.74505805969E-08  0.10566000000E+00  0.10566000000E+00 0.  1.
     999900   -1    0    0    0    0 -0.00000000000E+00 -0.00000000000E+00 -0.74505805969E-08  0.93827000000E+00  0.93827000000E+00 0.  1.
     999902    2    1    2    0    0 -0.60457365316E-02  0.12936520772E-01  0.17853038747E-01  0.10210687775E+01  0.10208128198E+01 0.  0.
     999903    2    3    3    0    0 -0.65421856883E-01 -0.11071707663E+00  0.71425308350E-02  0.13037778129E+00  0.20225224182E-01 0.  0.
         14    1    1    2    0    0  0.60457365316E-02 -0.12936520772E-01 -0.17853038747E-01  0.22861222460E-01  0.00000000000E+00 0. -1.
     999901    1    3    3    0    0  0.59376120351E-01  0.12365359740E+00  0.10710507912E-01  0.89069099625E+00  0.88000000000E+00 0. -1.
        -11    1    4    4    0    0 -0.24241447847E-01 -0.35641053794E-01 -0.67375869136E-02  0.43630135316E-01  0.51100000000E-03 0. -1.
         11    1    4    4    0    0 -0.41180409036E-01 -0.75076022832E-01  0.13880117749E-01  0.86747645976E-01  0.51100000000E-03 0.  1.
</event>
<event>
 8    1  0.1106168E+005  0.1043930E+01  0.7957747E-01            NaN
         13   -1    0    0    0    0  0.00000000000E+00  0.00000000000E+00  0.74505805969E-08  0.10566000000E+00  0.10566000000E+00 0. -1.
     999900   -1    0    0    0    0 -0.00000000000E+00 -0.00000000000E+00 -0.74505805969E-08  0.93827000000E+00  0.93827000000E+00 0.  1.
     999902    2    1    2    0    0 -0.22909001644E-01  0.49265899499E-02  0.23925019450E-02  0.10203754312E+01  0.10201035256E+01 0.  0.
     999903    2    3    3    0    0 -0.91400289606E-01 -0.63337196141E-01 -0.70682179637E-01  0.13206753972E+00  0.89583019379E-02 0.  0.
         14    1    1    2    0    0  0.22909001644E-01 -0.49265899499E-02 -0.23925019450E-02  0.23554568780E-01  0.00000000000E+00 0.  1.
     999901    1    3    3    0    0  0.68491287963E-01  0.68263786091E-01  0.73074681582E-01  0.88830789150E+00  0.88000000000E+00 0. -1.
        -11    1    4    4    0    0 -0.13453937333E-01 -0.11168321636E-01 -0.78592590061E-02  0.19177301975E-01  0.51100000000E-03 0. -1.
         11    1    4    4    0    0 -0.77946352274E-01 -0.52168874504E-01 -0.62822920631E-01  0.11289023774E+00  0.51100000000E-03 0.  1.
</event>
<event>
 8    1  0.1106168E+005  0.1043930E+01  0.7957747E-01            NaN
         13   -1    0    0    0    0  0.00000000000E+00  0.00000000000E+00  0.74505805969E-08  0.10566000000E+00  0.10566000000E+00 0.  1.
     999900   -1    0    0    0    0 -0.00000000000E+00 -0.00000000000E+00 -0.74505805969E-08  0.93827000000E+00  0.93827000000E+00 0. -1.
     999902    2    1    2    0    0 -0.14329343627E-01 -0.85590169420E-02 -0.16059541619E-01  0.10207676224E+01  0.10205047982E+01 0.  0.
     999903    2    3    3    0    0 -0.43643700852E-02 -0.95463750482E-01  0.86630402031E-01  0.13048847631E+00  0.19749443312E-01 0.  0.
         14    1    1    2    0    0  0.14329343627E-01  0.85590169420E-02  0.16059541619E-01  0.23162377616E-01  0.00000000000E+00 0.  1.
     999901    1    3    3    0    0 -0.99649735421E-02  0.86904733540E-01 -0.10268994365E+00  0.89027914608E+00  0.88000000000E+00 0.  1.
        -11    1    4    4    0    0 -0.32206419940E-03 -0.53632636895E-01  0.61145976798E-01  0.81336677245E-01  0.51100000000E-03 0. -1.
         11    1    4    4    0    0 -0.40423058858E-02 -0.41831113587E-01  0.25484425232E-01  0.49151799064E-01  0.51100000000E-03 0.  1.
</event>
<event>
 8    1  0.1106168E+005  0.1043930E+01  0.7957747E-01            NaN
         13   -1    0    0    0    0  0.00000000000E+00  0.00000000000E+00  0.74505805969E-08  0.10566000000E+00  0.10566000000E+00 0.  1.
     999900   -1    0    0    0    0 -0.00000000000E+00 -0.00000000000E+00 -0.74505805969E-08  0.93827000000E+00  0.93827000000E+00 0.  1.
     999902    2    1    2    0    0 -0.22099630725E-01 -0.71786953910E-02 -0.48551561566E-02  0.10201918474E+01  0.10199156366E+01 0.  0.
     999903    2    3    3    0    0  0.43198997662E-03 -0.11616134076E+00 -0.58362180731E-01  0.13157050367E+00  0.20273371558E-01 0.  0.
         14    1    1    2    0    0  0.22099630725E-01  0.71786953910E-02  0.48551561566E-02  0.23738152561E-01  0.00000000000E+00 0.  1.
     999901    1    3    3    0    0 -0.22531620702E-01  0.10898264537E+00  0.53507024574E-01  0.88862134377E+00  0.88000000000E+00 0. -1.
        -11    1    4    4    0    0 -0.86169410764E-02 -0.84718248884E-01 -0.43645357700E-01  0.95690186211E-01  0.51100000000E-03 0.  1.
         11    1    4    4    0    0  0.90489310530E-02 -0.31443091874E-01 -0.14716823031E-01  0.35880317459E-01  0.51100000000E-03 0. -1.
</event>
<event>
 8    1  0.1106168E+005  0.1043930E+01  0.7957747E-01            NaN
         13   -1    0    0    0    0  0.00000000000E+00  0.00000000000E+00  0.74505805969E-08  0.10566000000E+00  0.10566000000E+00 0. -1.
     999900   -1    0    0    0    0 -0.00000000000E+00 -0.00000000000E+00 -0.74505805969E-08  0.93827000000E+00  0.93827000000E+00 0. -1.
     999902    2    1    2    0    0 -0.98078249722E-02 -0.11035999317E-02 -0.21487684831E-01  0.10202840286E+01  0.10200099838E+01 0.  0.
     999903    2    3    3    0    0 -0.64808339524E-01  0.45034133159E-01  0.10009040270E+00  0.12902930723E+00  0.20056903818E-01 0.  0.
         14    1    1    2    0    0  0.98078249722E-02  0.11035999317E-02  0.21487684831E-01  0.23645971388E-01  0.00000000000E+00 0. -1.
     999901    1    3    3    0    0  0.55000514552E-01 -0.46137733091E-01 -0.12157808753E+00  0.89125472138E+00  0.88000000000E+00 0. -1.
        -11    1    4    4    0    0 -0.51292015045E-01  0.36429965803E-01  0.65057130949E-01  0.90502511700E-01  0.51100000000E-03 0. -1.
         11    1    4    4    0    0 -0.13516324480E-01  0.86041673554E-02  0.35033271751E-01  0.38526795531E-01  0.51100000000E-03 0.  1.
</event>
<event>
 8    1  0.1106168E+005  0.1043930E+01  0.7957747E-01            NaN
         13   -1    0    0    0    0  0.00000000000E+00  0.00000000000E+00  0.74505805969E-08  0.10566000000E+00  0.10566000000E+00 0. -1.
     999900   -1    0    0    0    0 -0.00000000000E+00 -0.00000000000E+00 -0.74505805969E-08  0.93827000000E+00  0.93827000000E+00 0.  1.
     999902    2    1    2    0    0  0.17399763638E-01 -0.14602020331E-01 -0.79764662014E-02  0.10198552251E+01  0.10195710301E+01 0.  0.
     999903    2    3    3    0    0 -0.42614778354E-01  0.80185902279E-01  0.86603148632E-01  0.12770512617E+00  0.23721206496E-01 0.  0.
         14    1    1    2    0    0 -0.17399763638E-01  0.14602020331E-01  0.79764662014E-02  0.24074774879E-01  0.00000000000E+00 0. -1.
     999901    1    3    3    0    0  0.60014541993E-01 -0.94787922610E-01 -0.94579614833E-01  0.89215009895E+00  0.88000000000E+00 0.  1.
        -11    1    4    4    0    0 -0.31772350728E-02  0.27541978064E-01  0.30807702784E-01  0.41449138112E-01  0.51100000000E-03 0. -1.
         11    1    4    4    0    0 -0.39437543282E-01  0.52643924215E-01  0.55795445848E-01  0.86255988054E-01  0.51100000000E-03 0.  1.
</event>
<event>
 8    1  0.1106168E+005  0.1043930E+01  0.7957747E-01            NaN
         13   -1    0    0    0    0  0.00000000000E+00  0.00000000000E+00  0.74505805969E-08  0.10566000000E+00  0.10566000000E+00 0. -1.
     999900   -1    0    0    0    0 -0.00000000000E+00 -0.00000000000E+00 -0.74505805969E-08  0.93827000000E+00  0.93827000000E+00 0. -1.
     999902    2    1    2    0    0  0.13672314138E-01 -0.13645511684E-01  0.13486867480E-01  0.10203709729E+01  0.10200989631E+01 0.  0.
     999903    2    3    3    0    0 -0.84148005962E-01 -0.11993367341E-01 -0.94217661269E-01  0.12842265035E+00  0.19765668722E-01 0.  0.
         14    1    1    2    0    0 -0.13672314138E-01  0.13645511684E-01 -0.13486867480E-01  0.23559027091E-01  0.00000000000E+00 0.  1.
     999901    1    3    3    0    0  0.97820320101E-01 -0.16521443430E-02  0.10770452875E+00  0.89194832256E+00  0.88000000000E+00 0.  1.
        -11    1    4    4    0    0 -0.74965411614E-01 -0.11023098325E-01 -0.72731091729E-01  0.10503044540E+00  0.51100000000E-03 0.  1.
         11    1    4    4    0    0 -0.91825943481E-02 -0.97026901601E-03 -0.21486569540E-01  0.23392204952E-01  0.51100000000E-03 0. -1.
</event>
<event>
 8    1  0.1106168E+005  0.1043930E+01  0.7957747E-01            NaN
         13   -1    0    0    0    0  0.00000000000E+00  0.00000000000E+00  0.74505805969E-08  0.10566000000E+00  0.10566000000E+00 0.  1.
     999900   -1    0    0    0    0 -0.00000000000E+00 -0.00000000000E+00 -0.74505805969E-08  0.93827000000E+00  0.93827000000E+00 0. -1.
     999902    2    1    2    0    0 -0.91820944866E-02 -0.73849462407E-02  0.21952350499E-01  0.10190150651E+01  0.10187104343E+01 0.  0.
     999903    2    3    3    0    0 -0.67979867502E-01 -0.10398364843E+00 -0.33256989884E-01  0.13006255867E+00  0.19400522246E-01 0.  0.
         14    1    1    2    0    0  0.91820944866E-02  0.73849462407E-02 -0.21952350499E-01  0.24914934930E-01  0.00000000000E+00 0. -1.
     999901    1    3    3    0    0  0.58797773015E-01  0.96598702193E-01  0.55209340382E-01  0.88895250640E+00  0.88000000000E+00 0.  1.
        -11    1    4    4    0    0 -0.84374280447E-02 -0.26366916789E-01 -0.41486901955E-02  0.27997807848E-01  0.51100000000E-03 0.  1.
         11    1    4    4    0    0 -0.59542439457E-01 -0.77616731645E-01 -0.29108299688E-01  0.10206475082E+00  0.51100000000E-03 0. -1.
</event>
<event>
 8    1  0.1106168E+005  0.1043930E+01  0.7957747E-01            NaN
         13   -1    0    0    0    0  0.00000000000E+00  0.00000000000E+00  0.74505805969E-08  0.10566000000E+00  0.10566000000E+00 0.  1.
     999900   -1    0    0    0    0 -0.00000000000E+00 -0.00000000000E+00 -0.74505805969E-08  0.93827000000E+00  0.93827000000E+00 0.  1.
     999902    2    1    2    0    0 -0.88284345188E-03  0.21915830510E-01  0.30387343516E-02  0.10217868985E+01  0.10215469392E+01 0.  0.
     999903    2    3    3    0    0 -0.51773701593E-01  0.72795987533E-01  0.97570059421E-01  0.13380331683E+00  0.20090772044E-01 0.  0.
         14    1    1    2    0    0  0.88284345188E-03 -0.21915830510E-01 -0.30387343516E-02  0.22143101544E-01  0.00000000000E+00 0. -1.
     999901    1    3    3    0    0  0.50890858142E-01 -0.50880157022E-01 -0.94531325070E-01  0.88798358163E+00  0.88000000000E+00 0.  1.
        -11    1    4    4    0    0 -0.30610151948E-02  0.49798688555E-02  0.16130118145E-01  0.17164228506E-01  0.51100000000E-03 0.  1.
         11    1    4    4    0    0 -0.48712686399E-01  0.67816118677E-01  0.81439941276E-01  0.11663908832E+00  0.51100000000E-03 0. -1.
</event>
<event>
 8    1  0.1106168E+005  0.1043930E+01  0.7957747E-01            NaN
         13   -1    0    0    0    0  0.00000000000E+00  0.00000000000E+00  0.74505805969E-08  0.10566000000E+00  0.10566000000E+00 0. -1.
     999900   -1    0    0    0    0 -0.00000000000E+00 -0.00000000000E+00 -0.74505805969E-08  0.93827000000E+00  0.93827000000E+00 0.  1.
     999902    2    1    2    0    0 -0.32065475805E-02  0.18999844276E-01  0.10604790782E-01  0.10219359640E+01  0.10216992596E+01 0.  0.
     999903    2    3    3    0    0 -0.67290645478E-01 -0.96562812416E-01  0.53837168627E-01  0.13102040255E+00  0.20383754517E-01 0.  0.
         14    1    1    2    0    0  0.32065475805E-02 -0.18999844276E-01 -0.10604790782E-01  0.21994035951E-01  0.00000000000E+00 0.  1.
     999901    1    3    3    0    0  0.64084097898E-01  0.11556265669E+00 -0.43232377845E-01  0.89091556150E+00  0.88000000000E+00 0.  1.
        -11    1    4    4    0    0 -0.16295291430E-01 -0.15806289401E-01  0.32483135300E-02  0.22938787440E-01  0.51100000000E-03 0. -1.
         11    1    4    4    0    0 -0.50995354048E-01 -0.80756523015E-01  0.50588855097E-01  0.10808161511E+00  0.51100000000E-03 0.  1.
</event>
<event>
 8    1  0.1106168E+005  0.1043930E+01  0.7957747E-01            NaN
         13   -1    0    0    0    0  0.00000000000E+00  0.00000000000E+00  0.74505805969E-08  0.10566000000E+00  0.10566000000E+00 0. -1.
     999900   -1    0    0    0    0 -0.00000000000E+00 -0.00000000000E+00 -0.74505805969E-08  0.93827000000E+00  0.93827000000E+00 0. -1.
     999902    2    1    2    0    0 -0.21383724732E-01 -0.92563120138E-02  0.23870366427E-02  0.10205069144E+01  0.10202380709E+01 0.  0.
     999903    2    3    3    0    0  0.10215274502E+00  0.44053997366E-01 -0.60372333950E-01  0.12807092955E+00  0.19529625937E-01 0.  0.
         14    1    1    2    0    0  0.21383724732E-01  0.92563120138E-02 -0.23870366427E-02  0.23423085609E-01  0.00000000000E+00 0.  1.
     999901    1    3    3    0    0 -0.12353646975E+00 -0.53310309380E-01  0.62759370593E-01  0.89243598484E+00  0.88000000000E+00 0. -1.
        -11    1    4    4    0    0  0.39935620358E-01  0.21900682468E-01 -0.15054553815E-01  0.47972850421E-01  0.51100000000E-03 0.  1.
         11    1    4    4    0    0  0.62217124664E-01  0.22153314898E-01 -0.45317780136E-01  0.80098079127E-01  0.51100000000E-03 0. -1.
</event>
<event>
 8    1  0.1106168E+005  0.1043930E+01  0.7957747E-01            NaN
         13   -1    0    0    0    0  0.00000000000E+00  0.00000000000E+00  0.74505805969E-08  0.10566000000E+00  0.10566000000E+00 0. -1.
     999900   -1    0    0    0    0 -0.00000000000E+00 -0.00000000000E+00 -0.74505805969E-08  0.93827000000E+00  0.93827000000E+00 0. -1.
     999902    2    1    2    0    0  0.70750750300E-02 -0.39814472962E-02  0.22570965902E-01  0.10199433973E+01  0.10196613048E+01 0.  0.
     999903    2    3    3    0    0  0.26579150798E-01 -0.45738937287E-01 -0.11495341966E+00  0.12807061846E+00  0.19730508881E-01 0.  0.
         14    1    1    2    0    0 -0.70750750300E-02  0.39814472962E-02 -0.22570965902E-01  0.23986602740E-01  0.00000000000E+00 0.  1.
     999901    1    3    3    0    0 -0.19504075768E-01  0.41757489991E-01  0.13752438556E+00  0.89187277880E+00  0.88000000000E+00 0.  1.
        -11    1    4    4    0    0  0.98995894786E-02 -0.26712252926E-01 -0.41171248875E-01  0.50068744574E-01  0.51100000000E-03 0.  1.
         11    1    4    4    0    0  0.16679561320E-01 -0.19026684361E-01 -0.73782170781E-01  0.78001873886E-01  0.51100000000E-03 0. -1.
</event>
<event>
 8    1  0.1106168E+005  0.1043930E+01  0.7957747E-01            NaN
         13   -1    0    0    0    0  0.00000000000E+00  0.00000000000E+00  0.74505805969E-08  0.10566000000E+00  0.10566000000E+00 0.  1.
     999900   -1    0    0    0    0 -0.00000000000E+00 -0.00000000000E+00 -0.74505805969E-08  0.93827000000E+00  0.93827000000E+00 0.  1.
     999902    2    1    2    0    0  0.90677185361E-02  0.21712986483E-01  0.28785826514E-02  0.10202242298E+01  0.10199487809E+01 0.  0.
     999903    2    3    3    0    0 -0.10033657263E+00 -0.55082563745E-01 -0.54223066704E-01  0.12830077245E+00  0.20480005171E-01 0.  0.
         14    1    1    2    0    0 -0.90677185361E-02 -0.21712986483E-01 -0.28785826514E-02  0.23705770174E-01  0.00000000000E+00 0. -1.
     999901    1    3    3    0    0  0.10940429117E+00  0.76795550228E-01  0.57101649355E-01  0.89192345738E+00  0.88000000000E+00 0. -1.
        -11    1    4    4    0    0 -0.27791703115E-01 -0.94383967386E-02 -0.22193561435E-01  0.36800507948E-01  0.51100000000E-03 0. -1.
         11    1    4    4    0    0 -0.72544869517E-01 -0.45644167006E-01 -0.32029505269E-01  0.91500264501E-01  0.51100000000E-03 0.  1.
</event>
<event>
 8    1  0.1106168E+005  0.1043930E+01  0.7957747E-01            NaN
         13   -1    0    0    0    0  0.00000000000E+00  0.00000000000E+00  0.74505805969E-08  0.10566000000E+00  0.10566000000E+00 0. -1.
     999900   -1    0    0    0    0 -0.00000000000E+00 -0.00000000000E+00 -0.74505805969E-08  0.93827000000E+00  0.93827000000E+00 0. -1.
     999902    2    1    2    0    0 -0.52890728342E-02  0.51215849436E-02 -0.23381261391E-01  0.10194169768E+01  0.10191222126E+01 0.  0.
     999903    2    3    3    0    0 -0.48729426781E-01  0.10935020691E+00 -0.51289894822E-01  0.13176301164E+00  0.19970306432E-01 0.  0.
         14    1    1    2    0    0  0.52890728342E-02 -0.51215849436E-02  0.23381261391E-01  0.24513023233E-01  0.00000000000E+00 0. -1.
     999901    1    3    3    0    0  0.43440353947E-01 -0.10422862197E+00  0.27908633431E-01  0.88765396513E+00  0.88000000000E+00 0.  1.
        -11    1    4    4    0    0 -0.49759421119E-01  0.10161052994E+00 -0.50495514195E-01  0.12389817537E+00  0.51100000000E-03 0. -1.
         11    1    4    4    0    0  0.10299943373E-02  0.77396769752E-02 -0.79438062691E-03  0.78648362726E-02  0.51100000000E-03 0.  1.
</event>
<event>
 8    1  0.1106168E+005  0.1043930E+01  0.7957747E-01            NaN
         13   -1    0    0    0    0  0.00000000000E+00  0.00000000000E+00  0.74505805969E-08  0.10566000000E+00  0.10566000000E+00 0.  1.
     999900   -1    0    0    0    0 -0.00000000000E+00 -0.00000000000E+00 -0.74505805969E-08  0.93827000000E+00  0.93827000000E+00 0.  1.
     999902    2    1    2    0    0 -0.23734009219E-02  0.21976226508E-01 -0.78286115582E-02  0.10204805923E+01  0.10202111372E+01 0.  0.
     999903    2    3    3    0    0 -0.90385477161E-01 -0.88531939560E-01 -0.15007643714E-01  0.12918394198E+00  0.21350004494E-01 0.  0.
         14    1    1    2    0    0  0.23734009219E-02 -0.21976226508E-01  0.78286115582E-02  0.23449407720E-01  0.00000000000E+00 0.  1.
     999901    1    3    3    0    0  0.88012076239E-01  0.11050816607E+00  0.71790321562E-02  0.89129665030E+00  0.88000000000E+00 0.  1.
        -11    1    4    4    0    0 -0.58045948323E-01 -0.66508206032E-01 -0.17419128528E-01  0.89979779651E-01  0.51100000000E-03 0. -1.
         11    1    4    4    0    0 -0.32339528838E-01 -0.22023733528E-01  0.24114848136E-02  0.39204162330E-01  0.51100000000E-03 0.  1.
</event>
<event>
 8    1  0.1106168E+005  0.1043930E+01  0.7957747E-01            NaN
         13   -1    0    0    0    0  0.00000000000E+00  0.00000000000E+00  0.74505805969E-08  0.10566000000E+00  0.10566000000E+00 0. -1.
     999900   -1    0    0    0    0 -0.00000000000E+00 -0.00000000000E+00 -0.74505805969E-08  0.93827000000E+00  0.93827000000E+00 0.  1.
     999902    2    1    2    0    0 -0.16114349543E-01 -0.83171103322E-02  0.10164220115E-01  0.10231415908E+01  0.10229303774E+01 0.  0.
     999903    2    3    3    0    0  0.95052364233E-01 -0.46529189495E-01 -0.75004297731E-01  0.13124928921E+00  0.20020335138E-01 0.  0.
         14    1    1    2    0    0  0.16114349543E-01  0.83171103322E-02 -0.10164220115E-01  0.20788409175E-01  0.00000000000E+00 0.  1.
     999901    1    3    3    0    0 -0.11116671378E+00  0.38212079163E-01  0.85168517846E-01  0.89189230161E+00  0.88000000000E+00 0.  1.
        -11    1    4    4    0    0  0.47909898754E-01 -0.17207997214E-01 -0.25845038319E-01  0.57093788571E-01  0.51100000000E-03 0.  1.
         11    1    4    4    0    0  0.47142465479E-01 -0.29321192282E-01 -0.49159259412E-01  0.74155500640E-01  0.51100000000E-03 0. -1.
</event>
<event>
 8    1  0.1106168E+005  0.1043930E+01  0.7957747E-01            NaN
         13   -1    0    0    0    0  0.00000000000E+00  0.00000000000E+00  0.74505805969E-08  0.10566000000E+00  0.10566000000E+00 0. -1.
     999900   -1    0    0    0    0 -0.00000000000E+00 -0.00000000000E+00 -0.74505805969E-08  0.93827000000E+00  0.93827000000E+00 0.  1.
     999902    2    1    2    0    0 -0.15830649252E-01 -0.73122557319E-02 -0.16364381244E-01  0.10200161648E+01  0.10197358016E+01 0.  0.
     999903    2    3    3    0    0 -0.47750559726E-01 -0.79869830570E-03 -0.12242743546E+00  0.13304904108E+00  0.20804242544E-01 0.  0.
         14    1    1    2    0    0  0.15830649252E-01  0.73122557319E-02  0.16364381244E-01  0.23913835182E-01  0.00000000000E+00 0. -1.
     999901    1    3    3    0    0  0.31919910474E-01 -0.65135574262E-02  0.10606305421E+00  0.88696712373E+00  0.88000000000E+00 0. -1.
        -11    1    4    4    0    0 -0.38164292558E-01 -0.87098576719E-02 -0.84375464368E-01  0.93015347956E-01  0.51100000000E-03 0.  1.
         11    1    4    4    0    0 -0.95862671677E-02  0.79111593662E-02 -0.38051971089E-01  0.40033693128E-01  0.51100000000E-03 0. -1.
</event>
<event>
 8    1  0.1106168E+005  0.1043930E+01  0.7957747E-01            NaN
         13   -1    0    0    0    0  0.00000000000E+00  0.00000000000E+00  0.74505805969E-08  0.10566000000E+00  0.10566000000E+00 0. -1.
     999900   -1    0    0    0    0 -0.00000000000E+00 -0.00000000000E+00 -0.74505805969E-08  0.93827000000E+00  0.93827000000E+00 0.  1.
     999902    2    1    2    0    0 -0.21076537964E-01 -0.53845036030E-02 -0.77487804604E-03  0.10221627363E+01  0.10219309398E+01 0.  0.
     999903    2    3    3    0    0  0.63867603798E-01 -0.64951085568E-01  0.92358719299E-01  0.13118711834E+00  0.19550259739E-01 0.  0.
         14    1    1    2    0    0  0.21076537964E-01  0.53845036030E-02  0.77487804604E-03  0.21767263667E-01  0.00000000000E+00 0. -1.
     999901    1    3    3    0    0 -0.84944141761E-01  0.59566581965E-01 -0.93133597345E-01  0.89097561799E+00  0.88000000000E+00 0. -1.
        -11    1    4    4    0    0  0.53349045978E-01 -0.48835102551E-01  0.81947164175E-01  0.10930044275E+00  0.51100000000E-03 0. -1.
         11    1    4    4    0    0  0.10518557820E-01 -0.16115983017E-01  0.10411555125E-01  0.21886675588E-01  0.51100000000E-03 0.  1.
</event>
<event>
 8    1  0.1106168E+005  0.1043930E+01  0.7957747E-01            NaN
         13   -1    0    0    0    0  0.00000000000E+00  0.00000000000E+00  0.74505805969E-08  0.10566000000E+00  0.10566000000E+00 0. -1.
     999900   -1    0    0    0    0 -0.00000000000E+00 -0.00000000000E+00 -0.74505805969E-08  0.93827000000E+00  0.93827000000E+00 0. -1.
     999902    2    1    2    0    0 -0.11245392179E-01 -0.17096904344E-01 -0.12291677670E-01  0.10200585040E+01  0.10197791443E+01 0.  0.
     999903    2    3    3    0    0  0.25973932534E-01 -0.41416315172E-01 -0.12160119362E+00  0.13218166444E+00  0.17180971769E-01 0.  0.
         14    1    1    2    0    0  0.11245392179E-01  0.17096904344E-01  0.12291677670E-01  0.23871496044E-01  0.00000000000E+00 0. -1.
     999901    1    3    3    0    0 -0.37219324714E-01  0.24319410828E-01  0.10930951595E+00  0.88787683952E+00  0.88000000000E+00 0.  1.
        -11    1    4    4    0    0  0.80510543746E-02 -0.92062337698E-02 -0.14850909828E-01  0.19245385434E-01  0.51100000000E-03 0.  1.
         11    1    4    4    0    0  0.17922878160E-01 -0.32210081402E-01 -0.10675028379E+00  0.11293627901E+00  0.51100000000E-03 0. -1.
</event>
<event>
 8    1  0.1106168E+005  0.1043930E+01  0.7957747E-01            NaN
         13   -1    0    0    0    0  0.00000000000E+00  0.00000000000E+00  0.74505805969E-08  0.10566000000E+00  0.10566000000E+00 0. -1.
     999900   -1    0    0    0    0 -0.00000000000E+00 -0.00000000000E+00 -0.74505805969E-08  0.93827000000E+00  0.93827000000E+00 0. -1.
     999902    2    1    2    0    0 -0.90148810802E-02 -0.16301078199E-01  0.15007248859E-01  0.10200090730E+01  0.10197285414E+01 0.  0.
     999903    2    3    3    0    0 -0.28624896360E-01  0.11811504970E+00 -0.36327060945E-01  0.12810803614E+00  0.17929414667E-01 0.  0.
         14    1    1    2    0    0  0.90148810802E-02  0.16301078199E-01 -0.15007248859E-01  0.23920927024E-01  0.00000000000E+00 0.  1.
     999901    1    3    3    0    0  0.19610015280E-01 -0.13441612790E+00  0.51334309804E-01  0.89190103683E+00  0.88000000000E+00 0.  1.
        -11    1    4    4    0    0 -0.55570946421E-02  0.32803354496E-01 -0.18071790596E-01  0.37865447355E-01  0.51100000000E-03 0.  1.
         11    1    4    4    0    0 -0.23067801718E-01  0.85311695205E-01 -0.18255270349E-01  0.90242588789E-01  0.51100000000E-03 0. -1.
</event>
<event>
 8    1  0.1106168E+005  0.1043930E+01  0.7957747E-01            NaN
         13   -1    0    0    0    0  0.00000000000E+00  0.00000000000E+00  0.74505805969E-08  0.10566000000E+00  0.10566000000E+00 0.  1.
     999900   -1    0    0    0    0 -0.00000000000E+00 -0.00000000000E+00 -0.74505805969E-08  0.93827000000E+00  0.93827000000E+00 0.  1.
     999902    2    1    2    0    0  0.37814878298E-02  0.22357476973E-01  0.81707245199E-02  0.10198277767E+01  0.10195429256E+01 0.  0.
     999903    2    3    3    0    0 -0.43535871013E-01 -0.46759079296E-01 -0.10920631178E+00  0.12809160530E+00  0.19991429526E-01 0.  0.
         14    1    1    2    0    0 -0.37814878298E-02 -0.22357476973E-01 -0.81707245199E-02  0.24102223258E-01  0.00000000000E+00 0. -1.
     999901    1    3    3    0    0  0.47317358843E-01  0.69116556269E-01  0.11737703630E+00  0.89173617144E+00  0.88000000000E+00 0. -1.
        -11    1    4    4    0    0 -0.15693364093E-01 -0.26766263592E-01 -0.37983578111E-01  0.49048219849E-01  0.51100000000E-03 0. -1.
         11    1    4    4    0    0 -0.27842506920E-01 -0.19992815703E-01 -0.71222733674E-01  0.79043385456E-01  0.51100000000E-03 0.  1.
</event>
<event>
 8    1  0.1106168E+005  0.1043930E+01  0.7957747E-01            NaN
         13   -1    0    0    0    0  0.00000000000E+00  0.00000000000E+00  0.74505805969E-08  0.10566000000E+00  0.10566000000E+00 0. -1.
     999900   -1    0    0    0    0 -0.00000000000E+00 -0.00000000000E+00 -0.74505805969E-08  0.93827000000E+00  0.93827000000E+00 0.  1.
     999902    2    1    2    0    0 -0.25762209874E-02 -0.20156085012E-01  0.11391026464E-01  0.10206349327E+01  0.10203690536E+01 0.  0.
     999903    2    3    3    0    0  0.65219797447E-01 -0.88416086675E-01  0.72878504815E-01  0.13325877910E+00  0.19380386526E-01 0.  0.
         14    1    1    2    0    0  0.25762209874E-02  0.20156085012E-01 -0.11391026464E-01  0.23295067321E-01  0.00000000000E+00 0.  1.
     999901    1    3    3    0    0 -0.67796018434E-01  0.68260001663E-01 -0.61487478351E-01  0.88737615358E+00  0.88000000000E+00 0. -1.
        -11    1    4    4    0    0  0.35928896694E-01 -0.63983021985E-01  0.46359037367E-01  0.86799390474E-01  0.51100000000E-03 0.  1.
         11    1    4    4    0    0  0.29290900752E-01 -0.24433064690E-01  0.26519467448E-01  0.46459388629E-01  0.51100000000E-03 0. -1.
</event>
<event>
 8    1  0.1106168E+005  0.1043930E+01  0.7957747E-01            NaN
         13   -1    0    0    0    0  0.00000000000E+00  0.00000000000E+00  0.74505805969E-08  0.10566000000E+00  0.10566000000E+00 0.  1.
     999900   -1    0    0    0    0 -0.00000000000E+00 -0.00000000000E+00 -0.74505805969E-08  0.93827000000E+00  0.93827000000E+00 0.  1.
     999902    2    1    2    0    0  0.21406556783E-01 -0.96185249059E-02 -0.14636144379E-02  0.10204161985E+01  0.10201452442E+01 0.  0.
     999903    2    3    3    0    0  0.12618713599E+00  0.33494834364E-01 -0.15246756626E-01  0.13304496470E+00  0.20576730234E-01 0.  0.
         14    1    1    2    0    0 -0.21406556783E-01  0.96185249059E-02  0.14636144379E-02  0.23513801519E-01  0.00000000000E+00 0.  1.
     999901    1    3    3    0    0 -0.10478057921E+00 -0.43113359270E-01  0.13783142188E-01  0.88737123378E+00  0.88000000000E+00 0. -1.
        -11    1    4    4    0    0  0.84464282590E-01  0.12282288747E-01 -0.10445962661E-01  0.85990981545E-01  0.51100000000E-03 0. -1.
         11    1    4    4    0    0  0.41722853400E-01  0.21212545616E-01 -0.48007939653E-02  0.47053983158E-01  0.51100000000E-03 0.  1.
</event>
<event>
 8    1  0.1106168E+005  0.1043930E+01  0.7957747E-01            NaN
         13   -1    0    0    0    0  0.00000000000E+00  0.00000000000E+00  0.74505805969E-08  0.10566000000E+00  0.10566000000E+00 0. -1.
     999900   -1    0    0    0    0 -0.00000000000E+00 -0.00000000000E+00 -0.74505805969E-08  0.93827000000E+00  0.93827000000E+00 0.  1.
     999902    2    1    2    0    0  0.70588831623E-02 -0.19708784889E-01  0.11145864070E-01  0.10202130373E+01  0.10199373251E+01 0.  0.
     999903    2    3    3    0    0  0.34663942927E-01 -0.91432606694E-02  0.12468755679E+00  0.13242624668E+00  0.26543093963E-01 0.  0.
         14    1    1    2    0    0 -0.70588831623E-02  0.19708784889E-01 -0.11145864070E-01  0.23716962689E-01  0.00000000000E+00 0.  1.
     999901    1    3    3    0    0 -0.27605059765E-01 -0.10565524220E-01 -0.11354169272E+00  0.88778679063E+00  0.88000000000E+00 0.  1.
        -11    1    4    4    0    0  0.26924488337E-01 -0.14967231536E-01  0.64716519863E-01  0.71675903596E-01  0.51100000000E-03 0. -1.
         11    1    4    4    0    0  0.77394545900E-02  0.58239708667E-02  0.59971036929E-01  0.60750343088E-01  0.51100000000E-03 0.  1.
</event>
<event>
 8    1  0.1106168E+005  0.1043930E+01  0.7957747E-01            NaN
         13   -1    0    0    0    0  0.00000000000E+00  0.00000000000E+00  0.74505805969E-08  0.10566000000E+00  0.10566000000E+00 0. -1.
     999900   -1    0    0    0    0 -0.00000000000E+00 -0.00000000000E+00 -0.74505805969E-08  0.93827000000E+00  0.93827000000E+00 0.  1.
     999902    2    1    2    0    0 -0.19132943849E-01  0.27175209506E-02 -0.12849215474E-01  0.10207231734E+01  0.10204593280E+01 0.  0.
     999903    2    3    3    0    0 -0.12457648019E+00 -0.11993926070E-01  0.39497486630E-01  0.13276205760E+00  0.20063868261E-01 0.  0.
         14    1    1    2    0    0  0.19132943849E-01 -0.27175209506E-02  0.12849215474E-01  0.23206826555E-01  0.00000000000E+00 0.  1.
     999901    1    3    3    0    0  0.10544353634E+00  0.14711447021E-01 -0.52346702104E-01  0.88796111584E+00  0.88000000000E+00 0.  1.
        -11    1    4    4    0    0 -0.90137336446E-01 -0.21535177208E-02  0.34743691100E-01  0.96626923020E-01  0.51100000000E-03 0.  1.
         11    1    4    4    0    0 -0.34439143743E-01 -0.98404083494E-02  0.47537955298E-02  0.36135134581E-01  0.51100000000E-03 0. -1.
</event>
<event>
 8    1  0.1106168E+005  0.1043930E+01  0.7957747E-01            NaN
         13   -1    0    0    0    0  0.00000000000E+00  0.00000000000E+00  0.74505805969E-08  0.10566000000E+00  0.10566000000E+00 0. -1.
     999900   -1    0    0    0    0 -0.00000000000E+00 -0.00000000000E+00 -0.74505805969E-08  0.93827000000E+00  0.93827000000E+00 0. -1.
     999902    2    1    2    0    0 -0.76045248149E-03  0.20647986649E-01  0.11823346496E-01  0.10201243460E+01  0.10198465434E+01 0.  0.
     999903    2    3    3    0    0 -0.84661328733E-01 -0.57201166992E-01 -0.75540115755E-01  0.12842247748E+00  0.18614766888E-01 0.  0.
         14    1    1    2    0    0  0.76045248149E-03 -0.20647986649E-01 -0.11823346496E-01  0.23805654013E-01  0.00000000000E+00 0.  1.
     999901    1    3    3    0    0  0.83900876251E-01  0.77849153641E-01  0.87363462251E-01  0.89170186850E+00  0.88000000000E+00 0.  1.
        -11    1    4    4    0    0 -0.27417265835E-01 -0.17224538422E-01 -0.13737226178E-01  0.35176180773E-01  0.51100000000E-03 0. -1.
         11    1    4    4    0    0 -0.57244062898E-01 -0.39976628570E-01 -0.61802889577E-01  0.93246296709E-01  0.51100000000E-03 0.  1.
</event>
<event>
 8    1  0.1106168E+005  0.1043930E+01  0.7957747E-01            NaN
         13   -1    0    0    0    0  0.00000000000E+00  0.00000000000E+00  0.74505805969E-08  0.10566000000E+00  0.10566000000E+00 0. -1.
     999900   -1    0    0    0    0 -0.00000000000E+00 -0.00000000000E+00 -0.74505805969E-08  0.93827000000E+00  0.93827000000E+00 0. -1.
     999902    2    1    2    0    0  0.88086981901E-02 -0.56870464379E-02 -0.20479335814E-01  0.10209226347E+01  0.10206633565E+01 0.  0.
     999903    2    3    3    0    0  0.67368020235E-01  0.87281917735E-01  0.65842610367E-01  0.12989856049E+00  0.19539789229E-01 0.  0.
         14    1    1    2    0    0 -0.88086981901E-02  0.56870464379E-02  0.20479335814E-01  0.23007365263E-01  0.00000000000E+00 0. -1.
     999901    1    3    3    0    0 -0.58559322045E-01 -0.92968964172E-01 -0.86321946181E-01  0.89102407425E+00  0.88000000000E+00 0. -1.
        -11    1    4    4    0    0  0.50151368041E-01  0.66069443523E-01  0.58814260904E-01  0.10168436207E+00  0.51100000000E-03 0.  1.
         11    1    4    4    0    0  0.17216652194E-01  0.21212474212E-01  0.70283494634E-02  0.28214198414E-01  0.51100000000E-03 0. -1.
</event>
<event>
 8    1  0.1106168E+005  0.1043930E+01  0.7957747E-01            NaN
         13   -1    0    0    0    0  0.00000000000E+00  0.00000000000E+00  0.74505805969E-08  0.10566000000E+00  0.10566000000E+00 0.  1.
     999900   -1    0    0    0    0 -0.00000000000E+00 -0.00000000000E+00 -0.74505805969E-08  0.93827000000E+00  0.93827000000E+00 0.  1.
     999902    2    1    2    0    0 -0.20797443258E-01  0.34105499242E-02 -0.91521551174E-02  0.10209533283E+01  0.10206947493E+01 0.  0.
     999903    2    3    3    0    0  0.78904918351E-01  0.94641067647E-01  0.35803113672E-01  0.12950251957E+00  0.17496336815E-01 0.  0.
         14    1    1    2    0    0  0.20797443258E-01 -0.34105499242E-02  0.91521551174E-02  0.22976671651E-01  0.00000000000E+00 0. -1.
     999901    1    3    3    0    0 -0.99702361609E-01 -0.91230517723E-01 -0.44955268790E-01  0.89145080878E+00  0.88000000000E+00 0. -1.
        -11    1    4    4    0    0  0.47106082976E-01  0.61939006032E-01  0.14502870270E-01  0.79158182702E-01  0.51100000000E-03 0. -1.
         11    1    4    4    0    0  0.31798835375E-01  0.32702061616E-01  0.21300243402E-01  0.50344336872E-01  0.51100000000E-03 0.  1.
</event>
<event>
 8    1  0.1106168E+005  0.1043930E+01  0.7957747E-01            NaN
         13   -1    0    0    0    0  0.00000000000E+00  0.00000000000E+00  0.74505805969E-08  0.10566000000E+00  0.10566000000E+00 0. -1.
     999900   -1    0    0    0    0 -0.00000000000E+00 -0.00000000000E+00 -0.74505805969E-08  0.93827000000E+00  0.93827000000E+00 0.  1.
     999902    2    1    2    0    0  0.95455855560E-02 -0.55068480436E-02  0.21133165565E-01  0.10200961110E+01  0.10198176412E+01 0.  0.
     999903    2    3    3    0    0 -0.75782150523E-01  0.46051260200E-01 -0.86832311313E-01  0.12791025295E+00  0.30943975474E-01 0.  0.
         14    1    1    2    0    0 -0.95455855560E-02  0.55068480436E-02 -0.21133165565E-01  0.23833889020E-01  0.00000000000E+00 0.  1.
     999901    1    3    3    0    0  0.85327736079E-01 -0.51558108244E-01  0.10796547688E+00  0.89218585803E+00  0.88000000000E+00 0. -1.
        -11    1    4    4    0    0 -0.41889673387E-01  0.42623856460E-01 -0.52629079858E-01  0.79634283092E-01  0.51100000000E-03 0.  1.
         11    1    4    4    0    0 -0.33892477136E-01  0.34274037403E-02 -0.34203231455E-01  0.48275969859E-01  0.51100000000E-03 0. -1.
</event>
<event>
 8    1  0.1106168E+005  0.1043930E+01  0.7957747E-01            NaN
         13   -1    0    0    0    0  0.00000000000E+00  0.00000000000E+00  0.74505805969E-08  0.10566000000E+00  0.10566000000E+00 0.  1.
     999900   -1    0    0    0    0 -0.00000000000E+00 -0.00000000000E+00 -0.74505805969E-08  0.93827000000E+00  0.93827000000E+00 0.  1.
     999902    2    1    2    0    0  0.13772310619E-01 -0.75748515840E-02  0.12396339740E-01  0.10239119043E+01  0.10237162027E+01 0.  0.
     999903    2    3    3    0    0  0.35992507877E-01 -0.68223675618E-01 -0.10693827048E+00  0.13351156389E+00  0.20966961143E-01 0.  0.
         14    1    1    2    0    0 -0.13772310619E-01  0.75748515840E-02 -0.12396339740E-01  0.20018095694E-01  0.00000000000E+00 0. -1.
     999901    1    3    3    0    0 -0.22220197258E-01  0.60648824034E-01  0.11933461022E+00  0.89040034042E+00  0.88000000000E+00 0. -1.
        -11    1    4    4    0    0  0.36716374900E-01 -0.55481481529E-01 -0.95333397378E-01  0.11625405264E+00  0.51100000000E-03 0. -1.
         11    1    4    4    0    0 -0.72386702354E-03 -0.12742194089E-01 -0.11604873104E-01  0.17257511246E-01  0.51100000000E-03 0.  1.
</event>
<event>
 8    1  0.1106168E+005  0.1043930E+01  0.7957747E-01            NaN
         13   -1    0    0    0    0  0.00000000000E+00  0.00000000000E+00  0.74505805969E-08  0.10566000000E+00  0.10566000000E+00 0. -1.
     999900   -1    0    0    0    0 -0.00000000000E+00 -0.00000000000E+00 -0.74505805969E-08  0.93827000000E+00  0.93827000000E+00 0.  1.
     999902    2    1    2    0    0  0.67314616751E-02  0.22350867634E-01 -0.20931746167E-02  0.10204938049E+01  0.10202246569E+01 0.  0.
     999903    2    3    3    0    0  0.51842615414E-01 -0.10598386516E+00 -0.47898122435E-01  0.12886444633E+00  0.19788353873E-01 0.  0.
         14    1    1    2    0    0 -0.67314616751E-02 -0.22350867634E-01  0.20931746167E-02  0.23436195089E-01  0.00000000000E+00 0.  1.
     999901    1    3    3    0    0 -0.45111153739E-01  0.12833473279E+00  0.45804947818E-01  0.89162935858E+00  0.88000000000E+00 0. -1.
        -11    1    4    4    0    0  0.15007098617E-01 -0.50743179038E-01 -0.25908422214E-01  0.58920206130E-01  0.51100000000E-03 0.  1.
         11    1    4    4    0    0  0.36835516797E-01 -0.55240686121E-01 -0.21989700221E-01  0.69944240203E-01  0.51100000000E-03 0. -1.
</event>
<event>
 8    1  0.1106168E+005  0.1043930E+01  0.7957747E-01            NaN
         13   -1    0    0    0    0  0.00000000000E+00  0.00000000000E+00  0.74505805969E-08  0.10566000000E+00  0.10566000000E+00 0.  1.
     999900   -1    0    0    0    0 -0.00000000000E+00 -0.00000000000E+00 -0.74505805969E-08  0.93827000000E+00  0.93827000000E+00 0. -1.
     999902    2    1    2    0    0  0.17124787783E-01  0.79447325106E-02 -0.16125681581E-01  0.10191022990E+01  0.10187998238E+01 0.  0.
     999903    2    3    3    0    0  0.11634578434E+00 -0.50600079980E-01 -0.28422670796E-01  0.13150806896E+00  0.19743716967E-01 0.  0.
         14    1    1    2    0    0 -0.17124787783E-01 -0.79447325106E-02  0.16125681581E-01  0.24827701016E-01  0.00000000000E+00 0.  1.
     999901    1    3    3    0    0 -0.99220996554E-01  0.58544812490E-01  0.12296989215E-01  0.88759423002E+00  0.88000000000E+00 0. -1.
        -11    1    4    4    0    0  0.65926371523E-01 -0.21283136439E-01 -0.22698968005E-01  0.72902418536E-01  0.51100000000E-03 0. -1.
         11    1    4    4    0    0  0.50419412814E-01 -0.29316943541E-01 -0.57237027907E-02  0.58605650425E-01  0.51100000000E-03 0.  1.
</event>
<event>
 8    1  0.1106168E+005  0.1043930E+01  0.7957747E-01            NaN
         13   -1    0    0    0    0  0.00000000000E+00  0.00000000000E+00  0.74505805969E-08  0.10566000000E+00  0.10566000000E+00 0.  1.
     999900   -1    0    0    0    0 -0.00000000000E+00 -0.00000000000E+00 -0.74505805969E-08  0.93827000000E+00  0.93827000000E+00 0. -1.
     999902    2    1    2    0    0 -0.50227077103E-02  0.10702295344E-01 -0.22096717007E-01  0.10188694409E+01  0.10185611941E+01 0.  0.
     999903    2    3    3    0    0  0.32060965919E-01 -0.96593861546E-01 -0.78183286511E-01  0.12980624441E+00  0.19461633369E-01 0.  0.
         14    1    1    2    0    0  0.50227077103E-02 -0.10702295344E-01  0.22096717007E-01  0.25060559069E-01  0.00000000000E+00 0.  1.
     999901    1    3    3    0    0 -0.37083673629E-01  0.10729615689E+00  0.56086569504E-01  0.88906319652E+00  0.88000000000E+00 0. -1.
        -11    1    4    4    0    0  0.26382971467E-01 -0.53292469349E-01 -0.38875214789E-01  0.71047110558E-01  0.51100000000E-03 0. -1.
         11    1    4    4    0    0  0.56779944518E-02 -0.43301392197E-01 -0.39308071723E-01  0.58759133849E-01  0.51100000000E-03 0.  1.
</event>
<event>
 8    1  0.1106168E+005  0.1043930E+01  0.7957747E-01            NaN
         13   -1    0    0    0    0  0.00000000000E+00  0.00000000000E+00  0.74505805969E-08  0.10566000000E+00  0.10566000000E+00 0. -1.
     999900   -1    0    0    0    0 -0.00000000000E+00 -0.00000000000E+00 -0.74505805969E-08  0.93827000000E+00  0.93827000000E+00 0. -1.
     999902    2    1    2    0    0  0.12685133405E-01  0.18404817611E-01 -0.13747280555E-01  0.10176880938E+01  0.10173497032E+01 0.  0.
     999903    2    3    3    0    0 -0.11376980877E+00  0.14085048033E-01  0.49889605284E-01  0.12636370497E+00  0.18353616859E-01 0.  0.
         14    1    1    2    0    0 -0.12685133405E-01 -0.18404817611E-01  0.13747280555E-01  0.26241906246E-01  0.00000000000E+00 0. -1.
     999901    1    3    3    0    0  0.12645494217E+00  0.43197695777E-02 -0.63636885838E-01  0.89132438879E+00  0.88000000000E+00 0. -1.
        -11    1    4    4    0    0 -0.11328391101E-01  0.54069218106E-02  0.12384527821E-02  0.12623871621E-01  0.51100000000E-03 0.  1.
         11    1    4    4    0    0 -0.10244141767E+00  0.86781262223E-02  0.48651152502E-01  0.11373983335E+00  0.51100000000E-03 0. -1.
</event>
<event>
 8    1  0.1106168E+005  0.1043930E+01  0.7957747E-01            NaN
         13   -1    0    0    0    0  0.00000000000E+00  0.00000000000E+00  0.74505805969E-08  0.10566000000E+00  0.10566000000E+00 0. -1.
     999900   -1    0    0    0    0 -0.00000000000E+00 -0.00000000000E+00 -0.74505805969E-08  0.93827000000E+00  0.93827000000E+00 0. -1.
     999902    2    1    2    0    0  0.78868739868E-02  0.17866955177E-01  0.16891659211E-01  0.10181083227E+01  0.10177808201E+01 0.  0.
     999903    2    3    3    0    0 -0.11120392741E+00 -0.55367233119E-01  0.17939100890E-01  0.12707130749E+00  0.19835873343E-01 0.  0.
         14    1    1    2    0    0 -0.78868739868E-02 -0.17866955177E-01 -0.16891659211E-01  0.25821677317E-01  0.00000000000E+00 0.  1.
     999901    1    3    3    0    0  0.11909080140E+00  0.73234188297E-01 -0.10474416791E-02  0.89103701519E+00  0.88000000000E+00 0. -1.
        -11    1    4    4    0    0 -0.74512423441E-01 -0.46726059551E-01  0.15364862647E-01  0.89284746813E-01  0.51100000000E-03 0.  1.
         11    1    4    4    0    0 -0.36691503969E-01 -0.86411735682E-02  0.25742382425E-02  0.37786560675E-01  0.51100000000E-03 0. -1.
</event>
<event>
 8    1  0.1106168E+005  0.1043930E+01  0.7957747E-01            NaN
         13   -1    0    0    0    0  0.00000000000E+00  0.00000000000E+00  0.74505805969E-08  0.10566000000E+00  0.10566000000E+00 0. -1.
     999900   -1    0    0    0    0 -0.00000000000E+00 -0.00000000000E+00 -0.74505805969E-08  0.93827000000E+00  0.93827000000E+00 0. -1.
     999902    2    1    2    0    0 -0.12818949407E-01  0.19696198869E-01  0.64357469268E-03  0.10204208549E+01  0.10201500092E+01 0.  0.
     999903    2    3    3    0    0  0.60834308509E-01  0.45267189125E-01  0.10477445361E+00  0.13085808711E+00  0.19905309083E-01 0.  0.
         14    1    1    2    0    0  0.12818949407E-01 -0.19696198869E-01 -0.64357469268E-03  0.23509145075E-01  0.00000000000E+00 0. -1.
     999901    1    3    3    0    0 -0.73653257916E-01 -0.25570990256E-01 -0.10413087891E+00  0.88956276782E+00  0.88000000000E+00 0. -1.
        -11    1    4    4    0    0  0.71034550768E-02 -0.12345374567E-02  0.11787192918E-01  0.13826864961E-01  0.51100000000E-03 0.  1.
         11    1    4    4    0    0  0.53730853432E-01  0.46501726582E-01  0.92987260688E-01  0.11703122215E+00  0.51100000000E-03 0. -1.
</event>
<event>
 8    1  0.1106168E+005  0.1043930E+01  0.7957747E-01            NaN
         13   -1    0    0    0    0  0.00000000000E+00  0.00000000000E+00  0.74505805969E-08  0.10566000000E+00  0.10566000000E+00 0. -1.
     999900   -1    0    0    0    0 -0.00000000000E+00 -0.00000000000E+00 -0.74505805969E-08  0.93827000000E+00  0.93827000000E+00 0. -1.
     999902    2    1    2    0    0 -0.69987743427E-03  0.16231727783E-01  0.18258932965E-01  0.10194893075E+01  0.10191963014E+01 0.  0.
     999903    2    3    3    0    0  0.85118442270E-02 -0.52855619570E-03 -0.12566369325E+00  0.12759274107E+00  0.20391491071E-01 0.  0.
         14    1    1    2    0    0  0.69987743427E-03 -0.16231727783E-01 -0.18258932965E-01  0.24440692467E-01  0.00000000000E+00 0.  1.
     999901    1    3    3    0    0 -0.92117216613E-02  0.16760283979E-01  0.14392262622E+00  0.89189656646E+00  0.88000000000E+00 0.  1.
        -11    1    4    4    0    0  0.14213914929E-01  0.29438371704E-02 -0.67505415204E-01  0.69050298752E-01  0.51100000000E-03 0. -1.
         11    1    4    4    0    0 -0.57020707019E-02 -0.34723933661E-02 -0.58158278047E-01  0.58542442317E-01  0.51100000000E-03 0.  1.
</event>
<event>
 7    1  0.1106168E+005  0.1043930E+01  0.7957747E-01            NaN
         13   -1    0    0    0    0  0.00000000000E+00  0.00000000000E+00  0.74505805969E-08  0.10566000000E+00  0.10566000000E+00 0.  1.
     999900   -1    0    0    0    0 -0.00000000000E+00 -0.00000000000E+00 -0.74505805969E-08  0.93827000000E+00  0.93827000000E+00 0. -1.
     999903    2    1    2    0    0 -0.72908207432E-01 -0.69537104760E-01 -0.38514889264E-01  0.10963990058E+00  0.19659487676E-01 0.  0.
         14    1    1    2    0    0 -0.28509637587E-01 -0.26121805450E-01  0.19044114942E-01  0.43102511171E-01  0.00000000000E+00 0.  1.
     999901    1    1    2    0    0  0.10141784502E+00  0.95658910210E-01  0.19470774322E-01  0.89118758825E+00  0.88000000000E+00 0. -1.
        -11    1    3    3    0    0 -0.26795576772E-01 -0.17925367872E-01 -0.20190080115E-01  0.38042373795E-01  0.51100000000E-03 0.  1.
         11    1    3    3    0    0 -0.46112630659E-01 -0.51611736887E-01 -0.18324809149E-01  0.71597526788E-01  0.51100000000E-03 0. -1.
</event>
<event>
 8    1  0.1106168E+005  0.1043930E+01  0.7957747E-01            NaN
         13   -1    0    0    0    0  0.00000000000E+00  0.00000000000E+00  0.74505805969E-08  0.10566000000E+00  0.10566000000E+00 0.  1.
     999900   -1    0    0    0    0 -0.00000000000E+00 -0.00000000000E+00 -0.74505805969E-08  0.93827000000E+00  0.93827000000E+00 0. -1.
     999902    2    1    2    0    0 -0.10205550713E-01  0.18975320133E-01 -0.69450287959E-02  0.10212926533E+01  0.10210417397E+01 0.  0.
     999903    2    3    3    0    0 -0.12071603750E+00  0.15512835959E-01  0.48621419221E-01  0.13263513401E+00  0.20372201129E-01 0.  0.
         14    1    1    2    0    0  0.10205550713E-01 -0.18975320133E-01  0.69450287959E-02  0.22637346675E-01  0.00000000000E+00 0.  1.
     999901    1    3    3    0    0  0.11051048678E+00  0.34624841733E-02 -0.55566448017E-01  0.88865751931E+00  0.88000000000E+00 0. -1.
        -11    1    4    4    0    0 -0.38792630356E-01 -0.56789841681E-03  0.23871850299E-01  0.45555647688E-01  0.51100000000E-03 0. -1.
         11    1    4    4    0    0 -0.81923407141E-01  0.16080734376E-01  0.24749568922E-01  0.87079486324E-01  0.51100000000E-03 0.  1.
</event>
<event>
 8    1  0.1106168E+005  0.1043930E+01  0.7957747E-01            NaN
         13   -1    0    0    0    0  0.00000000000E+00  0.00000000000E+00  0.74505805969E-08  0.10566000000E+00  0.10566000000E+00 0. -1.
     999900   -1    0    0    0    0 -0.00000000000E+00 -0.00000000000E+00 -0.74505805969E-08  0.93827000000E+00  0.93827000000E+00 0.  1.
     999902    2    1    2    0    0 -0.13784030081E-01 -0.28001848594E-01  0.59817072023E-02  0.10121513306E+01  0.10116523277E+01 0.  0.
     999903    2    3    3    0    0  0.53648502320E-01 -0.49181667066E-01 -0.97591069426E-01  0.12326266982E+00  0.19304682434E-01 0.  0.
         14    1    1    2    0    0  0.13784030081E-01  0.28001848594E-01 -0.59817072023E-02  0.31778669434E-01  0.00000000000E+00 0. -1.
     999901    1    3    3    0    0 -0.67432532401E-01  0.21179818471E-01  0.10357277663E+00  0.88888866074E+00  0.88000000000E+00 0. -1.
        -11    1    4    4    0    0  0.36494711150E-01 -0.20936975350E-01 -0.50517117621E-01  0.65745427008E-01  0.51100000000E-03 0. -1.
         11    1    4    4    0    0  0.17153791170E-01 -0.28244691716E-01 -0.47073951805E-01  0.57517242816E-01  0.51100000000E-03 0.  1.
</event>
<event>
 8    1  0.1106168E+005  0.1043930E+01  0.7957747E-01            NaN
         13   -1    0    0    0    0  0.00000000000E+00  0.00000000000E+00  0.74505805969E-08  0.10566000000E+00  0.10566000000E+00 0. -1.
     999900   -1    0    0    0    0 -0.00000000000E+00 -0.00000000000E+00 -0.74505805969E-08  0.93827000000E+00  0.93827000000E+00 0.  1.
     999902    2    1    2    0    0 -0.12647464698E-01 -0.12563927530E-01  0.15704554962E-01  0.10201719764E+01  0.10198952975E+01 0.  0.
     999903    2    3    3    0    0 -0.80372705026E-01 -0.10285715849E+00 -0.12682368116E-01  0.13250909382E+00  0.18932794739E-01 0.  0.
         14    1    1    2    0    0  0.12647464698E-01  0.12563927530E-01 -0.15704554962E-01  0.23758023588E-01  0.00000000000E+00 0.  1.
     999901    1    3    3    0    0  0.67725240329E-01  0.90293230962E-01  0.28386923078E-01  0.88766288260E+00  0.88000000000E+00 0. -1.
        -11    1    4    4    0    0 -0.34825330623E-01 -0.32054666618E-01 -0.93807368086E-02  0.48255203336E-01  0.51100000000E-03 0. -1.
         11    1    4    4    0    0 -0.45547374403E-01 -0.70802491875E-01 -0.33016313073E-02  0.84253890480E-01  0.51100000000E-03 0.  1.
</event>
<event>
 8    1  0.1106168E+005  0.1043930E+01  0.7957747E-01            NaN
         13   -1    0    0    0    0  0.00000000000E+00  0.00000000000E+00  0.74505805969E-08  0.10566000000E+00  0.10566000000E+00 0. -1.
     999900   -1    0    0    0    0 -0.00000000000E+00 -0.00000000000E+00 -0.74505805969E-08  0.93827000000E+00  0.93827000000E+00 0. -1.
     999902    2    1    2    0    0 -0.20872554617E-01  0.52252156519E-02  0.95993688911E-02  0.10203691363E+01  0.10200970836E+01 0.  0.
     999903    2    3    3    0    0  0.45210009240E-01  0.11948953441E+00 -0.14424138074E-01  0.13020040585E+00  0.20552278600E-01 0.  0.
         14    1    1    2    0    0  0.20872554617E-01 -0.52252156519E-02 -0.95993688911E-02  0.23560863693E-01  0.00000000000E+00 0.  1.
     999901    1    3    3    0    0 -0.66082563857E-01 -0.11426431876E+00  0.24023506965E-01  0.89016873045E+00  0.88000000000E+00 0. -1.
        -11    1    4    4    0    0  0.21749667257E-01  0.84511287141E-01 -0.88995393905E-02  0.87719260157E-01  0.51100000000E-03 0. -1.
         11    1    4    4    0    0  0.23460341983E-01  0.34978247272E-01 -0.55245986832E-02  0.42481145698E-01  0.51100000000E-03 0.  1.
</event>
<event>
 8    1  0.1106168E+005  0.1043930E+01  0.7957747E-01            NaN
         13   -1    0    0    0    0  0.00000000000E+00  0.00000000000E+00  0.74505805969E-08  0.10566000000E+00  0.10566000000E+00 0. -1.
     999900   -1    0    0    0    0 -0.00000000000E+00 -0.00000000000E+00 -0.74505805969E-08  0.93827000000E+00  0.93827000000E+00 0.  1.
     999902    2    1    2    0    0  0.89709457656E-02 -0.79067916948E-02  0.19966215405E-01  0.10206567325E+01  0.10203913566E+01 0.  0.
     999903    2    3    3    0    0  0.39059004647E-01  0.90231108169E-01  0.85753567884E-01  0.13225124263E+00  0.21666980550E-01 0.  0.
         14    1    1    2    0    0 -0.89709457656E-02  0.79067916948E-02 -0.19966215405E-01  0.23273267507E-01  0.00000000000E+00 0.  1.
     999901    1    3    3    0    0 -0.30088058881E-01 -0.98137899864E-01 -0.65787352479E-01  0.88840548987E+00  0.88000000000E+00 0.  1.
        -11    1    4    4    0    0  0.91261149669E-02  0.48104149605E-01  0.43475081907E-01  0.65480066061E-01  0.51100000000E-03 0.  1.
         11    1    4    4    0    0  0.29932889680E-01  0.42126958565E-01  0.42278485978E-01  0.66771176566E-01  0.51100000000E-03 0. -1.
</event>
<event>
 8    1  0.1106168E+005  0.1043930E+01  0.7957747E-01            NaN
         13   -1    0    0    0    0  0.00000000000E+00  0.00000000000E+00  0.74505805969E-08  0.10566000000E+00  0.10566000000E+00 0. -1.
     999900   -1    0    0    0    0 -0.00000000000E+00 -0.00000000000E+00 -0.74505805969E-08  0.93827000000E+00  0.93827000000E+00 0.  1.
     999902    2    1    2    0    0  0.30361662015E-02 -0.10868683645E-01 -0.20959660979E-01  0.10201255051E+01  0.10198477299E+01 0.  0.
     999903    2    3    3    0    0 -0.12013503316E+00 -0.44999960155E-01 -0.15629103256E-01  0.13087610069E+00  0.20660645129E-01 0.  0.
         14    1    1    2    0    0 -0.30361662015E-02  0.10868683645E-01  0.20959660979E-01  0.23804494906E-01  0.00000000000E+00 0. -1.
     999901    1    3    3    0    0  0.12317119936E+00  0.34131276510E-01 -0.53305577227E-02  0.88924940440E+00  0.88000000000E+00 0. -1.
        -11    1    4    4    0    0 -0.94729841779E-01 -0.33756957780E-01 -0.20584599298E-01  0.10265116644E+00  0.51100000000E-03 0. -1.
         11    1    4    4    0    0 -0.25405191379E-01 -0.11243002375E-01  0.49554960412E-02  0.28224934250E-01  0.51100000000E-03 0.  1.
</event>
<event>
 8    1  0.1106168E+005  0.1043930E+01  0.7957747E-01            NaN
         13   -1    0    0    0    0  0.00000000000E+00  0.00000000000E+00  0.74505805969E-08  0.10566000000E+00  0.10566000000E+00 0. -1.
     999900   -1    0    0    0    0 -0.00000000000E+00 -0.00000000000E+00 -0.74505805969E-08  0.93827000000E+00  0.93827000000E+00 0. -1.
     999902    2    1    2    0    0 -0.23193737814E-01 -0.85282587840E-02  0.41836359101E-02  0.10188664112E+01  0.10185580889E+01 0.  0.
     999903    2    3    3    0    0 -0.79302323536E-01  0.94626302856E-01 -0.34593618749E-01  0.13021984908E+00  0.22748514792E-01 0.  0.
         14    1    1    2    0    0  0.23193737814E-01  0.85282587840E-02 -0.41836359101E-02  0.25063588752E-01  0.00000000000E+00 0.  1.
     999901    1    3    3    0    0  0.56108585722E-01 -0.10315456164E+00  0.38777254659E-01  0.88864656217E+00  0.88000000000E+00 0.  1.
        -11    1    4    4    0    0 -0.74135346659E-03  0.84417774773E-02  0.29392804388E-03  0.84947470023E-02  0.51100000000E-03 0. -1.
         11    1    4    4    0    0 -0.78560970070E-01  0.86184525379E-01 -0.34887546792E-01  0.12172510208E+00  0.51100000000E-03 0.  1.
</event>
<event>
 8    1  0.1106168E+005  0.1043930E+01  0.7957747E-01            NaN
         13   -1    0    0    0    0  0.00000000000E+00  0.00000000000E+00  0.74505805969E-08  0.10566000000E+00  0.10566000000E+00 0.  1.
     999900   -1    0    0    0    0 -0.00000000000E+00 -0.00000000000E+00 -0.74505805969E-08  0.93827000000E+00  0.93827000000E+00 0. -1.
     999902    2    1    2    0    0 -0.18362676097E-01  0.14896360770E-01 -0.23761260689E-02  0.10201658376E+01  0.10198890140E+01 0.  0.
     999903    2    3    3    0    0 -0.82472580818E-01 -0.78975717911E-01 -0.61378512343E-01  0.13089460307E+00  0.18088248393E-01 0.  0.
         14    1    1    2    0    0  0.18362676097E-01 -0.14896360770E-01  0.23761260689E-02  0.23764162361E-01  0.00000000000E+00 0. -1.
     999901    1    3    3    0    0  0.64109904722E-01  0.93872078681E-01  0.59002386274E-01  0.88927123457E+00  0.88000000000E+00 0.  1.
        -11    1    4    4    0    0 -0.38630057650E-01 -0.45942539130E-01 -0.24919949715E-01  0.64994332604E-01  0.51100000000E-03 0. -1.
         11    1    4    4    0    0 -0.43842523168E-01 -0.33033178781E-01 -0.36458562628E-01  0.65900270470E-01  0.51100000000E-03 0.  1.
</event>
<event>
 8    1  0.1106168E+005  0.1043930E+01  0.7957747E-01            NaN
         13   -1    0    0    0    0  0.00000000000E+00  0.00000000000E+00  0.74505805969E-08  0.10566000000E+00  0.10566000000E+00 0.  1.
     999900   -1    0    0    0    0 -0.00000000000E+00 -0.00000000000E+00 -0.74505805969E-08  0.93827000000E+00  0.93827000000E+00 0.  1.
     999902    2    1    2    0    0 -0.13869309717E-01  0.39744332077E-02 -0.16368592879E-01  0.10221106347E+01  0.10218777152E+01 0.  0.
     999903    2    3    3    0    0 -0.65044122571E-01  0.41434579212E-01  0.10442270683E+00  0.13159805075E+00  0.21595902913E-01 0.  0.
         14    1    1    2    0    0  0.13869309717E-01 -0.39744332077E-02  0.16368592879E-01  0.21819365348E-01  0.00000000000E+00 0.  1.
     999901    1    3    3    0    0  0.51174812854E-01 -0.37460146004E-01 -0.12079129971E+00  0.89051258391E+00  0.88000000000E+00 0.  1.
        -11    1    4    4    0    0 -0.30384359675E-01  0.26067558207E-01  0.38478445171E-01  0.55529980799E-01  0.51100000000E-03 0.  1.
         11    1    4    4    0    0 -0.34659762897E-01  0.15367021005E-01  0.65944261660E-01  0.76068069947E-01  0.51100000000E-03 0. -1.
</event>
<event>
 8    1  0.1106168E+005  0.1043930E+01  0.7957747E-01            NaN
         13   -1    0    0    0    0  0.00000000000E+00  0.00000000000E+00  0.74505805969E-08  0.10566000000E+00  0.10566000000E+00 0. -1.
     999900   -1    0    0    0    0 -0.00000000000E+00 -0.00000000000E+00 -0.74505805969E-08  0.93827000000E+00  0.93827000000E+00 0.  1.
     999902    2    1    2    0    0 -0.21595980268E-01  0.72448112256E-03  0.99114297474E-02  0.10201571652E+01  0.10198801371E+01 0.  0.
     999903    2    3    3    0    0  0.62987730951E-01 -0.60136913645E-01  0.94469090791E-01  0.12998386090E+00  0.19684825289E-01 0.  0.
         14    1    1    2    0    0  0.21595980268E-01 -0.72448112256E-03 -0.99114297474E-02  0.23772834839E-01  0.00000000000E+00 0. -1.
     999901    1    3    3    0    0 -0.84583711220E-01  0.60861394767E-01 -0.84557661044E-01  0.89017330426E+00  0.88000000000E+00 0.  1.
        -11    1    4    4    0    0  0.20405230590E-01 -0.81139346090E-02  0.25784512199E-01  0.33871987846E-01  0.51100000000E-03 0. -1.
         11    1    4    4    0    0  0.42582500361E-01 -0.52022979036E-01  0.68684578592E-01  0.96111873055E-01  0.51100000000E-03 0.  1.
</event>
<event>
 8    1  0.1106168E+005  0.1043930E+01  0.7957747E-01            NaN
         13   -1    0    0    0    0  0.00000000000E+00  0.00000000000E+00  0.74505805969E-08  0.10566000000E+00  0.10566000000E+00 0.  1.
     999900   -1    0    0    0    0 -0.00000000000E+00 -0.00000000000E+00 -0.74505805969E-08  0.93827000000E+00  0.93827000000E+00 0.  1.
     999902    2    1    2    0    0  0.16347041006E-01  0.49866252225E-02 -0.15379466249E-01  0.10209382588E+01  0.10206793366E+01 0.  0.
     999903    2    3    3    0    0 -0.62672971775E-01 -0.26016161154E-01 -0.11109948489E+00  0.13168708105E+00  0.19840608381E-01 0.  0.
         14    1    1    2    0    0 -0.16347041006E-01 -0.49866252225E-02  0.15379466249E-01  0.22991741188E-01  0.00000000000E+00 0.  1.
     999901    1    3    3    0    0  0.79020012781E-01  0.31002786377E-01  0.95720018638E-01  0.88925117776E+00  0.88000000000E+00 0. -1.
        -11    1    4    4    0    0 -0.15489559977E-01 -0.14267104973E-02 -0.39700869121E-01  0.42642491732E-01  0.51100000000E-03 0.  1.
         11    1    4    4    0    0 -0.47183411798E-01 -0.24589450657E-01 -0.71398615766E-01  0.89044589318E-01  0.51100000000E-03 0. -1.
</event>
<event>
 8    1  0.1106168E+005  0.1043930E+01  0.7957747E-01            NaN
         13   -1    0    0    0    0  0.00000000000E+00  0.00000000000E+00  0.74505805969E-08  0.10566000000E+00  0.10566000000E+00 0. -1.
     999900   -1    0    0    0    0 -0.00000000000E+00 -0.00000000000E+00 -0.74505805969E-08  0.93827000000E+00  0.93827000000E+00 0. -1.
     999902    2    1    2    0    0  0.17984469729E-01 -0.63922657771E-02  0.12681763158E-01  0.10210142995E+01  0.10207571065E+01 0.  0.
     999903    2    3    3    0    0  0.38138228805E-01 -0.11690687428E-01 -0.12252623838E+00  0.13044400414E+00  0.20291930761E-01 0.  0.
         14    1    1    2    0    0 -0.17984469729E-01  0.63922657771E-02 -0.12681763158E-01  0.22915700513E-01  0.00000000000E+00 0.  1.
     999901    1    3    3    0    0 -0.20153759076E-01  0.52984216505E-02  0.13520800154E+00  0.89057029535E+00  0.88000000000E+00 0.  1.
        -11    1    4    4    0    0  0.23613662121E-01 -0.68275235432E-02 -0.43697746464E-01  0.50139548098E-01  0.51100000000E-03 0.  1.
         11    1    4    4    0    0  0.14524566684E-01 -0.48631638844E-02 -0.78828491921E-01  0.80304456040E-01  0.51100000000E-03 0. -1.
</event>
<event>
 8    1  0.1106168E+005  0.1043930E+01  0.7957747E-01            NaN
         13   -1    0    0    0    0  0.00000000000E+00  0.00000000000E+00  0.74505805969E-08  0.10566000000E+00  0.10566000000E+00 0.  1.
     999900   -1    0    0    0    0 -0.00000000000E+00 -0.00000000000E+00 -0.74505805969E-08  0.93827000000E+00  0.93827000000E+00 0.  1.
     999902    2    1    2    0    0 -0.13440163781E-02 -0.23441131091E-01 -0.26722685929E-02  0.10202987913E+01  0.10200250925E+01 0.  0.
     999903    2    3    3    0    0 -0.10819790943E+00 -0.68174473528E-01 -0.29270844760E-01  0.13230875155E+00  0.17154501932E-01 0.  0.
         14    1    1    2    0    0  0.13440163781E-02  0.23441131091E-01  0.26722685929E-02  0.23631208735E-01  0.00000000000E+00 0.  1.
     999901    1    3    3    0    0  0.10685389305E+00  0.44733342438E-01  0.26598576167E-01  0.88799003972E+00  0.88000000000E+00 0.  1.
        -11    1    4    4    0    0 -0.76506788785E-01 -0.46236101676E-01 -0.28236793843E-01  0.93747765178E-01  0.51100000000E-03 0. -1.
         11    1    4    4    0    0 -0.31691120646E-01 -0.21938371853E-01 -0.10340509165E-02  0.38560986368E-01  0.51100000000E-03 0.  1.
</event>
<event>
 8    1  0.1106168E+005  0.1043930E+01  0.7957747E-01            NaN
         13   -1    0    0    0    0  0.00000000000E+00  0.00000000000E+00  0.74505805969E-08  0.10566000000E+00  0.10566000000E+00 0.  1.
     999900   -1    0    0    0    0 -0.00000000000E+00 -0.00000000000E+00 -0.74505805969E-08  0.93827000000E+00  0.93827000000E+00 0.  1.
     999902    2    1    2    0    0  0.13353050534E-01  0.96779403104E-02 -0.16673220089E-01  0.10204787153E+01  0.10202092166E+01 0.  0.
     999903    2    3    3    0    0  0.70353290949E-01  0.97563150177E-01 -0.54241604969E-01  0.13347013523E+00  0.20099041517E-01 0.  0.
         14    1    1    2    0    0 -0.13353050534E-01 -0.96779403104E-02  0.16673220089E-01  0.23451284727E-01  0.00000000000E+00 0.  1.
     999901    1    3    3    0    0 -0.57000240414E-01 -0.87885209867E-01  0.37568384880E-01  0.88700858004E+00  0.88000000000E+00 0. -1.
        -11    1    4    4    0    0  0.62652249105E-01  0.73126193551E-01 -0.44000787530E-01  0.10587291875E+00  0.51100000000E-03 0.  1.
         11    1    4    4    0    0  0.77010418436E-02  0.24436956626E-01 -0.10240817439E-01  0.27597216480E-01  0.51100000000E-03 0. -1.
</event>
<event>
 8    1  0.1106168E+005  0.1043930E+01  0.7957747E-01            NaN
         13   -1    0    0    0    0  0.00000000000E+00  0.00000000000E+00  0.74505805969E-08  0.10566000000E+00  0.10566000000E+00 0. -1.
     999900   -1    0    0    0    0 -0.00000000000E+00 -0.00000000000E+00 -0.74505805969E-08  0.93827000000E+00  0.93827000000E+00 0. -1.
     999902    2    1    2    0    0  0.23304658136E-01  0.28053443153E-03 -0.20654486354E-03  0.10206227382E+01  0.10203565775E+01 0.  0.
     999903    2    3    3    0    0 -0.91378391371E-01  0.99931646231E-02 -0.87466430021E-01  0.12884876205E+00  0.22399851637E-01 0.  0.
         14    1    1    2    0    0 -0.23304658136E-01 -0.28053443153E-03  0.20654486354E-03  0.23307261769E-01  0.00000000000E+00 0.  1.
     999901    1    3    3    0    0  0.11468304951E+00 -0.97126301916E-02  0.87259885157E-01  0.89177397618E+00  0.88000000000E+00 0.  1.
        -11    1    4    4    0    0 -0.69076584554E-01 -0.21558694849E-02 -0.66536687467E-01  0.95935468972E-01  0.51100000000E-03 0.  1.
         11    1    4    4    0    0 -0.22301806818E-01  0.12149034108E-01 -0.20929742554E-01  0.32913293082E-01  0.51100000000E-03 0. -1.
</event>
<event>
 8    1  0.1106168E+005  0.1043930E+01  0.7957747E-01            NaN
         13   -1    0    0    0    0  0.00000000000E+00  0.00000000000E+00  0.74505805969E-08  0.10566000000E+00  0.10566000000E+00 0.  1.
     999900   -1    0    0    0    0 -0.00000000000E+00 -0.00000000000E+00 -0.74505805969E-08  0.93827000000E+00  0.93827000000E+00 0.  1.
     999902    2    1    2    0    0 -0.13736976107E-01 -0.12130445826E-01 -0.19702132934E-01  0.10170222637E+01  0.10166662474E+01 0.  0.
     999903    2    3    3    0    0 -0.53238693324E-01  0.85898070808E-01  0.72488899815E-01  0.12591667950E+00  0.19685846331E-01 0.  0.
         14    1    1    2    0    0  0.13736976107E-01  0.12130445826E-01  0.19702132934E-01  0.26907736260E-01  0.00000000000E+00 0.  1.
     999901    1    3    3    0    0  0.39501717217E-01 -0.98028516634E-01 -0.92191032748E-01  0.89110558424E+00  0.88000000000E+00 0.  1.
        -11    1    4    4    0    0 -0.18699559136E-01  0.34922023558E-01  0.17308652101E-01  0.43232763038E-01  0.51100000000E-03 0. -1.
         11    1    4    4    0    0 -0.34539134188E-01  0.50976047249E-01  0.55180247713E-01  0.82683916467E-01  0.51100000000E-03 0.  1.
</event>
<event>
 8    1  0.1106168E+005  0.1043930E+01  0.7957747E-01            NaN
         13   -1    0    0    0    0  0.00000000000E+00  0.00000000000E+00  0.74505805969E-08  0.10566000000E+00  0.10566000000E+00 0.  1.
     999900   -1    0    0    0    0 -0.00000000000E+00 -0.00000000000E+00 -0.74505805969E-08  0.93827000000E+00  0.93827000000E+00 0. -1.
     999902    2    1    2    0    0  0.60987869377E-02  0.20743055627E-01 -0.10227352791E-01  0.10200120506E+01  0.10197315897E+01 0.  0.
     999903    2    3    3    0    0 -0.26531662349E-01 -0.10366356970E+00  0.65751339036E-01  0.12742339042E+00  0.21527123613E-01 0.  0.
         14    1    1    2    0    0 -0.60987869377E-02 -0.20743055627E-01  0.10227352791E-01  0.23917949410E-01  0.00000000000E+00 0.  1.
     999901    1    3    3    0    0  0.32630449287E-01  0.12440662533E+00 -0.75978691828E-01  0.89258866017E+00  0.88000000000E+00 0. -1.
        -11    1    4    4    0    0 -0.16872334960E-01 -0.35284237276E-01  0.32105905067E-01  0.50603392657E-01  0.51100000000E-03 0.  1.
         11    1    4    4    0    0 -0.96593273894E-02 -0.68379332428E-01  0.33645433969E-01  0.76819997767E-01  0.51100000000E-03 0. -1.
</event>
<event>
 8    1  0.1106168E+005  0.1043930E+01  0.7957747E-01            NaN
         13   -1    0    0    0    0  0.00000000000E+00  0.00000000000E+00  0.74505805969E-08  0.10566000000E+00  0.10566000000E+00 0. -1.
     999900   -1    0    0    0    0 -0.00000000000E+00 -0.00000000000E+00 -0.74505805969E-08  0.93827000000E+00  0.93827000000E+00 0.  1.
     999902    2    1    2    0    0  0.14185507454E-01  0.17206206185E-01  0.89032173317E-02  0.10199185562E+01  0.10196358722E+01 0.  0.
     999903    2    3    3    0    0  0.20485223530E-01  0.12852333714E+00  0.17817976735E-01  0.13283870469E+00  0.19767361918E-01 0.  0.
         14    1    1    2    0    0 -0.14185507454E-01 -0.17206206185E-01 -0.89032173317E-02  0.24011443769E-01  0.00000000000E+00 0.  1.
     999901    1    3    3    0    0 -0.62997160759E-02 -0.11131713096E+00 -0.89147594031E-02  0.88707985154E+00  0.88000000000E+00 0.  1.
        -11    1    4    4    0    0  0.17747078426E-02  0.70509383447E-01  0.64369103108E-02  0.70826673488E-01  0.51100000000E-03 0.  1.
         11    1    4    4    0    0  0.18710515687E-01  0.58013953693E-01  0.11381066424E-01  0.62012031207E-01  0.51100000000E-03 0. -1.
</event>
<event>
 7    1  0.1483163E+005  0.1043930E+01  0.7957747E-01            NaN
         13   -1    0    0    0    0  0.00000000000E+00  0.00000000000E+00  0.74505805969E-08  0.10566000000E+00  0.10566000000E+00 0. -1.
     999900   -1    0    0    0    0 -0.00000000000E+00 -0.00000000000E+00 -0.74505805969E-08  0.93827000000E+00  0.93827000000E+00 0.  1.
     999903    2    1    2    0    0 -0.44715993782E-01  0.11044831496E-01 -0.73954395568E-01  0.89756450676E-01  0.21574508368E-01 0.  0.
         14    1    1    2    0    0 -0.21489000835E-01  0.60592793007E-01 -0.89516409791E-02  0.64910673987E-01  0.00000000000E+00 0.  1.
     999901    1    1    2    0    0  0.66204994617E-01 -0.71637624503E-01  0.82906036547E-01  0.88926287534E+00  0.88000000000E+00 0.  1.
        -11    1    3    3    0    0 -0.61805602624E-02  0.10859953964E-02 -0.29159577241E-01  0.29831539971E-01  0.51100000000E-03 0. -1.
         11    1    3    3    0    0 -0.38535433520E-01  0.99588360995E-02 -0.44794818328E-01  0.59924910705E-01  0.51100000000E-03 0.  1.
</event>
<event>
 8    1  0.1106168E+005  0.1043930E+01  0.7957747E-01            NaN
         13   -1    0    0    0    0  0.00000000000E+00  0.00000000000E+00  0.74505805969E-08  0.10566000000E+00  0.10566000000E+00 0. -1.
     999900   -1    0    0    0    0 -0.00000000000E+00 -0.00000000000E+00 -0.74505805969E-08  0.93827000000E+00  0.93827000000E+00 0. -1.
     999902    2    1    2    0    0  0.20543589366E-01  0.10012916941E-01 -0.31499545583E-02  0.10208601109E+01  0.10205994054E+01 0.  0.
     999903    2    3    3    0    0 -0.95665983139E-01 -0.24867404324E-01 -0.80422169103E-01  0.12918062997E+00  0.21202399607E-01 0.  0.
         14    1    1    2    0    0 -0.20543589366E-01 -0.10012916941E-01  0.31499545583E-02  0.23069889108E-01  0.00000000000E+00 0. -1.
     999901    1    3    3    0    0  0.11620957250E+00  0.34880321266E-01  0.77272214544E-01  0.89167948092E+00  0.88000000000E+00 0.  1.
        -11    1    4    4    0    0 -0.33499504029E-01 -0.39363772918E-02 -0.39153036769E-01  0.51681072411E-01  0.51100000000E-03 0. -1.
         11    1    4    4    0    0 -0.62166479110E-01 -0.20931027033E-01 -0.41269132334E-01  0.77499557561E-01  0.51100000000E-03 0.  1.
</event>
<event>
 8    1  0.1106168E+005  0.1043930E+01  0.7957747E-01            NaN
         13   -1    0    0    0    0  0.00000000000E+00  0.00000000000E+00  0.74505805969E-08  0.10566000000E+00  0.10566000000E+00 0.  1.
     999900   -1    0    0    0    0 -0.00000000000E+00 -0.00000000000E+00 -0.74505805969E-08  0.93827000000E+00  0.93827000000E+00 0.  1.
     999902    2    1    2    0    0  0.38091493182E-02 -0.19528896009E-01 -0.72025191915E-02  0.10227695728E+01  0.10225506517E+01 0.  0.
     999903    2    3    3    0    0  0.57387763161E-02  0.38281141108E-01 -0.12591210542E+00  0.13291695030E+00  0.17739167657E-01 0.  0.
         14    1    1    2    0    0 -0.38091493182E-02  0.19528896009E-01  0.72025191915E-02  0.21160427230E-01  0.00000000000E+00 0. -1.
     999901    1    3    3    0    0 -0.19296269980E-02 -0.57810037117E-01  0.11870958622E+00  0.88985262247E+00  0.88000000000E+00 0. -1.
        -11    1    4    4    0    0 -0.59364264449E-03  0.32452565122E-01 -0.82496653650E-01  0.88653710464E-01  0.51100000000E-03 0.  1.
         11    1    4    4    0    0  0.63324189606E-02  0.58285759861E-02 -0.43415451765E-01  0.44263239837E-01  0.51100000000E-03 0. -1.
</event>
<event>
 8    1  0.1106168E+005  0.1043930E+01  0.7957747E-01            NaN
         13   -1    0    0    0    0  0.00000000000E+00  0.00000000000E+00  0.74505805969E-08  0.10566000000E+00  0.10566000000E+00 0.  1.
     999900   -1    0    0    0    0 -0.00000000000E+00 -0.00000000000E+00 -0.74505805969E-08  0.93827000000E+00  0.93827000000E+00 0. -1.
     999902    2    1    2    0    0  0.10683055881E-01  0.30343814198E-02  0.20737529287E-01  0.10204059639E+01  0.10201347709E+01 0.  0.
     999903    2    3    3    0    0 -0.37467429694E-02 -0.11913426621E+00 -0.45595942090E-01  0.12937648796E+00  0.21266740086E-01 0.  0.
         14    1    1    2    0    0 -0.10683055881E-01 -0.30343814198E-02 -0.20737529287E-01  0.23524036101E-01  0.00000000000E+00 0. -1.
     999901    1    3    3    0    0  0.14429798851E-01  0.12216864763E+00  0.66333471376E-01  0.89102947593E+00  0.88000000000E+00 0.  1.
        -11    1    4    4    0    0 -0.25328008473E-02 -0.58809398451E-01 -0.33849813373E-01  0.67904575786E-01  0.51100000000E-03 0.  1.
         11    1    4    4    0    0 -0.12139421221E-02 -0.60324867762E-01 -0.11746128716E-01  0.61471912178E-01  0.51100000000E-03 0. -1.
</event>
<event>
 8    1  0.1106168E+005  0.1043930E+01  0.7957747E-01            NaN
         13   -1    0    0    0    0  0.00000000000E+00  0.00000000000E+00  0.74505805969E-08  0.10566000000E+00  0.10566000000E+00 0. -1.
     999900   -1    0    0    0    0 -0.00000000000E+00 -0.00000000000E+00 -0.74505805969E-08  0.93827000000E+00  0.93827000000E+00 0.  1.
     999902    2    1    2    0    0  0.13009832687E-01  0.65764566799E-02 -0.16515687500E-01  0.10219010767E+01  0.10216636125E+01 0.  0.
     999903    2    3    3    0    0  0.51217345264E-03  0.69506704018E-02  0.12821656293E+00  0.12999090416E+00  0.20237935068E-01 0.  0.
         14    1    1    2    0    0 -0.13009832687E-01 -0.65764566799E-02  0.16515687500E-01  0.22028923320E-01  0.00000000000E+00 0. -1.
     999901    1    3    3    0    0  0.12497659235E-01 -0.37421372188E-03 -0.14473225043E+00  0.89191017252E+00  0.88000000000E+00 0.  1.
        -11    1    4    4    0    0  0.70725269655E-02 -0.16495326913E-02  0.89286701476E-01  0.89583021702E-01  0.51100000000E-03 0. -1.
         11    1    4    4    0    0 -0.65603535128E-02  0.86002030930E-02  0.38929861452E-01  0.40407882462E-01  0.51100000000E-03 0.  1.
</event>
<event>
 8    1  0.1106168E+005  0.1043930E+01  0.7957747E-01            NaN
         13   -1    0    0    0    0  0.00000000000E+00  0.00000000000E+00  0.74505805969E-08  0.10566000000E+00  0.10566000000E+00 0. -1.
     999900   -1    0    0    0    0 -0.00000000000E+00 -0.00000000000E+00 -0.74505805969E-08  0.93827000000E+00  0.93827000000E+00 0.  1.
     999902    2    1    2    0    0  0.74979570307E-02  0.11392973814E-01 -0.19656547857E-01  0.10200051367E+01  0.10197245117E+01 0.  0.
     999903    2    3    3    0    0  0.47841908528E-01 -0.36758563209E-01  0.11120733106E+00  0.12811301329E+00  0.20145309923E-01 0.  0.
         14    1    1    2    0    0 -0.74979570307E-02 -0.11392973814E-01  0.19656547857E-01  0.23924863336E-01  0.00000000000E+00 0. -1.
     999901    1    3    3    0    0 -0.40343951497E-01  0.48151537023E-01 -0.13086387891E+00  0.89189212338E+00  0.88000000000E+00 0.  1.
        -11    1    4    4    0    0  0.25818710247E-01 -0.82559419842E-02  0.40155046438E-01  0.48450544396E-01  0.51100000000E-03 0. -1.
         11    1    4    4    0    0  0.22023198281E-01 -0.28502621225E-01  0.71052284618E-01  0.79662468890E-01  0.51100000000E-03 0.  1.
</event>
<event>
 8    1  0.1106168E+005  0.1043930E+01  0.7957747E-01            NaN
         13   -1    0    0    0    0  0.00000000000E+00  0.00000000000E+00  0.74505805969E-08  0.10566000000E+00  0.10566000000E+00 0.  1.
     999900   -1    0    0    0    0 -0.00000000000E+00 -0.00000000000E+00 -0.74505805969E-08  0.93827000000E+00  0.93827000000E+00 0. -1.
     999902    2    1    2    0    0  0.33909729848E-02  0.17167788515E-01 -0.17946619988E-01  0.10188638310E+01  0.10185554444E+01 0.  0.
     999903    2    3    3    0    0  0.60794463967E-01  0.28656660527E-01  0.10789233543E+00  0.12798639965E+00  0.14919497606E-01 0.  0.
         14    1    1    2    0    0 -0.33909729848E-02 -0.17167788515E-01  0.17946619988E-01  0.25066169018E-01  0.00000000000E+00 0.  1.
     999901    1    3    3    0    0 -0.57403490982E-01 -0.11488872012E-01 -0.12583895542E+00  0.89087743133E+00  0.88000000000E+00 0. -1.
        -11    1    4    4    0    0  0.52539021818E-01  0.25811361123E-01  0.82724406341E-01  0.10134181616E+00  0.51100000000E-03 0.  1.
         11    1    4    4    0    0  0.82554421492E-02  0.28452994043E-02  0.25167929090E-01  0.26644583492E-01  0.51100000000E-03 0. -1.
</event>
<event>
 8    1  0.1106168E+005  0.1043930E+01  0.7957747E-01            NaN
         13   -1    0    0    0    0  0.00000000000E+00  0.00000000000E+00  0.74505805969E-08  0.10566000000E+00  0.10566000000E+00 0.  1.
     999900   -1    0    0    0    0 -0.00000000000E+00 -0.00000000000E+00 -0.74505805969E-08  0.93827000000E+00  0.93827000000E+00 0. -1.
     999902    2    1    2    0    0 -0.74040657281E-02 -0.15226413304E-01  0.16318984139E-01  0.10204146200E+01  0.10201436290E+01 0.  0.
     999903    2    3    3    0    0  0.11029487183E+00 -0.13057769674E-01 -0.62778556092E-01  0.12905938009E+00  0.19486210080E-01 0.  0.
         14    1    1    2    0    0  0.74040657281E-02  0.15226413304E-01 -0.16318984139E-01  0.23515379962E-01  0.00000000000E+00 0. -1.
     999901    1    3    3    0    0 -0.11769893756E+00 -0.21686436299E-02  0.79097540231E-01  0.89135523995E+00  0.88000000000E+00 0.  1.
        -11    1    4    4    0    0  0.65095429941E-01  0.18440414063E-02 -0.34512202587E-01  0.73703247800E-01  0.51100000000E-03 0. -1.
         11    1    4    4    0    0  0.45199441887E-01 -0.14901811081E-01 -0.28266353505E-01  0.55356132287E-01  0.51100000000E-03 0.  1.
</event>
<event>
 8    1  0.1106168E+005  0.1043930E+01  0.7957747E-01            NaN
         13   -1    0    0    0    0  0.00000000000E+00  0.00000000000E+00  0.74505805969E-08  0.10566000000E+00  0.10566000000E+00 0.  1.
     999900   -1    0    0    0    0 -0.00000000000E+00 -0.00000000000E+00 -0.74505805969E-08  0.93827000000E+00  0.93827000000E+00 0. -1.
     999902    2    1    2    0    0  0.56759345577E-03 -0.78288218595E-02 -0.22622162964E-01  0.10199847526E+01  0.10197036436E+01 0.  0.
     999903    2    3    3    0    0  0.42480596942E-01 -0.11611086390E+00  0.36136325609E-01  0.13041504741E+00  0.20394036599E-01 0.  0.
         14    1    1    2    0    0 -0.56759345577E-03  0.78288218595E-02  0.22622162964E-01  0.23945247361E-01  0.00000000000E+00 0.  1.
     999901    1    3    3    0    0 -0.41913003486E-01  0.10828204204E+00 -0.58758488572E-01  0.88956970523E+00  0.88000000000E+00 0. -1.
        -11    1    4    4    0    0  0.26250032500E-01 -0.60208098916E-01  0.93908671798E-02  0.66351555285E-01  0.51100000000E-03 0.  1.
         11    1    4    4    0    0  0.16230564442E-01 -0.55902764985E-01  0.26745458429E-01  0.64063492121E-01  0.51100000000E-03 0. -1.
</event>
<event>
 8    1  0.1106168E+005  0.1043930E+01  0.7957747E-01            NaN
         13   -1    0    0    0    0  0.00000000000E+00  0.00000000000E+00  0.74505805969E-08  0.10566000000E+00  0.10566000000E+00 0.  1.
     999900   -1    0    0    0    0 -0.00000000000E+00 -0.00000000000E+00 -0.74505805969E-08  0.93827000000E+00  0.93827000000E+00 0. -1.
     999902    2    1    2    0    0 -0.13004423444E-01  0.15314412112E-01  0.12224215690E-01  0.10204123960E+01  0.10201413531E+01 0.  0.
     999903    2    3    3    0    0  0.45442657647E-01  0.99183419115E-01  0.72417426362E-01  0.13245220872E+00  0.19922805860E-01 0.  0.
         14    1    1    2    0    0  0.13004423444E-01 -0.15314412112E-01 -0.12224215690E-01  0.23517603974E-01  0.00000000000E+00 0.  1.
     999901    1    3    3    0    0 -0.58447081090E-01 -0.83869007004E-01 -0.60193210672E-01  0.88796018730E+00  0.88000000000E+00 0. -1.
        -11    1    4    4    0    0  0.42553603272E-01  0.72574507849E-01  0.55096141037E-01  0.10056696386E+00  0.51100000000E-03 0.  1.
         11    1    4    4    0    0  0.28890543747E-02  0.26608911266E-01  0.17321285325E-01  0.31885244868E-01  0.51100000000E-03 0. -1.
</event>
<event>
 8    1  0.1106168E+005  0.1043930E+01  0.7957747E-01            NaN
         13   -1    0    0    0    0  0.00000000000E+00  0.00000000000E+00  0.74505805969E-08  0.10566000000E+00  0.10566000000E+00 0.  1.
     999900   -1    0    0    0    0 -0.00000000000E+00 -0.00000000000E+00 -0.74505805969E-08  0.93827000000E+00  0.93827000000E+00 0. -1.
     999902    2    1    2    0    0 -0.13713932463E-01 -0.18725535382E-01 -0.33985273551E-02  0.10204722165E+01  0.10202025667E+01 0.  0.
     999903    2    3    3    0    0  0.43184482484E-01 -0.10705963557E+00  0.60899010146E-01  0.13189216033E+00  0.18978604403E-01 0.  0.
         14    1    1    2    0    0  0.13713932463E-01  0.18725535382E-01  0.33985273551E-02  0.23457783509E-01  0.00000000000E+00 0.  1.
     999901    1    3    3    0    0 -0.56898414947E-01  0.88334100183E-01 -0.64297537501E-01  0.88858005616E+00  0.88000000000E+00 0. -1.
        -11    1    4    4    0    0  0.77032516492E-02 -0.28209972756E-01  0.24195294534E-01  0.37958082768E-01  0.51100000000E-03 0. -1.
         11    1    4    4    0    0  0.35481230835E-01 -0.78849662810E-01  0.36703715612E-01  0.93934077562E-01  0.51100000000E-03 0.  1.
</event>
<event>
 8    1  0.1106168E+005  0.1043930E+01  0.7957747E-01            NaN
         13   -1    0    0    0    0  0.00000000000E+00  0.00000000000E+00  0.74505805969E-08  0.10566000000E+00  0.10566000000E+00 0.  1.
     999900   -1    0    0    0    0 -0.00000000000E+00 -0.00000000000E+00 -0.74505805969E-08  0.93827000000E+00  0.93827000000E+00 0. -1.
     999902    2    1    2    0    0  0.18578505745E-01  0.17462851382E-01  0.12660969924E-01  0.10154622601E+01  0.10150631456E+01 0.  0.
     999903    2    3    3    0    0  0.53756629771E-01 -0.31529504630E-01  0.11005578048E+00  0.12803705174E+00  0.19933060336E-01 0.  0.
         14    1    1    2    0    0 -0.18578505745E-01 -0.17462851382E-01 -0.12660969924E-01  0.28467739874E-01  0.00000000000E+00 0. -1.
     999901    1    3    3    0    0 -0.35178124027E-01  0.48992356012E-01 -0.97394810557E-01  0.88742520839E+00  0.88000000000E+00 0. -1.
        -11    1    4    4    0    0  0.10761087792E-01 -0.16046840509E-01  0.39469214734E-01  0.43947492915E-01  0.51100000000E-03 0. -1.
         11    1    4    4    0    0  0.42995541980E-01 -0.15482664121E-01  0.70586565746E-01  0.84089558824E-01  0.51100000000E-03 0.  1.
</event>
<event>
 8    1  0.1106168E+005  0.1043930E+01  0.7957747E-01            NaN
         13   -1    0    0    0    0  0.00000000000E+00  0.00000000000E+00  0.74505805969E-08  0.10566000000E+00  0.10566000000E+00 0.  1.
     999900   -1    0    0    0    0 -0.00000000000E+00 -0.00000000000E+00 -0.74505805969E-08  0.93827000000E+00  0.93827000000E+00 0. -1.
     999902    2    1    2    0    0 -0.16292028649E-01  0.11337278951E-01  0.12766581760E-01  0.10203302182E+01  0.10200572555E+01 0.  0.
     999903    2    3    3    0    0 -0.72485991053E-01 -0.11053447158E-01 -0.10579233737E+00  0.13032160962E+00  0.20379050380E-01 0.  0.
         14    1    1    2    0    0  0.16292028649E-01 -0.11337278951E-01 -0.12766581760E-01  0.23599781807E-01  0.00000000000E+00 0.  1.
     999901    1    3    3    0    0  0.56193962404E-01  0.22390726110E-01  0.11855891913E+00  0.89000860857E+00  0.88000000000E+00 0.  1.
        -11    1    4    4    0    0 -0.41077804969E-01 -0.27657205017E-02 -0.75007434261E-01  0.85565247538E-01  0.51100000000E-03 0. -1.
         11    1    4    4    0    0 -0.31408186084E-01 -0.82877266567E-02 -0.30784903112E-01  0.44756362082E-01  0.51100000000E-03 0.  1.
</event>
<event>
 8    1  0.1106168E+005  0.1043930E+01  0.7957747E-01            NaN
         13   -1    0    0    0    0  0.00000000000E+00  0.00000000000E+00  0.74505805969E-08  0.10566000000E+00  0.10566000000E+00 0.  1.
     999900   -1    0    0    0    0 -0.00000000000E+00 -0.00000000000E+00 -0.74505805969E-08  0.93827000000E+00  0.93827000000E+00 0.  1.
     999902    2    1    2    0    0 -0.15316573556E-01 -0.18527983393E-01 -0.78170211103E-02  0.10186517601E+01  0.10183380671E+01 0.  0.
     999903    2    3    3    0    0 -0.12344452948E+00  0.35745858102E-01  0.73005050296E-02  0.13024540919E+00  0.19855755090E-01 0.  0.
         14    1    1    2    0    0  0.15316573556E-01  0.18527983393E-01  0.78170211103E-02  0.25278239914E-01  0.00000000000E+00 0.  1.
     999901    1    3    3    0    0  0.10812795593E+00 -0.54273841495E-01 -0.15117526140E-01  0.88840635090E+00  0.88000000000E+00 0. -1.
        -11    1    4    4    0    0 -0.98979312061E-01  0.27195534677E-01  0.13664599488E-01  0.10355425497E+00  0.51100000000E-03 0. -1.
         11    1    4    4    0    0 -0.24465217420E-01  0.85503234246E-02 -0.63640944580E-02  0.26691154215E-01  0.51100000000E-03 0.  1.
</event>
<event>
 8    1  0.1106168E+005  0.1043930E+01  0.7957747E-01            NaN
         13   -1    0    0    0    0  0.00000000000E+00  0.00000000000E+00  0.74505805969E-08  0.10566000000E+00  0.10566000000E+00 0.  1.
     999900   -1    0    0    0    0 -0.00000000000E+00 -0.00000000000E+00 -0.74505805969E-08  0.93827000000E+00  0.93827000000E+00 0. -1.
     999902    2    1    2    0    0  0.25069970804E-01 -0.36735341651E-02  0.60118433617E-02  0.10178888681E+01  0.10175557023E+01 0.  0.
     999903    2    3    3    0    0 -0.82773518033E-01 -0.90621883880E-01  0.24749903429E-01  0.12685500316E+00  0.20392473633E-01 0.  0.
         14    1    1    2    0    0 -0.25069970804E-01  0.36735341651E-02 -0.60118433617E-02  0.26041131887E-01  0.00000000000E+00 0. -1.
     999901    1    3    3    0    0  0.10784348884E+00  0.86948349714E-01 -0.18738060068E-01  0.89103386496E+00  0.88000000000E+00 0.  1.
        -11    1    4    4    0    0 -0.44821466377E-01 -0.62093422156E-01  0.19907089389E-01  0.79127177708E-01  0.51100000000E-03 0. -1.
         11    1    4    4    0    0 -0.37952051656E-01 -0.28528461724E-01  0.48428140398E-02  0.47727825449E-01  0.51100000000E-03 0.  1.
</event>
<event>
 8    1  0.1106168E+005  0.1043930E+01  0.7957747E-01            NaN
         13   -1    0    0    0    0  0.00000000000E+00  0.00000000000E+00  0.74505805969E-08  0.10566000000E+00  0.10566000000E+00 0. -1.
     999900   -1    0    0    0    0 -0.00000000000E+00 -0.00000000000E+00 -0.74505805969E-08  0.93827000000E+00  0.93827000000E+00 0.  1.
     999902    2    1    2    0    0  0.16839258903E-01  0.16333715613E-01 -0.21477039645E-02  0.10203723359E+01  0.10201003580E+01 0.  0.
     999903    2    3    3    0    0  0.20870166836E-01 -0.10721104285E+00 -0.66416162304E-01  0.12941218510E+00  0.20165204284E-01 0.  0.
         14    1    1    2    0    0 -0.16839258903E-01 -0.16333715613E-01  0.21477039645E-02  0.23557664112E-01  0.00000000000E+00 0. -1.
     999901    1    3    3    0    0 -0.40309079330E-02  0.12354475846E+00  0.64268458340E-01  0.89096015079E+00  0.88000000000E+00 0. -1.
        -11    1    4    4    0    0  0.85070016380E-02 -0.86195550065E-01 -0.49957105538E-01  0.99990076720E-01  0.51100000000E-03 0.  1.
         11    1    4    4    0    0  0.12363165198E-01 -0.21015492783E-01 -0.16459056767E-01  0.29422108375E-01  0.51100000000E-03 0. -1.
</event>
<event>
 8    1  0.1106168E+005  0.1043930E+01  0.7957747E-01            NaN
         13   -1    0    0    0    0  0.00000000000E+00  0.00000000000E+00  0.74505805969E-08  0.10566000000E+00  0.10566000000E+00 0.  1.
     999900   -1    0    0    0    0 -0.00000000000E+00 -0.00000000000E+00 -0.74505805969E-08  0.93827000000E+00  0.93827000000E+00 0.  1.
     999902    2    1    2    0    0 -0.28781846074E-02  0.52679078812E-02  0.23217064731E-01  0.10199494476E+01  0.10196674991E+01 0.  0.
     999903    2    3    3    0    0  0.10731454834E+00 -0.21161616270E-03 -0.67040251415E-01  0.12847939945E+00  0.22273385631E-01 0.  0.
         14    1    1    2    0    0  0.28781846074E-02 -0.52679078812E-02 -0.23217064731E-01  0.23980552429E-01  0.00000000000E+00 0. -1.
     999901    1    3    3    0    0 -0.11019273294E+00  0.54795240439E-02  0.90257316146E-01  0.89147004812E+00  0.88000000000E+00 0. -1.
        -11    1    4    4    0    0  0.83774161777E-01  0.91134284729E-02 -0.50950372482E-01  0.98475206713E-01  0.51100000000E-03 0. -1.
         11    1    4    4    0    0  0.23540386559E-01 -0.93250446356E-02 -0.16089878933E-01  0.30004192738E-01  0.51100000000E-03 0.  1.
</event>
<event>
 8    1  0.1106168E+005  0.1043930E+01  0.7957747E-01            NaN
         13   -1    0    0    0    0  0.00000000000E+00  0.00000000000E+00  0.74505805969E-08  0.10566000000E+00  0.10566000000E+00 0. -1.
     999900   -1    0    0    0    0 -0.00000000000E+00 -0.00000000000E+00 -0.74505805969E-08  0.93827000000E+00  0.93827000000E+00 0. -1.
     999902    2    1    2    0    0 -0.12250141029E-01 -0.36208341129E-02  0.19241257197E-01  0.10208344945E+01  0.10205732031E+01 0.  0.
     999903    2    3    3    0    0  0.16858838558E-01  0.12591384266E+00 -0.17213971698E-01  0.13012940927E+00  0.22334415670E-01 0.  0.
         14    1    1    2    0    0  0.12250141029E-01  0.36208341129E-02 -0.19241257197E-01  0.23095505481E-01  0.00000000000E+00 0.  1.
     999901    1    3    3    0    0 -0.29108979588E-01 -0.12953467677E+00  0.36455228895E-01  0.89070508525E+00  0.88000000000E+00 0.  1.
        -11    1    4    4    0    0 -0.24549796376E-02  0.35725785045E-01 -0.11912265526E-01  0.37742838169E-01  0.51100000000E-03 0. -1.
         11    1    4    4    0    0  0.19313818196E-01  0.90188057616E-01 -0.53017061719E-02  0.92386571098E-01  0.51100000000E-03 0.  1.
</event>
<event>
 8    1  0.1106168E+005  0.1043930E+01  0.7957747E-01            NaN
         13   -1    0    0    0    0  0.00000000000E+00  0.00000000000E+00  0.74505805969E-08  0.10566000000E+00  0.10566000000E+00 0. -1.
     999900   -1    0    0    0    0 -0.00000000000E+00 -0.00000000000E+00 -0.74505805969E-08  0.93827000000E+00  0.93827000000E+00 0. -1.
     999902    2    1    2    0    0  0.26485239799E-01 -0.24631821491E-01 -0.15692220343E-02  0.10077270027E+01  0.10070764891E+01 0.  0.
     999903    2    3    3    0    0  0.92575437796E-01 -0.38292461990E-01 -0.67982800297E-01  0.12264774592E+00  0.19603165930E-01 0.  0.
         14    1    1    2    0    0 -0.26485239799E-01  0.24631821491E-01  0.15692220343E-02  0.36202997320E-01  0.00000000000E+00 0. -1.
     999901    1    3    3    0    0 -0.66090197997E-01  0.13660640498E-01  0.66413578263E-01  0.88507925676E+00  0.88000000000E+00 0.  1.
        -11    1    4    4    0    0  0.15645158466E-01 -0.15043838498E-01 -0.14888122852E-01  0.26324995409E-01  0.51100000000E-03 0.  1.
         11    1    4    4    0    0  0.76930279330E-01 -0.23248623492E-01 -0.53094677444E-01  0.96322750511E-01  0.51100000000E-03 0. -1.
</event>
<event>
 8    1  0.1106168E+005  0.1043930E+01  0.7957747E-01            NaN
         13   -1    0    0    0    0  0.00000000000E+00  0.00000000000E+00  0.74505805969E-08  0.10566000000E+00  0.10566000000E+00 0.  1.
     999900   -1    0    0    0    0 -0.00000000000E+00 -0.00000000000E+00 -0.74505805969E-08  0.93827000000E+00  0.93827000000E+00 0.  1.
     999902    2    1    2    0    0 -0.10601510839E-01 -0.73138073249E-02  0.19690565347E-01  0.10204012479E+01  0.10201299450E+01 0.  0.
     999903    2    3    3    0    0 -0.11181452174E+00  0.59416358475E-01  0.31500887512E-01  0.13201142792E+00  0.20047949087E-01 0.  0.
         14    1    1    2    0    0  0.10601510839E-01  0.73138073249E-02 -0.19690565347E-01  0.23528752057E-01  0.00000000000E+00 0. -1.
     999901    1    3    3    0    0  0.10121301090E+00 -0.66730165800E-01 -0.11810322165E-01  0.88838982002E+00  0.88000000000E+00 0. -1.
        -11    1    4    4    0    0 -0.91340250656E-01  0.51925566763E-01  0.33061229721E-01  0.11014813619E+00  0.51100000000E-03 0.  1.
         11    1    4    4    0    0 -0.20474271083E-01  0.74907917114E-02 -0.15603422093E-02  0.21863291739E-01  0.51100000000E-03 0. -1.
</event>
<event>
 8    1  0.1106168E+005  0.1043930E+01  0.7957747E-01            NaN
         13   -1    0    0    0    0  0.00000000000E+00  0.00000000000E+00  0.74505805969E-08  0.10566000000E+00  0.10566000000E+00 0.  1.
     999900   -1    0    0    0    0 -0.00000000000E+00 -0.00000000000E+00 -0.74505805969E-08  0.93827000000E+00  0.93827000000E+00 0. -1.
     999902    2    1    2    0    0 -0.46100887101E-02  0.15135403229E-01  0.93565926517E-02  0.10255485100E+01  0.10253837658E+01 0.  0.
     999903    2    3    3    0    0  0.12995104148E+00  0.75686496680E-03  0.35523805950E-01  0.13481950341E+00  0.51489496866E-02 0.  0.
         14    1    1    2    0    0  0.46100887101E-02 -0.15135403229E-01 -0.93565926517E-02  0.18381490006E-01  0.00000000000E+00 0. -1.
     999901    1    3    3    0    0 -0.13456113019E+00  0.14378538262E-01 -0.26167213298E-01  0.89072900659E+00  0.88000000000E+00 0. -1.
        -11    1    4    4    0    0  0.62700734817E-01 -0.21478531917E-02  0.17353108989E-01  0.65095214360E-01  0.51100000000E-03 0.  1.
         11    1    4    4    0    0  0.67250306665E-01  0.29047181585E-02  0.18170696961E-01  0.69724289048E-01  0.51100000000E-03 0. -1.
</event>
<event>
 8    1  0.1106168E+005  0.1043930E+01  0.7957747E-01            NaN
         13   -1    0    0    0    0  0.00000000000E+00  0.00000000000E+00  0.74505805969E-08  0.10566000000E+00  0.10566000000E+00 0. -1.
     999900   -1    0    0    0    0 -0.00000000000E+00 -0.00000000000E+00 -0.74505805969E-08  0.93827000000E+00  0.93827000000E+00 0. -1.
     999902    2    1    2    0    0 -0.60841732917E-02  0.21749129326E-01 -0.70887181596E-02  0.10202595180E+01  0.10199848981E+01 0.  0.
     999903    2    3    3    0    0  0.76594747159E-01 -0.84706174818E-01 -0.56156184938E-01  0.12864516645E+00  0.18819415486E-01 0.  0.
         14    1    1    2    0    0  0.60841732917E-02 -0.21749129326E-01  0.70887181596E-02  0.23670481960E-01  0.00000000000E+00 0.  1.
     999901    1    3    3    0    0 -0.82678920450E-01  0.10645530414E+00  0.49067466779E-01  0.89161435159E+00  0.88000000000E+00 0. -1.
        -11    1    4    4    0    0  0.11155011925E-01 -0.20241177449E-01 -0.55764963309E-02  0.23780201595E-01  0.51100000000E-03 0. -1.
         11    1    4    4    0    0  0.65439735233E-01 -0.64464997369E-01 -0.50579688607E-01  0.10486496485E+00  0.51100000000E-03 0.  1.
</event>
<event>
 8    1  0.1106168E+005  0.1043930E+01  0.7957747E-01            NaN
         13   -1    0    0    0    0  0.00000000000E+00  0.00000000000E+00  0.74505805969E-08  0.10566000000E+00  0.10566000000E+00 0.  1.
     999900   -1    0    0    0    0 -0.00000000000E+00 -0.00000000000E+00 -0.74505805969E-08  0.93827000000E+00  0.93827000000E+00 0. -1.
     999902    2    1    2    0    0 -0.20518613003E-01 -0.52890646436E-02 -0.82764295786E-02  0.10211816600E+01  0.10209282520E+01 0.  0.
     999903    2    3    3    0    0  0.10002952700E+00 -0.74125632591E-01 -0.31830613626E-01  0.12998856832E+00  0.19578668255E-01 0.  0.
         14    1    1    2    0    0  0.20518613003E-01  0.52890646436E-02  0.82764295786E-02  0.22748339960E-01  0.00000000000E+00 0.  1.
     999901    1    3    3    0    0 -0.12054814000E+00  0.68836567948E-01  0.23554184047E-01  0.89119309172E+00  0.88000000000E+00 0.  1.
        -11    1    4    4    0    0  0.37410448331E-01 -0.39653191959E-01 -0.12348882997E-01  0.55898777349E-01  0.51100000000E-03 0.  1.
         11    1    4    4    0    0  0.62619078669E-01 -0.34472440632E-01 -0.19481730629E-01  0.74089790969E-01  0.51100000000E-03 0. -1.
</event>
<event>
 8    1  0.1106168E+005  0.1043930E+01  0.7957747E-01            NaN
         13   -1    0    0    0    0  0.00000000000E+00  0.00000000000E+00  0.74505805969E-08  0.10566000000E+00  0.10566000000E+00 0. -1.
     999900   -1    0    0    0    0 -0.00000000000E+00 -0.00000000000E+00 -0.74505805969E-08  0.93827000000E+00  0.93827000000E+00 0. -1.
     999902    2    1    2    0    0 -0.50834889556E-02 -0.21222168166E-01 -0.74889165193E-02  0.10208582391E+01  0.10205974908E+01 0.  0.
     999903    2    3    3    0    0 -0.26496695482E-01  0.10115936287E+00  0.72860535591E-01  0.12850640319E+00  0.16430047023E-01 0.  0.
         14    1    1    2    0    0  0.50834889556E-02  0.21222168166E-01  0.74889165193E-02  0.23071760926E-01  0.00000000000E+00 0.  1.
     999901    1    3    3    0    0  0.21413206526E-01 -0.12238153104E+00 -0.80349452110E-01  0.89235183589E+00  0.88000000000E+00 0. -1.
        -11    1    4    4    0    0 -0.11738831070E-01  0.28994194487E-01  0.29674628976E-01  0.43119696134E-01  0.51100000000E-03 0. -1.
         11    1    4    4    0    0 -0.14757864412E-01  0.72165168387E-01  0.43185906615E-01  0.85386707054E-01  0.51100000000E-03 0.  1.
</event>
<event>
 8    1  0.1106168E+005  0.1043930E+01  0.7957747E-01            NaN
         13   -1    0    0    0    0  0.00000000000E+00  0.00000000000E+00  0.74505805969E-08  0.10566000000E+00  0.10566000000E+00 0.  1.
     999900   -1    0    0    0    0 -0.00000000000E+00 -0.00000000000E+00 -0.74505805969E-08  0.93827000000E+00  0.93827000000E+00 0.  1.
     999902    2    1    2    0    0 -0.33444068771E-02 -0.23577454039E-01 -0.33243157745E-02  0.10198856145E+01  0.10196021451E+01 0.  0.
     999903    2    3    3    0    0  0.13656436195E-01 -0.87634949002E-01 -0.96290096009E-01  0.13251025563E+00  0.20513476572E-01 0.  0.
         14    1    1    2    0    0  0.33444068771E-02  0.23577454039E-01  0.33243157745E-02  0.24044385451E-01  0.00000000000E+00 0.  1.
     999901    1    3    3    0    0 -0.17000843072E-01  0.64057494962E-01  0.92965780235E-01  0.88737535892E+00  0.88000000000E+00 0.  1.
        -11    1    4    4    0    0  0.15579620225E-01 -0.48787228008E-01 -0.63894995827E-01  0.81888642655E-01  0.51100000000E-03 0.  1.
         11    1    4    4    0    0 -0.19231840301E-02 -0.38847720994E-01 -0.32395100182E-01  0.50621612973E-01  0.51100000000E-03 0. -1.
</event>
<event>
 8    1  0.1106168E+005  0.1043930E+01  0.7957747E-01            NaN
         13   -1    0    0    0    0  0.00000000000E+00  0.00000000000E+00  0.74505805969E-08  0.10566000000E+00  0.10566000000E+00 0. -1.
     999900   -1    0    0    0    0 -0.00000000000E+00 -0.00000000000E+00 -0.74505805969E-08  0.93827000000E+00  0.93827000000E+00 0. -1.
     999902    2    1    2    0    0 -0.97095706801E-02 -0.83002582216E-02  0.15481560764E-01  0.10238589070E+01  0.10236621575E+01 0.  0.
     999903    2    3    3    0    0  0.30643481440E-02  0.12263511620E+00  0.48535841580E-01  0.13346583049E+00  0.20214797413E-01 0.  0.
         14    1    1    2    0    0  0.97095706801E-02  0.83002582216E-02 -0.15481560764E-01  0.20071092970E-01  0.00000000000E+00 0.  1.
     999901    1    3    3    0    0 -0.12773918824E-01 -0.13093537442E+00 -0.33054280816E-01  0.89039307654E+00  0.88000000000E+00 0.  1.
        -11    1    4    4    0    0 -0.97447389333E-04  0.74518890868E-01  0.39715118455E-01  0.84443036108E-01  0.51100000000E-03 0. -1.
         11    1    4    4    0    0  0.31617955334E-02  0.48116225332E-01  0.88207231249E-02  0.49022794378E-01  0.51100000000E-03 0.  1.
</event>
<event>
 8    1  0.1106168E+005  0.1043930E+01  0.7957747E-01            NaN
         13   -1    0    0    0    0  0.00000000000E+00  0.00000000000E+00  0.74505805969E-08  0.10566000000E+00  0.10566000000E+00 0.  1.
     999900   -1    0    0    0    0 -0.00000000000E+00 -0.00000000000E+00 -0.74505805969E-08  0.93827000000E+00  0.93827000000E+00 0.  1.
     999902    2    1    2    0    0  0.17018501991E-01 -0.12837530433E-01  0.84852367593E-02  0.10209859193E+01  0.10207280816E+01 0.  0.
     999903    2    3    3    0    0 -0.12175690877E+00  0.30291857629E-01  0.22110970072E-01  0.12896326297E+00  0.20007166865E-01 0.  0.
         14    1    1    2    0    0 -0.17018501991E-01  0.12837530433E-01 -0.84852367593E-02  0.22944080729E-01  0.00000000000E+00 0. -1.
     999901    1    3    3    0    0  0.13877541076E+00 -0.43129388062E-01 -0.13625733313E-01  0.89202265630E+00  0.88000000000E+00 0. -1.
        -11    1    4    4    0    0 -0.11776196090E-01  0.94651718273E-02  0.26399802422E-02  0.15345973047E-01  0.51100000000E-03 0. -1.
         11    1    4    4    0    0 -0.10998071268E+00  0.20826685802E-01  0.19470989830E-01  0.11361728992E+00  0.51100000000E-03 0.  1.
</event>
<event>
 8    1  0.1106168E+005  0.1043930E+01  0.7957747E-01            NaN
         13   -1    0    0    0    0  0.00000000000E+00  0.00000000000E+00  0.74505805969E-08  0.10566000000E+00  0.10566000000E+00 0.  1.
     999900   -1    0    0    0    0 -0.00000000000E+00 -0.00000000000E+00 -0.74505805969E-08  0.93827000000E+00  0.93827000000E+00 0. -1.
     999902    2    1    2    0    0  0.20724008461E-01  0.51500337449E-02  0.10050263642E-01  0.10203288311E+01  0.10200558359E+01 0.  0.
     999903    2    3    3    0    0  0.11368619866E-01  0.12889418458E+00  0.11770267883E-01  0.13162016310E+00  0.21032636344E-01 0.  0.
         14    1    1    2    0    0 -0.20724008461E-01 -0.51500337449E-02 -0.10050263642E-01  0.23601168902E-01  0.00000000000E+00 0.  1.
     999901    1    3    3    0    0  0.93553885949E-02 -0.12374415084E+00 -0.17200042413E-02  0.88870866800E+00  0.88000000000E+00 0. -1.
        -11    1    4    4    0    0  0.98262475843E-02  0.23257439940E-01 -0.51919608416E-03  0.25258549834E-01  0.51100000000E-03 0.  1.
         11    1    4    4    0    0  0.15423722822E-02  0.10563674464E+00  0.12289463968E-01  0.10636161326E+00  0.51100000000E-03 0. -1.
</event>
<event>
 8    1  0.1106168E+005  0.1043930E+01  0.7957747E-01            NaN
         13   -1    0    0    0    0  0.00000000000E+00  0.00000000000E+00  0.74505805969E-08  0.10566000000E+00  0.10566000000E+00 0. -1.
     999900   -1    0    0    0    0 -0.00000000000E+00 -0.00000000000E+00 -0.74505805969E-08  0.93827000000E+00  0.93827000000E+00 0. -1.
     999902    2    1    2    0    0 -0.65621494620E-02  0.21279391139E-01 -0.71161662877E-02  0.10205523586E+01  0.10202845694E+01 0.  0.
     999903    2    3    3    0    0  0.90307592172E-01  0.61270976084E-01 -0.71927418882E-01  0.13196720674E+00  0.18226254547E-01 0.  0.
         14    1    1    2    0    0  0.65621494620E-02 -0.21279391139E-01  0.71161662877E-02  0.23377641357E-01  0.00000000000E+00 0.  1.
     999901    1    3    3    0    0 -0.96869741634E-01 -0.39991584945E-01  0.64811252594E-01  0.88858515190E+00  0.88000000000E+00 0.  1.
        -11    1    4    4    0    0  0.65969420769E-01  0.46125382358E-01 -0.62072626578E-01  0.10165031955E+00  0.51100000000E-03 0. -1.
         11    1    4    4    0    0  0.24338171403E-01  0.15145593725E-01 -0.98547923043E-02  0.30316887190E-01  0.51100000000E-03 0.  1.
</event>
<event>
 8    1  0.1106168E+005  0.1043930E+01  0.7957747E-01            NaN
         13   -1    0    0    0    0  0.00000000000E+00  0.00000000000E+00  0.74505805969E-08  0.10566000000E+00  0.10566000000E+00 0.  1.
     999900   -1    0    0    0    0 -0.00000000000E+00 -0.00000000000E+00 -0.74505805969E-08  0.93827000000E+00  0.93827000000E+00 0.  1.
     999902    2    1    2    0    0  0.98740313371E-02 -0.11233450806E-01  0.17923548311E-01  0.10205860394E+01  0.10203190302E+01 0.  0.
     999903    2    3    3    0    0 -0.10326543654E+00 -0.73655164060E-01  0.26838291452E-01  0.13110502100E+00  0.19478168944E-01 0.  0.
         14    1    1    2    0    0 -0.98740313371E-02  0.11233450806E-01 -0.17923548311E-01  0.23343960587E-01  0.00000000000E+00 0. -1.
     999901    1    3    3    0    0  0.11313946788E+00  0.62421713254E-01 -0.89147431410E-02  0.88948101842E+00  0.88000000000E+00 0.  1.
        -11    1    4    4    0    0 -0.49014650625E-01 -0.43255848216E-01  0.20895558011E-01  0.68632279915E-01  0.51100000000E-03 0.  1.
         11    1    4    4    0    0 -0.54250785918E-01 -0.30399315844E-01  0.59427334407E-02  0.62472741082E-01  0.51100000000E-03 0. -1.
</event>
<event>
 8    1  0.1106168E+005  0.1043930E+01  0.7957747E-01            NaN
         13   -1    0    0    0    0  0.00000000000E+00  0.00000000000E+00  0.74505805969E-08  0.10566000000E+00  0.10566000000E+00 0.  1.
     999900   -1    0    0    0    0 -0.00000000000E+00 -0.00000000000E+00 -0.74505805969E-08  0.93827000000E+00  0.93827000000E+00 0.  1.
     999902    2    1    2    0    0 -0.70893995389E-02  0.22008103376E-01 -0.55483790033E-02  0.10201518439E+01  0.10198746903E+01 0.  0.
     999903    2    3    3    0    0  0.89733473340E-01 -0.61163132247E-01 -0.66374316560E-01  0.12886517963E+00  0.20190582915E-01 0.  0.
         14    1    1    2    0    0  0.70893995389E-02 -0.22008103376E-01  0.55483790033E-02  0.23778156144E-01  0.00000000000E+00 0.  1.
     999901    1    3    3    0    0 -0.96822872879E-01  0.83171235623E-01  0.60825937557E-01  0.89128666423E+00  0.88000000000E+00 0. -1.
        -11    1    4    4    0    0  0.28622186320E-01 -0.17774549496E-01 -0.31775130057E-01  0.46315053391E-01  0.51100000000E-03 0. -1.
         11    1    4    4    0    0  0.61111287021E-01 -0.43388582751E-01 -0.34599186503E-01  0.82550126239E-01  0.51100000000E-03 0.  1.
</event>
<event>
 8    1  0.1106168E+005  0.1043930E+01  0.7957747E-01            NaN
         13   -1    0    0    0    0  0.00000000000E+00  0.00000000000E+00  0.74505805969E-08  0.10566000000E+00  0.10566000000E+00 0. -1.
     999900   -1    0    0    0    0 -0.00000000000E+00 -0.00000000000E+00 -0.74505805969E-08  0.93827000000E+00  0.93827000000E+00 0. -1.
     999902    2    1    2    0    0  0.25299009316E-02 -0.22833488119E-01 -0.88807782188E-02  0.10193000020E+01  0.10190023834E+01 0.  0.
     999903    2    3    3    0    0 -0.22970236887E-01 -0.89618605770E-02  0.12483633141E+00  0.12872549954E+00  0.19447309908E-01 0.  0.
         14    1    1    2    0    0 -0.25299009316E-02  0.22833488119E-01  0.88807782188E-02  0.24629997974E-01  0.00000000000E+00 0. -1.
     999901    1    3    3    0    0  0.25500137819E-01 -0.13871627542E-01 -0.13371710963E+00  0.89057450249E+00  0.88000000000E+00 0. -1.
        -11    1    4    4    0    0 -0.54945511389E-02 -0.27974729276E-02  0.79571298244E-01  0.79811456397E-01  0.51100000000E-03 0. -1.
         11    1    4    4    0    0 -0.17475685748E-01 -0.61643876493E-02  0.45265033168E-01  0.48914043138E-01  0.51100000000E-03 0.  1.
</event>
<event>
 8    1  0.1106168E+005  0.1043930E+01  0.7957747E-01            NaN
         13   -1    0    0    0    0  0.00000000000E+00  0.00000000000E+00  0.74505805969E-08  0.10566000000E+00  0.10566000000E+00 0.  1.
     999900   -1    0    0    0    0 -0.00000000000E+00 -0.00000000000E+00 -0.74505805969E-08  0.93827000000E+00  0.93827000000E+00 0. -1.
     999902    2    1    2    0    0  0.10129091656E-01 -0.59652223731E-02 -0.15834990455E-01  0.10242087095E+01  0.10240188237E+01 0.  0.
     999903    2    3    3    0    0  0.43278881330E-01  0.69721414376E-01 -0.10624453340E+00  0.13572614863E+00  0.19988730678E-01 0.  0.
         14    1    1    2    0    0 -0.10129091656E-01  0.59652223731E-02  0.15834990455E-01  0.19721290487E-01  0.00000000000E+00 0.  1.
     999901    1    3    3    0    0 -0.33149789673E-01 -0.75686636749E-01  0.90409542940E-01  0.88848256088E+00  0.88000000000E+00 0.  1.
        -11    1    4    4    0    0  0.40933086460E-01  0.55206879413E-01 -0.78597751268E-01  0.10440873875E+00  0.51100000000E-03 0.  1.
         11    1    4    4    0    0  0.23457948698E-02  0.14514534963E-01 -0.27646782127E-01  0.31317409883E-01  0.51100000000E-03 0. -1.
</event>
<event>
 8    1  0.1106168E+005  0.1043930E+01  0.7957747E-01            NaN
         13   -1    0    0    0    0  0.00000000000E+00  0.00000000000E+00  0.74505805969E-08  0.10566000000E+00  0.10566000000E+00 0.  1.
     999900   -1    0    0    0    0 -0.00000000000E+00 -0.00000000000E+00 -0.74505805969E-08  0.93827000000E+00  0.93827000000E+00 0.  1.
     999902    2    1    2    0    0  0.17789239959E-01 -0.74575011738E-02 -0.14702223186E-01  0.10196766137E+01  0.10193881350E+01 0.  0.
     999903    2    3    3    0    0 -0.47785645288E-01  0.86689917090E-01  0.77625954114E-01  0.12743881226E+00  0.20402266943E-01 0.  0.
         14    1    1    2    0    0 -0.17789239959E-01  0.74575011738E-02  0.14702223186E-01  0.24253386334E-01  0.00000000000E+00 0.  1.
     999901    1    3    3    0    0  0.65574885248E-01 -0.94147418264E-01 -0.92328177300E-01  0.89223780141E+00  0.88000000000E+00 0. -1.
        -11    1    4    4    0    0 -0.37611413970E-01  0.80913612137E-01  0.66483990077E-01  0.11127449460E+00  0.51100000000E-03 0. -1.
         11    1    4    4    0    0 -0.10174231318E-01  0.57763049526E-02  0.11141964037E-01  0.16164317660E-01  0.51100000000E-03 0.  1.
</event>
<event>
 8    1  0.1106168E+005  0.1043930E+01  0.7957747E-01            NaN
         13   -1    0    0    0    0  0.00000000000E+00  0.00000000000E+00  0.74505805969E-08  0.10566000000E+00  0.10566000000E+00 0. -1.
     999900   -1    0    0    0    0 -0.00000000000E+00 -0.00000000000E+00 -0.74505805969E-08  0.93827000000E+00  0.93827000000E+00 0.  1.
     999902    2    1    2    0    0  0.29172965974E-02  0.18347556105E-01 -0.12739107334E-01  0.10214038310E+01  0.10211554033E+01 0.  0.
     999903    2    3    3    0    0 -0.10843644461E+00  0.38143225407E-01  0.59990727583E-01  0.13118972580E+00  0.19962179097E-01 0.  0.
         14    1    1    2    0    0 -0.29172965974E-02 -0.18347556105E-01  0.12739107334E-01  0.22526169007E-01  0.00000000000E+00 0. -1.
     999901    1    3    3    0    0  0.11135374121E+00 -0.19795669302E-01 -0.72729834916E-01  0.89021410520E+00  0.88000000000E+00 0.  1.
        -11    1    4    4    0    0 -0.75316373886E-01  0.18930839687E-01  0.33221403414E-01  0.84468074634E-01  0.51100000000E-03 0. -1.
         11    1    4    4    0    0 -0.33120070725E-01  0.19212385720E-01  0.26769324169E-01  0.46721651162E-01  0.51100000000E-03 0.  1.
</event>
<event>
 8    1  0.1106168E+005  0.1043930E+01  0.7957747E-01            NaN
         13   -1    0    0    0    0  0.00000000000E+00  0.00000000000E+00  0.74505805969E-08  0.10566000000E+00  0.10566000000E+00 0.  1.
     999900   -1    0    0    0    0 -0.00000000000E+00 -0.00000000000E+00 -0.74505805969E-08  0.93827000000E+00  0.93827000000E+00 0. -1.
     999902    2    1    2    0    0  0.24616823809E-01  0.57899104576E-02 -0.12841705223E-02  0.10186088592E+01  0.10182940871E+01 0.  0.
     999903    2    3    3    0    0 -0.51852643483E-01 -0.57801782472E-01  0.98993118149E-01  0.12734738384E+00  0.19697107314E-01 0.  0.
         14    1    1    2    0    0 -0.24616823809E-01 -0.57899104576E-02  0.12841705223E-02  0.25321140801E-01  0.00000000000E+00 0. -1.
     999901    1    3    3    0    0  0.76469467292E-01  0.63591692930E-01 -0.10027728867E+00  0.89126147536E+00  0.88000000000E+00 0. -1.
        -11    1    4    4    0    0 -0.51517489163E-01 -0.51187378256E-01  0.95058933721E-01  0.11962717661E+00  0.51100000000E-03 0. -1.
         11    1    4    4    0    0 -0.33515432030E-03 -0.66144042158E-02  0.39341844285E-02  0.77202072295E-02  0.51100000000E-03 0.  1.
</event>
<event>
 8    1  0.1106168E+005  0.1043930E+01  0.7957747E-01            NaN
         13   -1    0    0    0    0  0.00000000000E+00  0.00000000000E+00  0.74505805969E-08  0.10566000000E+00  0.10566000000E+00 0. -1.
     999900   -1    0    0    0    0 -0.00000000000E+00 -0.00000000000E+00 -0.74505805969E-08  0.93827000000E+00  0.93827000000E+00 0.  1.
     999902    2    1    2    0    0  0.13573876081E-01  0.19142905980E-01  0.20305897292E-02  0.10203752923E+01  0.10201033834E+01 0.  0.
     999903    2    3    3    0    0  0.12889256054E-01  0.10222260245E+00  0.81576882834E-01  0.13288990230E+00  0.19731825791E-01 0.  0.
         14    1    1    2    0    0 -0.13573876081E-01 -0.19142905980E-01 -0.20305897292E-02  0.23554707722E-01  0.00000000000E+00 0. -1.
     999901    1    3    3    0    0  0.68462002669E-03 -0.83079696467E-01 -0.79546293105E-01  0.88748538997E+00  0.88000000000E+00 0.  1.
        -11    1    4    4    0    0  0.14222845120E-01  0.36839108758E-01  0.29716035930E-01  0.49423811768E-01  0.51100000000E-03 0. -1.
         11    1    4    4    0    0 -0.13335890655E-02  0.65383493689E-01  0.51860846904E-01  0.83466090537E-01  0.51100000000E-03 0.  1.
</event>
<event>
 8    1  0.1106168E+005  0.1043930E+01  0.7957747E-01            NaN
         13   -1    0    0    0    0  0.00000000000E+00  0.00000000000E+00  0.74505805969E-08  0.10566000000E+00  0.10566000000E+00 0.  1.
     999900   -1    0    0    0    0 -0.00000000000E+00 -0.00000000000E+00 -0.74505805969E-08  0.93827000000E+00  0.93827000000E+00 0.  1.
     999902    2    1    2    0    0  0.18631897828E-01  0.13863220902E-01 -0.10457040413E-01  0.10184606811E+01  0.10181421673E+01 0.  0.
     999903    2    3    3    0    0  0.45167612841E-01  0.69502506114E-01 -0.10062051211E+00  0.13170855912E+00  0.18760210069E-01 0.  0.
         14    1    1    2    0    0 -0.18631897828E-01 -0.13863220902E-01  0.10457040413E-01  0.25469318889E-01  0.00000000000E+00 0.  1.
     999901    1    3    3    0    0 -0.26535715014E-01 -0.55639285212E-01  0.90163471697E-01  0.88675212199E+00  0.88000000000E+00 0. -1.
        -11    1    4    4    0    0  0.10992885407E-01  0.26784612160E-01 -0.46324310262E-01  0.54630228083E-01  0.51100000000E-03 0. -1.
         11    1    4    4    0    0  0.34174727435E-01  0.42717893955E-01 -0.54296201848E-01  0.77078331036E-01  0.51100000000E-03 0.  1.
</event>
<event>
 8    1  0.1106168E+005  0.1043930E+01  0.7957747E-01            NaN
         13   -1    0    0    0    0  0.00000000000E+00  0.00000000000E+00  0.74505805969E-08  0.10566000000E+00  0.10566000000E+00 0. -1.
     999900   -1    0    0    0    0 -0.00000000000E+00 -0.00000000000E+00 -0.74505805969E-08  0.93827000000E+00  0.93827000000E+00 0. -1.
     999902    2    1    2    0    0 -0.22538465515E-01 -0.90088609758E-02 -0.54890688070E-02  0.10190448261E+01  0.10187409316E+01 0.  0.
     999903    2    3    3    0    0 -0.79864386749E-01 -0.78936680431E-01 -0.68262174555E-01  0.13218710133E+00  0.14296345468E-01 0.  0.
         14    1    1    2    0    0  0.22538465515E-01  0.90088609758E-02  0.54890688070E-02  0.24885173904E-01  0.00000000000E+00 0. -1.
     999901    1    3    3    0    0  0.57325921234E-01  0.69927819455E-01  0.62773105748E-01  0.88685772477E+00  0.88000000000E+00 0.  1.
        -11    1    4    4    0    0 -0.23501557475E-01 -0.30344565588E-01 -0.28525559894E-01  0.47823472822E-01  0.51100000000E-03 0.  1.
         11    1    4    4    0    0 -0.56362829274E-01 -0.48592114843E-01 -0.39736614662E-01  0.84363628504E-01  0.51100000000E-03 0. -1.
</event>
<event>
 8    1  0.1106168E+005  0.1043930E+01  0.7957747E-01            NaN
         13   -1    0    0    0    0  0.00000000000E+00  0.00000000000E+00  0.74505805969E-08  0.10566000000E+00  0.10566000000E+00 0.  1.
     999900   -1    0    0    0    0 -0.00000000000E+00 -0.00000000000E+00 -0.74505805969E-08  0.93827000000E+00  0.93827000000E+00 0.  1.
     999902    2    1    2    0    0 -0.12024711674E-01 -0.10372183993E-01 -0.13925981496E-01  0.10228087109E+01  0.10225906074E+01 0.  0.
     999903    2    3    3    0    0 -0.85723182357E-01  0.98922125256E-01 -0.11120569201E-01  0.13298593028E+00  0.20677033976E-01 0.  0.
         14    1    1    2    0    0  0.12024711674E-01  0.10372183993E-01  0.13925981496E-01  0.21121289077E-01  0.00000000000E+00 0.  1.
     999901    1    3    3    0    0  0.73698470683E-01 -0.10929430925E+00 -0.28054122951E-02  0.88982278064E+00  0.88000000000E+00 0. -1.
        -11    1    4    4    0    0 -0.70077251894E-01  0.89837571114E-01 -0.13483305573E-01  0.11473304261E+00  0.51100000000E-03 0.  1.
         11    1    4    4    0    0 -0.15645930464E-01  0.90845541422E-02  0.23627363719E-02  0.18252887668E-01  0.51100000000E-03 0. -1.
</event>
<event>
 8    1  0.1106168E+005  0.1043930E+01  0.7957747E-01            NaN
         13   -1    0    0    0    0  0.00000000000E+00  0.00000000000E+00  0.74505805969E-08  0.10566000000E+00  0.10566000000E+00 0.  1.
     999900   -1    0    0    0    0 -0.00000000000E+00 -0.00000000000E+00 -0.74505805969E-08  0.93827000000E+00  0.93827000000E+00 0.  1.
     999902    2    1    2    0    0  0.91898548115E-02  0.23767993498E-01 -0.17156127050E-02  0.10183895561E+01  0.10180692382E+01 0.  0.
     999903    2    3    3    0    0 -0.63594355938E-01 -0.69566305197E-01 -0.82414826856E-01  0.12680602341E+00  0.20096043412E-01 0.  0.
         14    1    1    2    0    0 -0.91898548115E-02 -0.23767993498E-01  0.17156127050E-02  0.25540443875E-01  0.00000000000E+00 0. -1.
     999901    1    3    3    0    0  0.72784210750E-01  0.93334298695E-01  0.80699214151E-01  0.89158353272E+00  0.88000000000E+00 0.  1.
        -11    1    4    4    0    0  0.77020839084E-04 -0.69394066854E-02 -0.75506102960E-02  0.10268112494E-01  0.51100000000E-03 0. -1.
         11    1    4    4    0    0 -0.63671376777E-01 -0.62626898511E-01 -0.74864216560E-01  0.11653791091E+00  0.51100000000E-03 0.  1.
</event>
<event>
 8    1  0.1106168E+005  0.1043930E+01  0.7957747E-01            NaN
         13   -1    0    0    0    0  0.00000000000E+00  0.00000000000E+00  0.74505805969E-08  0.10566000000E+00  0.10566000000E+00 0.  1.
     999900   -1    0    0    0    0 -0.00000000000E+00 -0.00000000000E+00 -0.74505805969E-08  0.93827000000E+00  0.93827000000E+00 0.  1.
     999902    2    1    2    0    0 -0.22067523847E-01  0.41100601652E-02  0.11274264910E-01  0.10188107394E+01  0.10185010287E+01 0.  0.
     999903    2    3    3    0    0  0.12401069835E+00  0.93094361237E-02 -0.11593933678E-01  0.12646056430E+00  0.19812524277E-01 0.  0.
         14    1    1    2    0    0  0.22067523847E-01 -0.41100601652E-02 -0.11274264910E-01  0.25119260589E-01  0.00000000000E+00 0. -1.
     999901    1    3    3    0    0 -0.14607822220E+00 -0.51993759585E-02  0.22868198587E-01  0.89235017511E+00  0.88000000000E+00 0. -1.
        -11    1    4    4    0    0  0.10656029190E+00  0.11240213193E-01 -0.16028997618E-01  0.10834494952E+00  0.51100000000E-03 0. -1.
         11    1    4    4    0    0  0.17450406456E-01 -0.19307770697E-02  0.44350639404E-02  0.18115614777E-01  0.51100000000E-03 0.  1.
</event>
<event>
 8    1  0.1106168E+005  0.1043930E+01  0.7957747E-01            NaN
         13   -1    0    0    0    0  0.00000000000E+00  0.00000000000E+00  0.74505805969E-08  0.10566000000E+00  0.10566000000E+00 0.  1.
     999900   -1    0    0    0    0 -0.00000000000E+00 -0.00000000000E+00 -0.74505805969E-08  0.93827000000E+00  0.93827000000E+00 0. -1.
     999902    2    1    2    0    0  0.13139970421E-01 -0.19860869595E-01  0.30348101654E-02  0.10199232710E+01  0.10196406993E+01 0.  0.
     999903    2    3    3    0    0  0.27260979626E-01  0.73870514552E-01 -0.99990572059E-01  0.12885694091E+00  0.20149014582E-01 0.  0.
         14    1    1    2    0    0 -0.13139970421E-01  0.19860869595E-01 -0.30348101654E-02  0.24006728983E-01  0.00000000000E+00 0.  1.
     999901    1    3    3    0    0 -0.14121009205E-01 -0.93731384147E-01  0.10302538222E+00  0.89106633011E+00  0.88000000000E+00 0.  1.
        -11    1    4    4    0    0  0.61993784902E-02  0.77048507387E-02 -0.23761670309E-01  0.25742476871E-01  0.51100000000E-03 0. -1.
         11    1    4    4    0    0  0.21061601136E-01  0.66165663813E-01 -0.76228901750E-01  0.10311446404E+00  0.51100000000E-03 0.  1.
</event>
<event>
 8    1  0.1106168E+005  0.1043930E+01  0.7957747E-01            NaN
         13   -1    0    0    0    0  0.00000000000E+00  0.00000000000E+00  0.74505805969E-08  0.10566000000E+00  0.10566000000E+00 0.  1.
     999900   -1    0    0    0    0 -0.00000000000E+00 -0.00000000000E+00 -0.74505805969E-08  0.93827000000E+00  0.93827000000E+00 0. -1.
     999902    2    1    2    0    0  0.55190634821E-02  0.17359483311E-01  0.17141880414E-01  0.10189168877E+01  0.10186098214E+01 0.  0.
     999903    2    3    3    0    0  0.26308303790E-01 -0.10032581888E+00 -0.69792562264E-01  0.12659428898E+00  0.19942805077E-01 0.  0.
         14    1    1    2    0    0 -0.55190634821E-02 -0.17359483311E-01 -0.17141880414E-01  0.25013112294E-01  0.00000000000E+00 0. -1.
     999901    1    3    3    0    0 -0.20789240308E-01  0.11768530219E+00  0.86934442678E-01  0.89232259872E+00  0.88000000000E+00 0.  1.
        -11    1    4    4    0    0  0.23402283023E-01 -0.52290174241E-01 -0.41808629572E-01  0.70923563084E-01  0.51100000000E-03 0.  1.
         11    1    4    4    0    0  0.29060207665E-02 -0.48035644638E-01 -0.27983932692E-01  0.55670725901E-01  0.51100000000E-03 0. -1.
</event>
<event>
 8    1  0.1106168E+005  0.1043930E+01  0.7957747E-01            NaN
         13   -1    0    0    0    0  0.00000000000E+00  0.00000000000E+00  0.74505805969E-08  0.10566000000E+00  0.10566000000E+00 0.  1.
     999900   -1    0    0    0    0 -0.00000000000E+00 -0.00000000000E+00 -0.74505805969E-08  0.93827000000E+00  0.93827000000E+00 0.  1.
     999902    2    1    2    0    0 -0.13242326234E-01 -0.15979799071E-01 -0.12947997220E-01  0.10194685239E+01  0.10191750131E+01 0.  0.
     999903    2    3    3    0    0  0.18808485254E-01 -0.88478981816E-01  0.90897171126E-01  0.12982409771E+00  0.20241326191E-01 0.  0.
         14    1    1    2    0    0  0.13242326234E-01  0.15979799071E-01  0.12947997220E-01  0.24461476130E-01  0.00000000000E+00 0.  1.
     999901    1    3    3    0    0 -0.32050811488E-01  0.72499182744E-01 -0.10384516835E+00  0.88964442616E+00  0.88000000000E+00 0.  1.
        -11    1    4    4    0    0  0.21104557405E-01 -0.52099520103E-01  0.53705139758E-01  0.77744874402E-01  0.51100000000E-03 0.  1.
         11    1    4    4    0    0 -0.22960721510E-02 -0.36379461712E-01  0.37192031367E-01  0.52079223305E-01  0.51100000000E-03 0. -1.
</event>
<event>
 8    1  0.1106168E+005  0.1043930E+01  0.7957747E-01            NaN
         13   -1    0    0    0    0  0.00000000000E+00  0.00000000000E+00  0.74505805969E-08  0.10566000000E+00  0.10566000000E+00 0.  1.
     999900   -1    0    0    0    0 -0.00000000000E+00 -0.00000000000E+00 -0.74505805969E-08  0.93827000000E+00  0.93827000000E+00 0. -1.
     999902    2    1    2    0    0 -0.97814511934E-02 -0.21447898446E-01 -0.54746687621E-03  0.10203505841E+01  0.10200780978E+01 0.  0.
     999903    2    3    3    0    0 -0.25385494369E-01 -0.17676283117E-01 -0.12604063700E+00  0.13130263993E+00  0.19931552070E-01 0.  0.
         14    1    1    2    0    0  0.97814511934E-02  0.21447898446E-01  0.54746687621E-03  0.23579415921E-01  0.00000000000E+00 0. -1.
     999901    1    3    3    0    0  0.15604043176E-01 -0.37716153282E-02  0.12549317013E+00  0.88904794415E+00  0.88000000000E+00 0.  1.
        -11    1    4    4    0    0 -0.21431388119E-01 -0.10138303441E-01 -0.56982192589E-01  0.61719696909E-01  0.51100000000E-03 0.  1.
         11    1    4    4    0    0 -0.39541062496E-02 -0.75379796768E-02 -0.69058444413E-01  0.69582943022E-01  0.51100000000E-03 0. -1.
</event>
<event>
 8    1  0.1106168E+005  0.1043930E+01  0.7957747E-01            NaN
         13   -1    0    0    0    0  0.00000000000E+00  0.00000000000E+00  0.74505805969E-08  0.10566000000E+00  0.10566000000E+00 0.  1.
     999900   -1    0    0    0    0 -0.00000000000E+00 -0.00000000000E+00 -0.74505805969E-08  0.93827000000E+00  0.93827000000E+00 0.  1.
     999902    2    1    2    0    0  0.67772358825E-02 -0.22106544146E-01 -0.31661953787E-02  0.10205921549E+01  0.10203252872E+01 0.  0.
     999903    2    3    3    0    0 -0.75290314693E-01 -0.10702056356E+00  0.87823256007E-02  0.13262355146E+00  0.19744484014E-01 0.  0.
         14    1    1    2    0    0 -0.67772358825E-02  0.22106544146E-01  0.31661953787E-02  0.23337845090E-01  0.00000000000E+00 0. -1.
     999901    1    3    3    0    0  0.82067550576E-01  0.84914019414E-01 -0.11948520979E-01  0.88796860345E+00  0.88000000000E+00 0. -1.
        -11    1    4    4    0    0 -0.31877546089E-01 -0.43138238730E-01 -0.60239730688E-02  0.53978097020E-01  0.51100000000E-03 0. -1.
         11    1    4    4    0    0 -0.43412768605E-01 -0.63882324829E-01  0.14806298670E-01  0.78645454445E-01  0.51100000000E-03 0.  1.
</event>
<event>
 8    1  0.1106168E+005  0.1043930E+01  0.7957747E-01            NaN
         13   -1    0    0    0    0  0.00000000000E+00  0.00000000000E+00  0.74505805969E-08  0.10566000000E+00  0.10566000000E+00 0.  1.
     999900   -1    0    0    0    0 -0.00000000000E+00 -0.00000000000E+00 -0.74505805969E-08  0.93827000000E+00  0.93827000000E+00 0. -1.
     999902    2    1    2    0    0 -0.17066695923E-01 -0.84672706653E-02 -0.75635978982E-02  0.10234318343E+01  0.10232265364E+01 0.  0.
     999903    2    3    3    0    0  0.92287885713E-01 -0.78205750654E-01  0.49116991310E-01  0.13212124352E+00  0.20257118976E-01 0.  0.
         14    1    1    2    0    0  0.17066695923E-01  0.84672706653E-02  0.75635978982E-02  0.20498165660E-01  0.00000000000E+00 0. -1.
     999901    1    3    3    0    0 -0.10935458164E+00  0.69738479989E-01 -0.56680589208E-01  0.89131059082E+00  0.88000000000E+00 0. -1.
        -11    1    4    4    0    0  0.72046247961E-01 -0.66476484053E-01  0.31973417106E-01  0.10311326442E+00  0.51100000000E-03 0. -1.
         11    1    4    4    0    0  0.20241637751E-01 -0.11729266601E-01  0.17143574204E-01  0.29007979098E-01  0.51100000000E-03 0.  1.
</event>
<event>
 8    1  0.1106168E+005  0.1043930E+01  0.7957747E-01            NaN
         13   -1    0    0    0    0  0.00000000000E+00  0.00000000000E+00  0.74505805969E-08  0.10566000000E+00  0.10566000000E+00 0.  1.
     999900   -1    0    0    0    0 -0.00000000000E+00 -0.00000000000E+00 -0.74505805969E-08  0.93827000000E+00  0.93827000000E+00 0. -1.
     999902    2    1    2    0    0 -0.11914602503E-01  0.18025605256E-01  0.16148925466E-01  0.10169546781E+01  0.10165968470E+01 0.  0.
     999903    2    3    3    0    0  0.10366423076E+00  0.53597688035E-01  0.50503174967E-01  0.12802045431E+00  0.14821644271E-01 0.  0.
         14    1    1    2    0    0  0.11914602503E-01 -0.18025605256E-01 -0.16148925466E-01  0.26975321895E-01  0.00000000000E+00 0. -1.
     999901    1    3    3    0    0 -0.11557883326E+00 -0.35572082779E-01 -0.34354249502E-01  0.88893422379E+00  0.88000000000E+00 0. -1.
        -11    1    4    4    0    0  0.54108008082E-01  0.35401253805E-01  0.31335502179E-01  0.71854715415E-01  0.51100000000E-03 0. -1.
         11    1    4    4    0    0  0.49556222678E-01  0.18196434230E-01  0.19167672788E-01  0.56165738897E-01  0.51100000000E-03 0.  1.
</event>
<event>
 7    1  0.1106168E+005  0.1043930E+01  0.7957747E-01            NaN
         13   -1    0    0    0    0  0.00000000000E+00  0.00000000000E+00  0.74505805969E-08  0.10566000000E+00  0.10566000000E+00 0.  1.
     999900   -1    0    0    0    0 -0.00000000000E+00 -0.00000000000E+00 -0.74505805969E-08  0.93827000000E+00  0.93827000000E+00 0.  1.
     999903    2    1    2    0    0  0.38987404502E-02  0.10287060070E-01 -0.87929329671E-01  0.90724165130E-01  0.19449507455E-01 0.  0.
         14    1    1    2    0    0  0.62409737640E-01 -0.15181578497E-01 -0.11018145710E-01  0.65167900172E-01  0.00000000000E+00 0. -1.
     999901    1    1    2    0    0 -0.66308478090E-01  0.48945184278E-02  0.98947475381E-01  0.88803793470E+00  0.88000000000E+00 0. -1.
        -11    1    3    3    0    0  0.89186472637E-02  0.13625243794E-01 -0.63524535747E-01  0.65580616804E-01  0.51100000000E-03 0.  1.
         11    1    3    3    0    0 -0.50199068135E-02 -0.33381837243E-02 -0.24404793924E-01  0.25143548327E-01  0.51100000000E-03 0. -1.
</event>
<event>
 8    1  0.1106168E+005  0.1043930E+01  0.7957747E-01            NaN
         13   -1    0    0    0    0  0.00000000000E+00  0.00000000000E+00  0.74505805969E-08  0.10566000000E+00  0.10566000000E+00 0.  1.
     999900   -1    0    0    0    0 -0.00000000000E+00 -0.00000000000E+00 -0.74505805969E-08  0.93827000000E+00  0.93827000000E+00 0.  1.
     999902    2    1    2    0    0 -0.19863291100E-01 -0.98476195420E-02  0.16083658169E-01  0.10165400383E+01  0.10161709696E+01 0.  0.
     999903    2    3    3    0    0  0.12172375264E+00 -0.11873755605E-01 -0.11834015658E-01  0.12478312481E+00  0.21751466205E-01 0.  0.
         14    1    1    2    0    0  0.19863291100E-01  0.98476195420E-02 -0.16083658169E-01  0.27389961739E-01  0.00000000000E+00 0. -1.
     999901    1    3    3    0    0 -0.14158704374E+00  0.20261360634E-02  0.27917673828E-01  0.89175691345E+00  0.88000000000E+00 0. -1.
        -11    1    4    4    0    0  0.59758117455E-01 -0.51682591252E-02 -0.16697899487E-01  0.62264150781E-01  0.51100000000E-03 0.  1.
         11    1    4    4    0    0  0.61965635180E-01 -0.67054964802E-02  0.48638838290E-02  0.62518974026E-01  0.51100000000E-03 0. -1.
</event>
<event>
 8    1  0.1106168E+005  0.1043930E+01  0.7957747E-01            NaN
         13   -1    0    0    0    0  0.00000000000E+00  0.00000000000E+00  0.74505805969E-08  0.10566000000E+00  0.10566000000E+00 0. -1.
     999900   -1    0    0    0    0 -0.00000000000E+00 -0.00000000000E+00 -0.74505805969E-08  0.93827000000E+00  0.93827000000E+00 0. -1.
     999902    2    1    2    0    0  0.43467934534E-02 -0.19548165053E-01 -0.13744164906E-01  0.10196415781E+01  0.10193522553E+01 0.  0.
     999903    2    3    3    0    0 -0.45500719378E-01  0.17357899287E-01 -0.12005114109E+00  0.13107643961E+00  0.19928482440E-01 0.  0.
         14    1    1    2    0    0 -0.43467934534E-02  0.19548165053E-01  0.13744164906E-01  0.24288421917E-01  0.00000000000E+00 0.  1.
     999901    1    3    3    0    0  0.49847512832E-01 -0.36906064339E-01  0.10630697619E+00  0.88856513847E+00  0.88000000000E+00 0.  1.
        -11    1    4    4    0    0 -0.24022448137E-01  0.14063245809E-01 -0.44772997925E-01  0.52723195667E-01  0.51100000000E-03 0. -1.
         11    1    4    4    0    0 -0.21478271242E-01  0.32946534779E-02 -0.75278143167E-01  0.78353243945E-01  0.51100000000E-03 0.  1.
</event>
<event>
 8    1  0.1106168E+005  0.1043930E+01  0.7957747E-01            NaN
         13   -1    0    0    0    0  0.00000000000E+00  0.00000000000E+00  0.74505805969E-08  0.10566000000E+00  0.10566000000E+00 0.  1.
     999900   -1    0    0    0    0 -0.00000000000E+00 -0.00000000000E+00 -0.74505805969E-08  0.93827000000E+00  0.93827000000E+00 0.  1.
     999902    2    1    2    0    0 -0.17442583142E-01 -0.18103917308E-01 -0.67886843783E-02  0.10178899968E+01  0.10175568603E+01 0.  0.
     999903    2    3    3    0    0  0.11898175235E+00 -0.28486872480E-01  0.23099512518E-01  0.12681608892E+00  0.24095095670E-01 0.  0.
         14    1    1    2    0    0  0.17442583142E-01  0.18103917308E-01  0.67886843783E-02  0.26040003152E-01  0.00000000000E+00 0. -1.
     999901    1    3    3    0    0 -0.13642433549E+00  0.10382955172E-01 -0.29888196897E-01  0.89107390793E+00  0.88000000000E+00 0. -1.
        -11    1    4    4    0    0  0.78199013422E-01 -0.26746619969E-01  0.70390873948E-02  0.82947436683E-01  0.51100000000E-03 0.  1.
         11    1    4    4    0    0  0.40782738926E-01 -0.17402525115E-02  0.16060425124E-01  0.43868652239E-01  0.51100000000E-03 0. -1.
</event>
<event>
 8    1  0.1147588E+005  0.1043930E+01  0.7957747E-01            NaN
         13   -1    0    0    0    0  0.00000000000E+00  0.00000000000E+00  0.74505805969E-08  0.10566000000E+00  0.10566000000E+00 0. -1.
     999900   -1    0    0    0    0 -0.00000000000E+00 -0.00000000000E+00 -0.74505805969E-08  0.93827000000E+00  0.93827000000E+00 0. -1.
     999902    2    1    2    0    0  0.27326110906E-02 -0.11842776671E-01  0.20044728768E-01  0.10204883773E+01  0.10202191032E+01 0.  0.
     999903    2    3    3    0    0  0.46763841351E-01  0.11910471222E+00  0.11776102287E-02  0.12951028429E+00  0.19968416094E-01 0.  0.
         14    1    1    2    0    0 -0.27326110906E-02  0.11842776671E-01 -0.20044728768E-01  0.23441622684E-01  0.00000000000E+00 0.  1.
     999901    1    3    3    0    0 -0.44031230261E-01 -0.13094748889E+00  0.18867118540E-01  0.89097809302E+00  0.88000000000E+00 0.  1.
        -11    1    4    4    0    0  0.59430737497E-02  0.38702380151E-01  0.34307260754E-02  0.39309354578E-01  0.51100000000E-03 0. -1.
         11    1    4    4    0    0  0.40820767601E-01  0.80402332067E-01 -0.22531158468E-02  0.90200929715E-01  0.51100000000E-03 0.  1.
</event>
<event>
 8    1  0.1106168E+005  0.1043930E+01  0.7957747E-01            NaN
         13   -1    0    0    0    0  0.00000000000E+00  0.00000000000E+00  0.74505805969E-08  0.10566000000E+00  0.10566000000E+00 0.  1.
     999900   -1    0    0    0    0 -0.00000000000E+00 -0.00000000000E+00 -0.74505805969E-08  0.93827000000E+00  0.93827000000E+00 0.  1.
     999902    2    1    2    0    0 -0.14990792693E-01  0.59440659290E-03  0.18916104024E-01  0.10197867571E+01  0.10195009239E+01 0.  0.
     999903    2    3    3    0    0 -0.44206476961E-01  0.29430140794E-01  0.12010775099E+00  0.13303718415E+00  0.21276153886E-01 0.  0.
         14    1    1    2    0    0  0.14990792693E-01 -0.59440659290E-03 -0.18916104024E-01  0.24143242868E-01  0.00000000000E+00 0. -1.
     999901    1    3    3    0    0  0.29215684269E-01 -0.28835734201E-01 -0.10119164697E+00  0.88674957299E+00  0.88000000000E+00 0.  1.
        -11    1    4    4    0    0 -0.35792692194E-01  0.16034100181E-01  0.67164943646E-01  0.77779174327E-01  0.51100000000E-03 0. -1.
         11    1    4    4    0    0 -0.84137847673E-02  0.13396040613E-01  0.52942807348E-01  0.55258009819E-01  0.51100000000E-03 0.  1.
</event>
<event>
 8    1  0.1106168E+005  0.1043930E+01  0.7957747E-01            NaN
         13   -1    0    0    0    0  0.00000000000E+00  0.00000000000E+00  0.74505805969E-08  0.10566000000E+00  0.10566000000E+00 0.  1.
     999900   -1    0    0    0    0 -0.00000000000E+00 -0.00000000000E+00 -0.74505805969E-08  0.93827000000E+00  0.93827000000E+00 0.  1.
     999902    2    1    2    0    0 -0.18565319417E-02  0.70300733346E-02 -0.22568719197E-01  0.10202189113E+01  0.10199433373E+01 0.  0.
     999903    2    3    3    0    0 -0.25531124753E-01 -0.10210088094E+00 -0.76271356393E-01  0.13153785220E+00  0.20210357130E-01 0.  0.
         14    1    1    2    0    0  0.18565319417E-02 -0.70300733346E-02  0.22568719197E-01  0.23711088717E-01  0.00000000000E+00 0.  1.
     999901    1    3    3    0    0  0.23674592811E-01  0.10913095428E+00  0.53702637196E-01  0.88868105908E+00  0.88000000000E+00 0. -1.
        -11    1    4    4    0    0  0.15630973445E-02 -0.73994630713E-02 -0.11666932287E-02  0.76692647067E-02  0.51100000000E-03 0.  1.
         11    1    4    4    0    0 -0.27094222098E-01 -0.94701417873E-01 -0.75104663164E-01  0.12386858750E+00  0.51100000000E-03 0. -1.
</event>
<event>
 8    1  0.1106168E+005  0.1043930E+01  0.7957747E-01            NaN
         13   -1    0    0    0    0  0.00000000000E+00  0.00000000000E+00  0.74505805969E-08  0.10566000000E+00  0.10566000000E+00 0.  1.
     999900   -1    0    0    0    0 -0.00000000000E+00 -0.00000000000E+00 -0.74505805969E-08  0.93827000000E+00  0.93827000000E+00 0.  1.
     999902    2    1    2    0    0  0.20861277129E-01  0.11482997720E-01 -0.39064401742E-03  0.10201139398E+01  0.10198358914E+01 0.  0.
     999903    2    3    3    0    0  0.31783128851E-01  0.24935931400E-01  0.12323788376E+00  0.13130334067E+00  0.20518852861E-01 0.  0.
         14    1    1    2    0    0 -0.20861277129E-01 -0.11482997720E-01  0.39064401742E-03  0.23816060187E-01  0.00000000000E+00 0. -1.
     999901    1    3    3    0    0 -0.10921851722E-01 -0.13452933679E-01 -0.12362852778E+00  0.88881059914E+00  0.88000000000E+00 0.  1.
        -11    1    4    4    0    0  0.23701398852E-01  0.27967349731E-01  0.99626182208E-01  0.10615821335E+00  0.51100000000E-03 0.  1.
         11    1    4    4    0    0  0.80817299992E-02 -0.30314183310E-02  0.23611701552E-01  0.25145127323E-01  0.51100000000E-03 0. -1.
</event>
<event>
 8    1  0.1106168E+005  0.1043930E+01  0.7957747E-01            NaN
         13   -1    0    0    0    0  0.00000000000E+00  0.00000000000E+00  0.74505805969E-08  0.10566000000E+00  0.10566000000E+00 0.  1.
     999900   -1    0    0    0    0 -0.00000000000E+00 -0.00000000000E+00 -0.74505805969E-08  0.93827000000E+00  0.93827000000E+00 0. -1.
     999902    2    1    2    0    0  0.20243289397E-01  0.14031875984E-01  0.46516521174E-02  0.10188636445E+01  0.10185552533E+01 0.  0.
     999903    2    3    3    0    0 -0.97017729101E-01 -0.91313535660E-02 -0.78730920708E-01  0.12687747024E+00  0.20087638046E-01 0.  0.
         14    1    1    2    0    0 -0.20243289397E-01 -0.14031875984E-01 -0.46516521174E-02  0.25066355472E-01  0.00000000000E+00 0. -1.
     999901    1    3    3    0    0  0.11726101850E+00  0.23163229550E-01  0.83382572825E-01  0.89198617428E+00  0.88000000000E+00 0.  1.
        -11    1    4    4    0    0 -0.17409712094E-01 -0.99239362264E-03 -0.52094673578E-02  0.18206663381E-01  0.51100000000E-03 0. -1.
         11    1    4    4    0    0 -0.79608017007E-01 -0.81389599434E-02 -0.73521453350E-01  0.10867080686E+00  0.51100000000E-03 0.  1.
</event>
<event>
 8    1  0.1106168E+005  0.1043930E+01  0.7957747E-01            NaN
         13   -1    0    0    0    0  0.00000000000E+00  0.00000000000E+00  0.74505805969E-08  0.10566000000E+00  0.10566000000E+00 0.  1.
     999900   -1    0    0    0    0 -0.00000000000E+00 -0.00000000000E+00 -0.74505805969E-08  0.93827000000E+00  0.93827000000E+00 0.  1.
     999902    2    1    2    0    0 -0.17901004760E-01  0.14037070357E-01 -0.59275724514E-02  0.10204220985E+01  0.10201512818E+01 0.  0.
     999903    2    3    3    0    0 -0.64668481857E-01  0.11491238821E+00 -0.93714084368E-02  0.13341878025E+00  0.18052094526E-01 0.  0.
         14    1    1    2    0    0  0.17901004760E-01 -0.14037070357E-01  0.59275724514E-02  0.23507901455E-01  0.00000000000E+00 0. -1.
     999901    1    3    3    0    0  0.46767477097E-01 -0.10087531785E+00  0.34438359853E-02  0.88700331830E+00  0.88000000000E+00 0.  1.
        -11    1    4    4    0    0 -0.42856937502E-01  0.84446219424E-01 -0.13742288202E-01  0.95692176656E-01  0.51100000000E-03 0.  1.
         11    1    4    4    0    0 -0.21811544355E-01  0.30466168785E-01  0.43708797652E-02  0.37726603591E-01  0.51100000000E-03 0. -1.
</event>
<event>
 8    1  0.1106168E+005  0.1043930E+01  0.7957747E-01            NaN
         13   -1    0    0    0    0  0.00000000000E+00  0.00000000000E+00  0.74505805969E-08  0.10566000000E+00  0.10566000000E+00 0.  1.
     999900   -1    0    0    0    0 -0.00000000000E+00 -0.00000000000E+00 -0.74505805969E-08  0.93827000000E+00  0.93827000000E+00 0.  1.
     999902    2    1    2    0    0 -0.48475579815E-03 -0.23840833918E-01  0.24776399986E-02  0.10199558671E+01  0.10196740713E+01 0.  0.
     999903    2    3    3    0    0  0.12651843057E-01 -0.60945954940E-01 -0.11287438261E+00  0.13155536653E+00  0.26300373679E-01 0.  0.
         14    1    1    2    0    0  0.48475579815E-03  0.23840833918E-01 -0.24776399986E-02  0.23974132937E-01  0.00000000000E+00 0. -1.
     999901    1    3    3    0    0 -0.13136598856E-01  0.37105121022E-01  0.11535202261E+00  0.88840050054E+00  0.88000000000E+00 0. -1.
        -11    1    4    4    0    0 -0.33051368519E-02 -0.16132692174E-01 -0.50437665707E-01  0.53060408304E-01  0.51100000000E-03 0. -1.
         11    1    4    4    0    0  0.15956979909E-01 -0.44813262766E-01 -0.62436716904E-01  0.78494958222E-01  0.51100000000E-03 0.  1.
</event>
<event>
 8    1  0.1106168E+005  0.1043930E+01  0.7957747E-01            NaN
         13   -1    0    0    0    0  0.00000000000E+00  0.00000000000E+00  0.74505805969E-08  0.10566000000E+00  0.10566000000E+00 0.  1.
     999900   -1    0    0    0    0 -0.00000000000E+00 -0.00000000000E+00 -0.74505805969E-08  0.93827000000E+00  0.93827000000E+00 0. -1.
     999902    2    1    2    0    0 -0.10061225326E-01  0.21807766559E-01  0.14606176094E-02  0.10198688209E+01  0.10195849506E+01 0.  0.
     999903    2    3    3    0    0  0.12304981389E+00  0.35109928412E-01 -0.70154465737E-02  0.12971864256E+00  0.20093430928E-01 0.  0.
         14    1    1    2    0    0  0.10061225326E-01 -0.21807766559E-01 -0.14606176094E-02  0.24061179131E-01  0.00000000000E+00 0.  1.
     999901    1    3    3    0    0 -0.13311103922E+00 -0.13302161852E-01  0.84760641832E-02  0.89015017830E+00  0.88000000000E+00 0. -1.
        -11    1    4    4    0    0  0.93366456447E-01  0.32935698233E-01  0.53748891765E-03  0.99008107864E-01  0.51100000000E-03 0. -1.
         11    1    4    4    0    0  0.29683357445E-01  0.21742301787E-02 -0.75529354914E-02  0.30710534701E-01  0.51100000000E-03 0.  1.
</event>
<event>
 8    1  0.1106168E+005  0.1043930E+01  0.7957747E-01            NaN
         13   -1    0    0    0    0  0.00000000000E+00  0.00000000000E+00  0.74505805969E-08  0.10566000000E+00  0.10566000000E+00 0.  1.
     999900   -1    0    0    0    0 -0.00000000000E+00 -0.00000000000E+00 -0.74505805969E-08  0.93827000000E+00  0.93827000000E+00 0. -1.
     999902    2    1    2    0    0  0.75627076791E-02 -0.11203612656E-01 -0.18871170695E-01  0.10207171465E+01  0.10204531624E+01 0.  0.
     999903    2    3    3    0    0 -0.70519067774E-01 -0.47040678709E-01  0.95412513356E-01  0.12917812919E+00  0.19941839988E-01 0.  0.
         14    1    1    2    0    0 -0.75627076791E-02  0.11203612656E-01  0.18871170695E-01  0.23212853495E-01  0.00000000000E+00 0.  1.
     999901    1    3    3    0    0  0.78081775453E-01  0.35837066053E-01 -0.11428368405E+00  0.89153901732E+00  0.88000000000E+00 0. -1.
        -11    1    4    4    0    0 -0.50189791838E-01 -0.31055515948E-01  0.78733406344E-01  0.98400562351E-01  0.51100000000E-03 0. -1.
         11    1    4    4    0    0 -0.20329275935E-01 -0.15985162761E-01  0.16679107012E-01  0.30777566835E-01  0.51100000000E-03 0.  1.
</event>
<event>
 8    1  0.1106168E+005  0.1043930E+01  0.7957747E-01            NaN
         13   -1    0    0    0    0  0.00000000000E+00  0.00000000000E+00  0.74505805969E-08  0.10566000000E+00  0.10566000000E+00 0.  1.
     999900   -1    0    0    0    0 -0.00000000000E+00 -0.00000000000E+00 -0.74505805969E-08  0.93827000000E+00  0.93827000000E+00 0.  1.
     999902    2    1    2    0    0  0.86576091804E-02  0.17615453789E-01 -0.13569870537E-01  0.10200679004E+01  0.10197887633E+01 0.  0.
     999903    2    3    3    0    0 -0.12692359253E+00 -0.69171256644E-03 -0.16071170094E-01  0.12949299001E+00  0.20001878584E-01 0.  0.
         14    1    1    2    0    0 -0.86576091804E-02 -0.17615453789E-01  0.13569870537E-01  0.23862099558E-01  0.00000000000E+00 0.  1.
     999901    1    3    3    0    0  0.13558120171E+00  0.18307166355E-01  0.25012995571E-02  0.89057491043E+00  0.88000000000E+00 0.  1.
        -11    1    4    4    0    0 -0.90373032188E-01  0.72124737129E-02 -0.65329303070E-02  0.90896892264E-01  0.51100000000E-03 0.  1.
         11    1    4    4    0    0 -0.36550560339E-01 -0.79041862794E-02 -0.95382397867E-02  0.38596097744E-01  0.51100000000E-03 0. -1.
</event>
<event>
 8    1  0.1106168E+005  0.1043930E+01  0.7957747E-01            NaN
         13   -1    0    0    0    0  0.00000000000E+00  0.00000000000E+00  0.74505805969E-08  0.10566000000E+00  0.10566000000E+00 0.  1.
     999900   -1    0    0    0    0 -0.00000000000E+00 -0.00000000000E+00 -0.74505805969E-08  0.93827000000E+00  0.93827000000E+00 0. -1.
     999902    2    1    2    0    0  0.16333211632E-01 -0.32490149709E-02 -0.19369305657E-01  0.10183859224E+01  0.10180655121E+01 0.  0.
     999903    2    3    3    0    0 -0.59784581550E-01 -0.99550244097E-02  0.10863336447E+00  0.12584820744E+00  0.19059505178E-01 0.  0.
         14    1    1    2    0    0 -0.16333211632E-01  0.32490149709E-02  0.19369305657E-01  0.25544077633E-01  0.00000000000E+00 0.  1.
     999901    1    3    3    0    0  0.76117793182E-01  0.67060094388E-02 -0.12800267013E+00  0.89253771492E+00  0.88000000000E+00 0. -1.
        -11    1    4    4    0    0 -0.21487343257E-01 -0.10147843253E-01  0.29103598093E-01  0.37576125211E-01  0.51100000000E-03 0. -1.
         11    1    4    4    0    0 -0.38297238293E-01  0.19281884302E-03  0.79529766381E-01  0.88272082232E-01  0.51100000000E-03 0.  1.
</event>
<event>
 8    1  0.1106168E+005  0.1043930E+01  0.7957747E-01            NaN
         13   -1    0    0    0    0  0.00000000000E+00  0.00000000000E+00  0.74505805969E-08  0.10566000000E+00  0.10566000000E+00 0. -1.
     999900   -1    0    0    0    0 -0.00000000000E+00 -0.00000000000E+00 -0.74505805969E-08  0.93827000000E+00  0.93827000000E+00 0.  1.
     999902    2    1    2    0    0 -0.84659376948E-03  0.25074708051E-01  0.10908219281E-02  0.10188173021E+01  0.10185077552E+01 0.  0.
     999903    2    3    3    0    0  0.51486749146E-01 -0.41344080002E-01  0.10879442838E+00  0.12822744078E+00  0.15678987016E-01 0.  0.
         14    1    1    2    0    0  0.84659376948E-03 -0.25074708051E-01 -0.10908219281E-02  0.25112697930E-01  0.00000000000E+00 0.  1.
     999901    1    3    3    0    0 -0.52333342915E-01  0.66418788053E-01 -0.10770360645E+00  0.89058986129E+00  0.88000000000E+00 0.  1.
        -11    1    4    4    0    0  0.26417599953E-01 -0.18847508468E-01  0.39074593111E-01  0.50795699725E-01  0.51100000000E-03 0.  1.
         11    1    4    4    0    0  0.25069149192E-01 -0.22496571534E-01  0.69719835269E-01  0.77431741056E-01  0.51100000000E-03 0. -1.
</event>
<event>
 8    1  0.1106168E+005  0.1043930E+01  0.7957747E-01            NaN
         13   -1    0    0    0    0  0.00000000000E+00  0.00000000000E+00  0.74505805969E-08  0.10566000000E+00  0.10566000000E+00 0. -1.
     999900   -1    0    0    0    0 -0.00000000000E+00 -0.00000000000E+00 -0.74505805969E-08  0.93827000000E+00  0.93827000000E+00 0.  1.
     999902    2    1    2    0    0  0.21512291818E-01 -0.85642368898E-02 -0.59652677359E-02  0.10200195573E+01  0.10197392745E+01 0.  0.
     999903    2    3    3    0    0  0.11981104460E+00  0.17201146767E-01  0.50247463168E-01  0.13238992115E+00  0.18754141118E-01 0.  0.
         14    1    1    2    0    0 -0.21512291818E-01  0.85642368898E-02  0.59652677359E-02  0.23910442738E-01  0.00000000000E+00 0. -1.
     999901    1    3    3    0    0 -0.98298752778E-01 -0.25765383657E-01 -0.56212730904E-01  0.88762963611E+00  0.88000000000E+00 0. -1.
        -11    1    4    4    0    0  0.89753501861E-01  0.12758200393E-01  0.28535763698E-01  0.95042168033E-01  0.51100000000E-03 0. -1.
         11    1    4    4    0    0  0.30057542735E-01  0.44429463734E-02  0.21711699471E-01  0.37347753114E-01  0.51100000000E-03 0.  1.
</event>
<event>
 8    1  0.1106168E+005  0.1043930E+01  0.7957747E-01            NaN
         13   -1    0    0    0    0  0.00000000000E+00  0.00000000000E+00  0.74505805969E-08  0.10566000000E+00  0.10566000000E+00 0.  1.
     999900   -1    0    0    0    0 -0.00000000000E+00 -0.00000000000E+00 -0.74505805969E-08  0.93827000000E+00  0.93827000000E+00 0.  1.
     999902    2    1    2    0    0 -0.46387360856E-02 -0.34806007121E-02 -0.23354686001E-01  0.10198660475E+01  0.10195821109E+01 0.  0.
     999903    2    3    3    0    0 -0.10293253877E+00 -0.77008949194E-01 -0.17847604213E-01  0.13132881266E+00  0.20080693807E-01 0.  0.
         14    1    1    2    0    0  0.46387360856E-02  0.34806007121E-02  0.23354686001E-01  0.24063952543E-01  0.00000000000E+00 0.  1.
     999901    1    3    3    0    0  0.98293802686E-01  0.73528348482E-01 -0.55070817879E-02  0.88853723480E+00  0.88000000000E+00 0.  1.
        -11    1    4    4    0    0 -0.97035026497E-01 -0.74555058312E-01 -0.12545838907E-01  0.12301183798E+00  0.51100000000E-03 0. -1.
         11    1    4    4    0    0 -0.58975122740E-02 -0.24538908819E-02 -0.53017653061E-02  0.83169746809E-02  0.51100000000E-03 0.  1.
</event>
<event>
 8    1  0.1106168E+005  0.1043930E+01  0.7957747E-01            NaN
         13   -1    0    0    0    0  0.00000000000E+00  0.00000000000E+00  0.74505805969E-08  0.10566000000E+00  0.10566000000E+00 0. -1.
     999900   -1    0    0    0    0 -0.00000000000E+00 -0.00000000000E+00 -0.74505805969E-08  0.93827000000E+00  0.93827000000E+00 0.  1.
     999902    2    1    2    0    0  0.23352203514E-01 -0.16476755446E-01 -0.21480588408E-02  0.10152695214E+01  0.10148649063E+01 0.  0.
     999903    2    3    3    0    0 -0.74438791891E-01 -0.74574898511E-02  0.97425273586E-01  0.12422559738E+00  0.18535566300E-01 0.  0.
         14    1    1    2    0    0 -0.23352203514E-01  0.16476755446E-01  0.21480588408E-02  0.28660478638E-01  0.00000000000E+00 0.  1.
     999901    1    3    3    0    0  0.97790995405E-01 -0.90192655953E-02 -0.99573332427E-01  0.89104392398E+00  0.88000000000E+00 0.  1.
        -11    1    4    4    0    0 -0.64183091194E-01  0.15253055900E-03  0.83596271355E-01  0.10539492476E+00  0.51100000000E-03 0. -1.
         11    1    4    4    0    0 -0.10255700697E-01 -0.76100204101E-02  0.13829002231E-01  0.18830672615E-01  0.51100000000E-03 0.  1.
</event>
<event>
 8    1  0.1106168E+005  0.1043930E+01  0.7957747E-01            NaN
         13   -1    0    0    0    0  0.00000000000E+00  0.00000000000E+00  0.74505805969E-08  0.10566000000E+00  0.10566000000E+00 0.  1.
     999900   -1    0    0    0    0 -0.00000000000E+00 -0.00000000000E+00 -0.74505805969E-08  0.93827000000E+00  0.93827000000E+00 0.  1.
     999902    2    1    2    0    0  0.77027789911E-02 -0.11683809770E-01 -0.19961517629E-01  0.10195515997E+01  0.10192601032E+01 0.  0.
     999903    2    3    3    0    0 -0.94518533272E-01  0.84239283695E-01 -0.11177218537E-01  0.12841322636E+00  0.18303454320E-01 0.  0.
         14    1    1    2    0    0 -0.77027789911E-02  0.11683809770E-01  0.19961517629E-01  0.24378400296E-01  0.00000000000E+00 0. -1.
     999901    1    3    3    0    0  0.10222131226E+00 -0.95923093464E-01 -0.87842990924E-02  0.89113837335E+00  0.88000000000E+00 0. -1.
        -11    1    4    4    0    0 -0.49470755261E-01  0.44171910506E-01 -0.15011271962E-01  0.68000828750E-01  0.51100000000E-03 0. -1.
         11    1    4    4    0    0 -0.45047778011E-01  0.40067373189E-01  0.38340534246E-02  0.60412397607E-01  0.51100000000E-03 0.  1.
</event>
<event>
 8    1  0.1106168E+005  0.1043930E+01  0.7957747E-01            NaN
         13   -1    0    0    0    0  0.00000000000E+00  0.00000000000E+00  0.74505805969E-08  0.10566000000E+00  0.10566000000E+00 0. -1.
     999900   -1    0    0    0    0 -0.00000000000E+00 -0.00000000000E+00 -0.74505805969E-08  0.93827000000E+00  0.93827000000E+00 0. -1.
     999902    2    1    2    0    0 -0.55860943805E-02 -0.18691978561E-01 -0.13368791035E-01  0.10202800722E+01  0.10200059346E+01 0.  0.
     999903    2    3    3    0    0  0.43315376597E-01 -0.61370421712E-01 -0.10776422085E+00  0.13285497643E+00  0.19868743189E-01 0.  0.
         14    1    1    2    0    0  0.55860943805E-02  0.18691978561E-01  0.13368791035E-01  0.23649927837E-01  0.00000000000E+00 0. -1.
     999901    1    3    3    0    0 -0.48901470978E-01  0.42678443151E-01  0.94395429811E-01  0.88742509574E+00  0.88000000000E+00 0.  1.
        -11    1    4    4    0    0  0.25636846697E-01 -0.48489733001E-01 -0.85930758599E-01  0.10194537022E+00  0.51100000000E-03 0. -1.
         11    1    4    4    0    0  0.17678529900E-01 -0.12880688711E-01 -0.21833462247E-01  0.30909606206E-01  0.51100000000E-03 0.  1.
</event>
<event>
 8    1  0.1106168E+005  0.1043930E+01  0.7957747E-01            NaN
         13   -1    0    0    0    0  0.00000000000E+00  0.00000000000E+00  0.74505805969E-08  0.10566000000E+00  0.10566000000E+00 0. -1.
     999900   -1    0    0    0    0 -0.00000000000E+00 -0.00000000000E+00 -0.74505805969E-08  0.93827000000E+00  0.93827000000E+00 0.  1.
     999902    2    1    2    0    0 -0.25613299157E-02 -0.12460188084E-01  0.19312824513E-01  0.10208042159E+01  0.10205422311E+01 0.  0.
     999903    2    3    3    0    0 -0.99710457645E-01  0.24442173850E-01  0.81313756484E-01  0.13252281182E+00  0.20267546275E-01 0.  0.
         14    1    1    2    0    0  0.25613299157E-02  0.12460188084E-01 -0.19312824513E-01  0.23125784067E-01  0.00000000000E+00 0.  1.
     999901    1    3    3    0    0  0.97149127729E-01 -0.36902361933E-01 -0.62000931970E-01  0.88828140412E+00  0.88000000000E+00 0.  1.
        -11    1    4    4    0    0 -0.69106888766E-01  0.20408559423E-01  0.67371427147E-01  0.98648069872E-01  0.51100000000E-03 0. -1.
         11    1    4    4    0    0 -0.30603568879E-01  0.40336144264E-02  0.13942329336E-01  0.33874741944E-01  0.51100000000E-03 0.  1.
</event>
<event>
 8    1  0.1106168E+005  0.1043930E+01  0.7957747E-01            NaN
         13   -1    0    0    0    0  0.00000000000E+00  0.00000000000E+00  0.74505805969E-08  0.10566000000E+00  0.10566000000E+00 0. -1.
     999900   -1    0    0    0    0 -0.00000000000E+00 -0.00000000000E+00 -0.74505805969E-08  0.93827000000E+00  0.93827000000E+00 0.  1.
     999902    2    1    2    0    0 -0.76338265652E-02  0.14442666035E-01 -0.16496130845E-01  0.10207138797E+01  0.10204498204E+01 0.  0.
     999903    2    3    3    0    0 -0.71083385736E-01 -0.14465551007E-01  0.10551187601E+00  0.12956434940E+00  0.19800625324E-01 0.  0.
         14    1    1    2    0    0  0.76338265652E-02 -0.14442666035E-01  0.16496130845E-01  0.23216120328E-01  0.00000000000E+00 0. -1.
     999901    1    3    3    0    0  0.63449559171E-01  0.28908217042E-01 -0.12200800685E+00  0.89114953027E+00  0.88000000000E+00 0. -1.
        -11    1    4    4    0    0 -0.23967383171E-01  0.40962673506E-02  0.39095939514E-01  0.46043115335E-01  0.51100000000E-03 0. -1.
         11    1    4    4    0    0 -0.47116002565E-01 -0.18561818358E-01  0.66415936491E-01  0.83521234063E-01  0.51100000000E-03 0.  1.
</event>
<event>
 8    1  0.1106168E+005  0.1043930E+01  0.7957747E-01            NaN
         13   -1    0    0    0    0  0.00000000000E+00  0.00000000000E+00  0.74505805969E-08  0.10566000000E+00  0.10566000000E+00 0.  1.
     999900   -1    0    0    0    0 -0.00000000000E+00 -0.00000000000E+00 -0.74505805969E-08  0.93827000000E+00  0.93827000000E+00 0. -1.
     999902    2    1    2    0    0 -0.16685424827E-01  0.10974903782E-01  0.12907483308E-01  0.10201507014E+01  0.10198735209E+01 0.  0.
     999903    2    3    3    0    0  0.59360539394E-01 -0.35704430360E-01  0.10854054473E+00  0.13048355506E+00  0.21128850073E-01 0.  0.
         14    1    1    2    0    0  0.16685424827E-01 -0.10974903782E-01 -0.12907483308E-01  0.23779298560E-01  0.00000000000E+00 0.  1.
     999901    1    3    3    0    0 -0.76045964220E-01  0.46679334142E-01 -0.95633061426E-01  0.88966714638E+00  0.88000000000E+00 0.  1.
        -11    1    4    4    0    0  0.20980283460E-01 -0.15744630910E-02  0.32688277981E-01  0.38877189539E-01  0.51100000000E-03 0. -1.
         11    1    4    4    0    0  0.38380255934E-01 -0.34129967269E-01  0.75852266753E-01  0.91606365521E-01  0.51100000000E-03 0.  1.
</event>
<event>
 8    1  0.1106168E+005  0.1043930E+01  0.7957747E-01            NaN
         13   -1    0    0    0    0  0.00000000000E+00  0.00000000000E+00  0.74505805969E-08  0.10566000000E+00  0.10566000000E+00 0.  1.
     999900   -1    0    0    0    0 -0.00000000000E+00 -0.00000000000E+00 -0.74505805969E-08  0.93827000000E+00  0.93827000000E+00 0.  1.
     999902    2    1    2    0    0  0.16397532990E-01  0.16056753209E-01 -0.60252681492E-02  0.10202023312E+01  0.10199263671E+01 0.  0.
     999903    2    3    3    0    0 -0.48202094080E-02 -0.11472226337E+00 -0.54696617115E-01  0.12895475391E+00  0.21287942607E-01 0.  0.
         14    1    1    2    0    0 -0.16397532990E-01 -0.16056753209E-01  0.60252681492E-02  0.23727668829E-01  0.00000000000E+00 0. -1.
     999901    1    3    3    0    0  0.21217742398E-01  0.13077901658E+00  0.48671348965E-01  0.89124757726E+00  0.88000000000E+00 0. -1.
        -11    1    4    4    0    0 -0.26899977822E-02 -0.10598099919E+00 -0.43529087048E-01  0.11460475914E+00  0.51100000000E-03 0. -1.
         11    1    4    4    0    0 -0.21302116258E-02 -0.87412641760E-02 -0.11167530066E-01  0.14349994765E-01  0.51100000000E-03 0.  1.
</event>
<event>
 8    1  0.1106168E+005  0.1043930E+01  0.7957747E-01            NaN
         13   -1    0    0    0    0  0.00000000000E+00  0.00000000000E+00  0.74505805969E-08  0.10566000000E+00  0.10566000000E+00 0. -1.
     999900   -1    0    0    0    0 -0.00000000000E+00 -0.00000000000E+00 -0.74505805969E-08  0.93827000000E+00  0.93827000000E+00 0. -1.
     999902    2    1    2    0    0 -0.78636086124E-02 -0.16882838187E-01  0.15068336142E-01  0.10199733450E+01  0.10196919648E+01 0.  0.
     999903    2    3    3    0    0 -0.25834401930E-01  0.12397086559E+00 -0.11484498018E-02  0.12844336824E+00  0.21451994550E-01 0.  0.
         14    1    1    2    0    0  0.78636086124E-02  0.16882838187E-01 -0.15068336142E-01  0.23956655020E-01  0.00000000000E+00 0.  1.
     999901    1    3    3    0    0  0.17970793318E-01 -0.14085370378E+00  0.16216785943E-01  0.89152997674E+00  0.88000000000E+00 0. -1.
        -11    1    4    4    0    0 -0.21416957828E-01  0.64707035309E-01 -0.79576144563E-02  0.68624130231E-01  0.51100000000E-03 0. -1.
         11    1    4    4    0    0 -0.44174441025E-02  0.59263830279E-01  0.68091646545E-02  0.59819238010E-01  0.51100000000E-03 0.  1.
</event>
<event>
 7    1  0.1106168E+005  0.1043930E+01  0.7957747E-01            NaN
         13   -1    0    0    0    0  0.00000000000E+00  0.00000000000E+00  0.74505805969E-08  0.10566000000E+00  0.10566000000E+00 0.  1.
     999900   -1    0    0    0    0 -0.00000000000E+00 -0.00000000000E+00 -0.74505805969E-08  0.93827000000E+00  0.93827000000E+00 0.  1.
     999902    2    1    2    0    0 -0.10573330496E-02 -0.78401976105E-02  0.22602514207E-01  0.10199829689E+01  0.10197018174E+01 0.  0.
         14    1    1    2    0    0  0.10573330496E-02  0.78401976105E-02 -0.22602514207E-01  0.23947031136E-01  0.00000000000E+00 0. -1.
     999901    1    3    3    0    0 -0.98348214233E-01  0.34210351512E-01  0.51565076934E-01  0.88763825771E+00  0.88000000000E+00 0. -1.
        -11    1    3    3    0    0  0.28395635199E-01  0.16985519988E-01  0.85282336399E-02  0.34173262613E-01  0.51100000000E-03 0.  1.
         11    1    3    3    0    0  0.68895245984E-01 -0.59036069110E-01 -0.37490796367E-01  0.98171448540E-01  0.51100000000E-03 0. -1.
</event>
<event>
 8    1  0.1106168E+005  0.1043930E+01  0.7957747E-01            NaN
         13   -1    0    0    0    0  0.00000000000E+00  0.00000000000E+00  0.74505805969E-08  0.10566000000E+00  0.10566000000E+00 0. -1.
     999900   -1    0    0    0    0 -0.00000000000E+00 -0.00000000000E+00 -0.74505805969E-08  0.93827000000E+00  0.93827000000E+00 0. -1.
     999902    2    1    2    0    0 -0.81934955818E-02  0.19367779785E-01 -0.11230026632E-01  0.10200897449E+01  0.10198111246E+01 0.  0.
     999903    2    3    3    0    0  0.45583829728E-01 -0.90259974924E-01 -0.77757258970E-01  0.12917105169E+00  0.20352411812E-01 0.  0.
         14    1    1    2    0    0  0.81934955818E-02 -0.19367779785E-01  0.11230026632E-01  0.23840255070E-01  0.00000000000E+00 0. -1.
     999901    1    3    3    0    0 -0.53777325310E-01  0.10962775471E+00  0.66527232338E-01  0.89091869324E+00  0.88000000000E+00 0. -1.
        -11    1    4    4    0    0  0.35885759872E-01 -0.78670701621E-01 -0.57300092641E-01  0.10373248668E+00  0.51100000000E-03 0.  1.
         11    1    4    4    0    0  0.96980698556E-02 -0.11589273302E-01 -0.20457166329E-01  0.25438565011E-01  0.51100000000E-03 0. -1.
</event>
<event>
 8    1  0.1106168E+005  0.1043930E+01  0.7957747E-01            NaN
         13   -1    0    0    0    0  0.00000000000E+00  0.00000000000E+00  0.74505805969E-08  0.10566000000E+00  0.10566000000E+00 0.  1.
     999900   -1    0    0    0    0 -0.00000000000E+00 -0.00000000000E+00 -0.74505805969E-08  0.93827000000E+00  0.93827000000E+00 0. -1.
     999902    2    1    2    0    0 -0.78234209571E-02 -0.30143351084E-02  0.22859815615E-01  0.10195812156E+01  0.10192904355E+01 0.  0.
     999903    2    3    3    0    0 -0.10918377773E+00 -0.50552459357E-01  0.50546154650E-01  0.13205638297E+00  0.20182320628E-01 0.  0.
         14    1    1    2    0    0  0.78234209571E-02  0.30143351084E-02 -0.22859815615E-01  0.24348784396E-01  0.00000000000E+00 0. -1.
     999901    1    3    3    0    0  0.10136035677E+00  0.47538124248E-01 -0.27686339035E-01  0.88752483264E+00  0.88000000000E+00 0. -1.
        -11    1    4    4    0    0 -0.35647331796E-01 -0.13107412533E-01  0.25746915892E-01  0.45887921356E-01  0.51100000000E-03 0.  1.
         11    1    4    4    0    0 -0.73536445933E-01 -0.37445046824E-01  0.24799238758E-01  0.86168461609E-01  0.51100000000E-03 0. -1.
</event>
<event>
 8    1  0.1106168E+005  0.1043930E+01  0.7957747E-01            NaN
         13   -1    0    0    0    0  0.00000000000E+00  0.00000000000E+00  0.74505805969E-08  0.10566000000E+00  0.10566000000E+00 0. -1.
     999900   -1    0    0    0    0 -0.00000000000E+00 -0.00000000000E+00 -0.74505805969E-08  0.93827000000E+00  0.93827000000E+00 0. -1.
     999902    2    1    2    0    0 -0.15954213660E-01  0.62831879949E-02  0.14697864715E-01  0.10213458770E+01  0.10210961550E+01 0.  0.
     999903    2    3    3    0    0 -0.35899978371E-01 -0.66376565592E-01  0.10761394074E+00  0.13325203594E+00  0.21924596577E-01 0.  0.
         14    1    1    2    0    0  0.15954213660E-01 -0.62831879949E-02 -0.14697864715E-01  0.22584123008E-01  0.00000000000E+00 0.  1.
     999901    1    3    3    0    0  0.19945764711E-01  0.72659753586E-01 -0.92916076025E-01  0.88809384105E+00  0.88000000000E+00 0. -1.
        -11    1    4    4    0    0 -0.27296834454E-01 -0.27834913606E-01  0.56833183308E-01  0.68921487451E-01  0.51100000000E-03 0. -1.
         11    1    4    4    0    0 -0.86031439173E-02 -0.38541651986E-01  0.50780757433E-01  0.64330548493E-01  0.51100000000E-03 0.  1.
</event>
<event>
 8    1  0.1106168E+005  0.1043930E+01  0.7957747E-01            NaN
         13   -1    0    0    0    0  0.00000000000E+00  0.00000000000E+00  0.74505805969E-08  0.10566000000E+00  0.10566000000E+00 0.  1.
     999900   -1    0    0    0    0 -0.00000000000E+00 -0.00000000000E+00 -0.74505805969E-08  0.93827000000E+00  0.93827000000E+00 0.  1.
     999902    2    1    2    0    0 -0.21581896661E-01  0.50574755006E-02  0.72270717359E-02  0.10206150501E+01  0.10203487118E+01 0.  0.
     999903    2    3    3    0    0  0.44129149664E-01 -0.63426709161E-01 -0.10102356778E+00  0.12891654384E+00  0.21056703029E-01 0.  0.
         14    1    1    2    0    0  0.21581896661E-01 -0.50574755006E-02 -0.72270717359E-02  0.23314949878E-01  0.00000000000E+00 0. -1.
     999901    1    3    3    0    0 -0.65711046325E-01  0.68484184661E-01  0.10825063952E+00  0.89169850629E+00  0.88000000000E+00 0. -1.
        -11    1    4    4    0    0  0.36476838229E-01 -0.55993419961E-01 -0.96351001150E-01  0.11725868560E+00  0.51100000000E-03 0. -1.
         11    1    4    4    0    0  0.76523114351E-02 -0.74332891993E-02 -0.46725666306E-02  0.11657858231E-01  0.51100000000E-03 0.  1.
</event>
<event>
 8    1  0.1106168E+005  0.1043930E+01  0.7957747E-01            NaN
         13   -1    0    0    0    0  0.00000000000E+00  0.00000000000E+00  0.74505805969E-08  0.10566000000E+00  0.10566000000E+00 0. -1.
     999900   -1    0    0    0    0 -0.00000000000E+00 -0.00000000000E+00 -0.74505805969E-08  0.93827000000E+00  0.93827000000E+00 0. -1.
     999902    2    1    2    0    0 -0.41422132146E-02 -0.20556426149E-01  0.87302117438E-02  0.10212156613E+01  0.10209630188E+01 0.  0.
     999903    2    3    3    0    0  0.26823028014E-01 -0.36295441034E-01 -0.12128933121E+00  0.13098443047E+00  0.20223384688E-01 0.  0.
         14    1    1    2    0    0  0.41422132146E-02  0.20556426149E-01 -0.87302117438E-02  0.22714338719E-01  0.00000000000E+00 0. -1.
     999901    1    3    3    0    0 -0.30965241229E-01  0.15739014884E-01  0.13001954296E+00  0.89023123081E+00  0.88000000000E+00 0.  1.
        -11    1    4    4    0    0  0.16296209298E-01 -0.70300021100E-02 -0.54220724100E-01  0.57053794003E-01  0.51100000000E-03 0. -1.
         11    1    4    4    0    0  0.10526818716E-01 -0.29265438924E-01 -0.67068607115E-01  0.73930636471E-01  0.51100000000E-03 0.  1.
</event>
<event>
 8    1  0.1106168E+005  0.1043930E+01  0.7957747E-01            NaN
         13   -1    0    0    0    0  0.00000000000E+00  0.00000000000E+00  0.74505805969E-08  0.10566000000E+00  0.10566000000E+00 0.  1.
     999900   -1    0    0    0    0 -0.00000000000E+00 -0.00000000000E+00 -0.74505805969E-08  0.93827000000E+00  0.93827000000E+00 0. -1.
     999902    2    1    2    0    0 -0.48111123718E-02 -0.23021009896E-01  0.23981508784E-02  0.10202896780E+01  0.10200157656E+01 0.  0.
     999903    2    3    3    0    0 -0.83574612126E-01 -0.70338372498E-01 -0.72134630619E-01  0.13237202568E+00  0.19665853925E-01 0.  0.
         14    1    1    2    0    0  0.48111123718E-02  0.23021009896E-01 -0.23981508784E-02  0.23640322048E-01  0.00000000000E+00 0. -1.
     999901    1    3    3    0    0  0.78763499754E-01  0.47317362602E-01  0.74532781498E-01  0.88791765227E+00  0.88000000000E+00 0. -1.
        -11    1    4    4    0    0 -0.51832867335E-01 -0.31030432588E-01 -0.41274202352E-01  0.73166623426E-01  0.51100000000E-03 0.  1.
         11    1    4    4    0    0 -0.31741744792E-01 -0.39307939910E-01 -0.30860428267E-01  0.59205402255E-01  0.51100000000E-03 0. -1.
</event>
<event>
 8    1  0.1106168E+005  0.1043930E+01  0.7957747E-01            NaN
         13   -1    0    0    0    0  0.00000000000E+00  0.00000000000E+00  0.74505805969E-08  0.10566000000E+00  0.10566000000E+00 0.  1.
     999900   -1    0    0    0    0 -0.00000000000E+00 -0.00000000000E+00 -0.74505805969E-08  0.93827000000E+00  0.93827000000E+00 0.  1.
     999902    2    1    2    0    0 -0.10729765533E-01 -0.58399543068E-02 -0.19906699586E-01  0.10205738526E+01  0.10203065612E+01 0.  0.
     999903    2    3    3    0    0  0.36992039645E-01 -0.12029538047E+00  0.28353667131E-01  0.13057021310E+00  0.20131084119E-01 0.  0.
         14    1    1    2    0    0  0.10729765533E-01  0.58399543068E-02  0.19906699586E-01  0.23356147437E-01  0.00000000000E+00 0.  1.
     999901    1    3    3    0    0 -0.47721805179E-01  0.11445542617E+00 -0.48260366717E-01  0.89000363947E+00  0.88000000000E+00 0.  1.
        -11    1    4    4    0    0  0.28994139847E-01 -0.60395775495E-01  0.16181158692E-01  0.68923151849E-01  0.51100000000E-03 0. -1.
         11    1    4    4    0    0  0.79978997981E-02 -0.59899604978E-01  0.12172508439E-01  0.61647061247E-01  0.51100000000E-03 0.  1.
</event>
<event>
 8    1  0.1106168E+005  0.1043930E+01  0.7957747E-01            NaN
         13   -1    0    0    0    0  0.00000000000E+00  0.00000000000E+00  0.74505805969E-08  0.10566000000E+00  0.10566000000E+00 0. -1.
     999900   -1    0    0    0    0 -0.00000000000E+00 -0.00000000000E+00 -0.74505805969E-08  0.93827000000E+00  0.93827000000E+00 0.  1.
     999902    2    1    2    0    0  0.13185727885E-01 -0.14862128124E-01 -0.78910427020E-02  0.10225520949E+01  0.10223286027E+01 0.  0.
     999903    2    3    3    0    0  0.10135991642E-01 -0.13255572447E+00  0.68986829787E-02  0.13458823329E+00  0.19815203697E-01 0.  0.
         14    1    1    2    0    0 -0.13185727885E-01  0.14862128124E-01  0.78910427020E-02  0.21377905116E-01  0.00000000000E+00 0. -1.
     999901    1    3    3    0    0  0.30497362425E-02  0.11769359634E+00 -0.14789725681E-01  0.88796386159E+00  0.88000000000E+00 0.  1.
        -11    1    4    4    0    0  0.25430238595E-02 -0.11132349533E-01 -0.47333288102E-02  0.12371810663E-01  0.51100000000E-03 0.  1.
         11    1    4    4    0    0  0.75929677827E-02 -0.12142337493E+00  0.11632011789E-01  0.12221642263E+00  0.51100000000E-03 0. -1.
</event>
<event>
 8    1  0.1106168E+005  0.1043930E+01  0.7957747E-01            NaN
         13   -1    0    0    0    0  0.00000000000E+00  0.00000000000E+00  0.74505805969E-08  0.10566000000E+00  0.10566000000E+00 0. -1.
     999900   -1    0    0    0    0 -0.00000000000E+00 -0.00000000000E+00 -0.74505805969E-08  0.93827000000E+00  0.93827000000E+00 0.  1.
     999902    2    1    2    0    0 -0.10306693770E-01  0.64725313348E-02 -0.20357736392E-01  0.10202116731E+01  0.10199359289E+01 0.  0.
     999903    2    3    3    0    0 -0.74330204784E-01 -0.11249705610E-01 -0.10832116629E+00  0.13333476361E+00  0.19827982758E-01 0.  0.
         14    1    1    2    0    0  0.10306693770E-01 -0.64725313348E-02  0.20357736392E-01  0.23718326867E-01  0.00000000000E+00 0. -1.
     999901    1    3    3    0    0  0.64023511014E-01  0.17722236945E-01  0.87963429901E-01  0.88687690952E+00  0.88000000000E+00 0. -1.
        -11    1    4    4    0    0 -0.53684755330E-01 -0.16266299988E-01 -0.84332096790E-01  0.10128577955E+00  0.51100000000E-03 0.  1.
         11    1    4    4    0    0 -0.20645449454E-01  0.50165943776E-02 -0.23989069504E-01  0.32048984055E-01  0.51100000000E-03 0. -1.
</event>
<event>
 8    1  0.1106168E+005  0.1043930E+01  0.7957747E-01            NaN
         13   -1    0    0    0    0  0.00000000000E+00  0.00000000000E+00  0.74505805969E-08  0.10566000000E+00  0.10566000000E+00 0.  1.
     999900   -1    0    0    0    0 -0.00000000000E+00 -0.00000000000E+00 -0.74505805969E-08  0.93827000000E+00  0.93827000000E+00 0. -1.
     999902    2    1    2    0    0 -0.19319281631E-01  0.11427049137E-01 -0.70474735708E-02  0.10204038661E+01  0.10201326242E+01 0.  0.
     999903    2    3    3    0    0 -0.15827121168E-01  0.66130080068E-01  0.10996670895E+00  0.13096756384E+00  0.20883975847E-01 0.  0.
         14    1    1    2    0    0  0.19319281631E-01 -0.11427049137E-01  0.70474735708E-02  0.23526133946E-01  0.00000000000E+00 0. -1.
     999901    1    3    3    0    0 -0.34921604625E-02 -0.54703030931E-01 -0.11701418252E+00  0.88943630221E+00  0.88000000000E+00 0. -1.
        -11    1    4    4    0    0 -0.16293703995E-01  0.33490288942E-01  0.46337361485E-01  0.59451631043E-01  0.51100000000E-03 0. -1.
         11    1    4    4    0    0  0.46658282665E-03  0.32639791126E-01  0.63629347467E-01  0.71515932801E-01  0.51100000000E-03 0.  1.
</event>
<event>
 8    1  0.1106168E+005  0.1043930E+01  0.7957747E-01            NaN
         13   -1    0    0    0    0  0.00000000000E+00  0.00000000000E+00  0.74505805969E-08  0.10566000000E+00  0.10566000000E+00 0. -1.
     999900   -1    0    0    0    0 -0.00000000000E+00 -0.00000000000E+00 -0.74505805969E-08  0.93827000000E+00  0.93827000000E+00 0. -1.
     999902    2    1    2    0    0  0.68119111860E-02  0.20249048330E-01  0.99994269100E-02  0.10203415573E+01  0.10200688599E+01 0.  0.
     999903    2    3    3    0    0  0.10644917832E+00  0.61970590416E-01 -0.43649559909E-01  0.13211496125E+00  0.19424141310E-01 0.  0.
         14    1    1    2    0    0 -0.68119111860E-02 -0.20249048330E-01 -0.99994269100E-02  0.23588442738E-01  0.00000000000E+00 0.  1.
     999901    1    3    3    0    0 -0.99637267129E-01 -0.41721542086E-01  0.53648986819E-01  0.88822659601E+00  0.88000000000E+00 0. -1.
        -11    1    4    4    0    0  0.85669221042E-01  0.57666236430E-01 -0.38962781032E-01  0.11037649063E+00  0.51100000000E-03 0.  1.
         11    1    4    4    0    0  0.20779957273E-01  0.43043539859E-02 -0.46867788761E-02  0.21738470617E-01  0.51100000000E-03 0. -1.
</event>
<event>
 8    1  0.1106168E+005  0.1043930E+01  0.7957747E-01            NaN
         13   -1    0    0    0    0  0.00000000000E+00  0.00000000000E+00  0.74505805969E-08  0.10566000000E+00  0.10566000000E+00 0. -1.
     999900   -1    0    0    0    0 -0.00000000000E+00 -0.00000000000E+00 -0.74505805969E-08  0.93827000000E+00  0.93827000000E+00 0. -1.
     999902    2    1    2    0    0 -0.72909226006E-02  0.17878959674E-01  0.13967902256E-01  0.10200989898E+01  0.10198205882E+01 0.  0.
     999903    2    3    3    0    0  0.82962597971E-01 -0.94468333810E-01 -0.12560424285E-01  0.12798276175E+00  0.20365762741E-01 0.  0.
         14    1    1    2    0    0  0.72909226006E-02 -0.17878959674E-01 -0.13967902256E-01  0.23831010151E-01  0.00000000000E+00 0. -1.
     999901    1    3    3    0    0 -0.90253520572E-01  0.11234729348E+00  0.26528326541E-01  0.89211622810E+00  0.88000000000E+00 0.  1.
        -11    1    4    4    0    0  0.29647208116E-01 -0.26789451476E-01 -0.12344413808E-01  0.41824362908E-01  0.51100000000E-03 0.  1.
         11    1    4    4    0    0  0.53315389855E-01 -0.67678882334E-01 -0.21601047716E-03  0.86158398841E-01  0.51100000000E-03 0. -1.
</event>
<event>
 8    1  0.1180041E+005  0.1043930E+01  0.7957747E-01            NaN
         13   -1    0    0    0    0  0.00000000000E+00  0.00000000000E+00  0.74505805969E-08  0.10566000000E+00  0.10566000000E+00 0.  1.
     999900   -1    0    0    0    0 -0.00000000000E+00 -0.00000000000E+00 -0.74505805969E-08  0.93827000000E+00  0.93827000000E+00 0.  1.
     999902    2    1    2    0    0 -0.36129811609E-03 -0.18671110716E-01 -0.30791181154E-02  0.10250032496E+01  0.10248284929E+01 0.  0.
     999903    2    3    3    0    0  0.52654086923E-01 -0.22241604069E-01  0.12046102751E+00  0.13478667650E+00  0.19734416394E-01 0.  0.
         14    1    1    2    0    0  0.36129811609E-03  0.18671110716E-01  0.30791181154E-02  0.18926750383E-01  0.00000000000E+00 0.  1.
     999901    1    3    3    0    0 -0.53015385039E-01  0.35704933536E-02 -0.12354014563E+00  0.89021657312E+00  0.88000000000E+00 0.  1.
        -11    1    4    4    0    0  0.20088610562E-01 -0.19064350659E-01  0.52606742696E-01  0.59453614175E-01  0.51100000000E-03 0. -1.
         11    1    4    4    0    0  0.32565476362E-01 -0.31772534108E-02  0.67854284818E-01  0.75333062323E-01  0.51100000000E-03 0.  1.
</event>
<event>
 8    1  0.1106168E+005  0.1043930E+01  0.7957747E-01            NaN
         13   -1    0    0    0    0  0.00000000000E+00  0.00000000000E+00  0.74505805969E-08  0.10566000000E+00  0.10566000000E+00 0.  1.
     999900   -1    0    0    0    0 -0.00000000000E+00 -0.00000000000E+00 -0.74505805969E-08  0.93827000000E+00  0.93827000000E+00 0. -1.
     999902    2    1    2    0    0 -0.18548503278E-01 -0.12074541401E-01 -0.86313326824E-02  0.10201741286E+01  0.10198975003E+01 0.  0.
     999903    2    3    3    0    0  0.89981818859E-01 -0.13387148128E-02 -0.91101562994E-01  0.12961507511E+00  0.20051260154E-01 0.  0.
         14    1    1    2    0    0  0.18548503278E-01  0.12074541401E-01  0.86313326824E-02  0.23755871438E-01  0.00000000000E+00 0.  1.
     999901    1    3    3    0    0 -0.10853032214E+00 -0.10735826588E-01  0.82470230312E-01  0.89055905345E+00  0.88000000000E+00 0.  1.
        -11    1    4    4    0    0  0.45135824749E-01 -0.10585007610E-01 -0.43848397746E-01  0.63814012315E-01  0.51100000000E-03 0. -1.
         11    1    4    4    0    0  0.44845994110E-01  0.92462927971E-02 -0.47253165248E-01  0.65801062797E-01  0.51100000000E-03 0.  1.
</event>
<event>
 8    1  0.1106168E+005  0.1043930E+01  0.7957747E-01            NaN
         13   -1    0    0    0    0  0.00000000000E+00  0.00000000000E+00  0.74505805969E-08  0.10566000000E+00  0.10566000000E+00 0. -1.
     999900   -1    0    0    0    0 -0.00000000000E+00 -0.00000000000E+00 -0.74505805969E-08  0.93827000000E+00  0.93827000000E+00 0.  1.
     999902    2    1    2    0    0 -0.19975524864E-01 -0.57562203552E-02 -0.10381099610E-01  0.10206937590E+01  0.10204292365E+01 0.  0.
     999903    2    3    3    0    0 -0.43419935787E-01 -0.12189700981E+00  0.18496742016E-01  0.13228380121E+00  0.20315087321E-01 0.  0.
         14    1    1    2    0    0  0.19975524864E-01  0.57562203552E-02  0.10381099610E-01  0.23236240993E-01  0.00000000000E+00 0. -1.
     999901    1    3    3    0    0  0.23444410924E-01  0.11614078945E+00 -0.28877841626E-01  0.88840995780E+00  0.88000000000E+00 0.  1.
        -11    1    4    4    0    0 -0.31301781823E-01 -0.99336503122E-01  0.75424879514E-02  0.10442553636E+00  0.51100000000E-03 0.  1.
         11    1    4    4    0    0 -0.12118153964E-01 -0.22560506687E-01  0.10954254064E-01  0.27858264853E-01  0.51100000000E-03 0. -1.
</event>
<event>
 8    1  0.1144780E+005  0.1043930E+01  0.7957747E-01            NaN
         13   -1    0    0    0    0  0.00000000000E+00  0.00000000000E+00  0.74505805969E-08  0.10566000000E+00  0.10566000000E+00 0. -1.
     999900   -1    0    0    0    0 -0.00000000000E+00 -0.00000000000E+00 -0.74505805969E-08  0.93827000000E+00  0.93827000000E+00 0. -1.
     999902    2    1    2    0    0  0.56286499290E-02  0.34322122228E-02 -0.22988524291E-01  0.10200148577E+01  0.10197344635E+01 0.  0.
     999903    2    3    3    0    0 -0.12532541929E+00 -0.42830083129E-02  0.22973650446E-01  0.12910464094E+00  0.20381727556E-01 0.  0.
         14    1    1    2    0    0 -0.56286499290E-02 -0.34322122228E-02  0.22988524291E-01  0.23915142271E-01  0.00000000000E+00 0. -1.
     999901    1    3    3    0    0  0.13095406921E+00  0.77152205358E-02 -0.45962174737E-01  0.89091021679E+00  0.88000000000E+00 0.  1.
        -11    1    4    4    0    0 -0.46551445168E-01 -0.10573381970E-01  0.12800263804E-01  0.49426119896E-01  0.51100000000E-03 0.  1.
         11    1    4    4    0    0 -0.78773974118E-01  0.62903736571E-02  0.10173386641E-01  0.79678521044E-01  0.51100000000E-03 0. -1.
</event>
<event>
 8    1  0.1106168E+005  0.1043930E+01  0.7957747E-01            NaN
         13   -1    0    0    0    0  0.00000000000E+00  0.00000000000E+00  0.74505805969E-08  0.10566000000E+00  0.10566000000E+00 0.  1.
     999900   -1    0    0    0    0 -0.00000000000E+00 -0.00000000000E+00 -0.74505805969E-08  0.93827000000E+00  0.93827000000E+00 0.  1.
     999902    2    1    2    0    0 -0.17177836866E-01 -0.14037127991E-01 -0.91037227309E-02  0.10199509089E+01  0.10196689952E+01 0.  0.
     999903    2    3    3    0    0  0.12169499313E+00  0.16142987316E-01 -0.31571211415E-01  0.12826638493E+00  0.19627957623E-01 0.  0.
         14    1    1    2    0    0  0.17177836866E-01  0.14037127991E-01  0.91037227309E-02  0.23979091083E-01  0.00000000000E+00 0. -1.
     999901    1    3    3    0    0 -0.13887283000E+00 -0.30180115306E-01  0.22467488684E-01  0.89168452399E+00  0.88000000000E+00 0.  1.
        -11    1    4    4    0    0  0.53206688080E-01 -0.20028928251E-02 -0.17330788665E-01  0.55996255168E-01  0.51100000000E-03 0.  1.
         11    1    4    4    0    0  0.68488305050E-01  0.18145880141E-01 -0.14240422750E-01  0.72270129762E-01  0.51100000000E-03 0. -1.
</event>
<event>
 8    1  0.1106168E+005  0.1043930E+01  0.7957747E-01            NaN
         13   -1    0    0    0    0  0.00000000000E+00  0.00000000000E+00  0.74505805969E-08  0.10566000000E+00  0.10566000000E+00 0.  1.
     999900   -1    0    0    0    0 -0.00000000000E+00 -0.00000000000E+00 -0.74505805969E-08  0.93827000000E+00  0.93827000000E+00 0.  1.
     999902    2    1    2    0    0  0.15584797822E-01 -0.12027620090E-01  0.13415493691E-01  0.10201072160E+01  0.10198290087E+01 0.  0.
     999903    2    3    3    0    0  0.30040334733E-01  0.12507965324E+00  0.46749514167E-02  0.12933015967E+00  0.12533701101E-01 0.  0.
         14    1    1    2    0    0 -0.15584797822E-01  0.12027620090E-01 -0.13415493691E-01  0.23822784034E-01  0.00000000000E+00 0. -1.
     999901    1    3    3    0    0 -0.14455536911E-01 -0.13710727333E+00  0.87405422741E-02  0.89077705630E+00  0.88000000000E+00 0.  1.
        -11    1    4    4    0    0  0.12145555754E-01  0.76247837109E-01  0.15475908162E-02  0.77226312528E-01  0.51100000000E-03 0. -1.
         11    1    4    4    0    0  0.17894778979E-01  0.48831816132E-01  0.31273606004E-02  0.52103847140E-01  0.51100000000E-03 0.  1.
</event>
<event>
 8    1  0.1106168E+005  0.1043930E+01  0.7957747E-01            NaN
         13   -1    0    0    0    0  0.00000000000E+00  0.00000000000E+00  0.74505805969E-08  0.10566000000E+00  0.10566000000E+00 0. -1.
     999900   -1    0    0    0    0 -0.00000000000E+00 -0.00000000000E+00 -0.74505805969E-08  0.93827000000E+00  0.93827000000E+00 0. -1.
     999902    2    1    2    0    0 -0.22541297365E-01 -0.51707477566E-02  0.37847616454E-02  0.10204955992E+01  0.10202264929E+01 0.  0.
     999903    2    3    3    0    0  0.96485811690E-01  0.35816726158E-01  0.74957675650E-01  0.12869236453E+00  0.18727568454E-01 0.  0.
         14    1    1    2    0    0  0.22541297365E-01  0.51707477566E-02 -0.37847616454E-02  0.23434400781E-01  0.00000000000E+00 0.  1.
     999901    1    3    3    0    0 -0.11902710905E+00 -0.40987473915E-01 -0.71172914005E-01  0.89180323469E+00  0.88000000000E+00 0. -1.
        -11    1    4    4    0    0  0.33700168290E-01  0.14875926435E-01  0.37818903286E-01  0.52797017879E-01  0.51100000000E-03 0. -1.
         11    1    4    4    0    0  0.62785643400E-01  0.20940799723E-01  0.37138772364E-01  0.75895346655E-01  0.51100000000E-03 0.  1.
</event>
<event>
 8    1  0.1106168E+005  0.1043930E+01  0.7957747E-01            NaN
         13   -1    0    0    0    0  0.00000000000E+00  0.00000000000E+00  0.74505805969E-08  0.10566000000E+00  0.10566000000E+00 0. -1.
     999900   -1    0    0    0    0 -0.00000000000E+00 -0.00000000000E+00 -0.74505805969E-08  0.93827000000E+00  0.93827000000E+00 0.  1.
     999902    2    1    2    0    0 -0.65009324121E-02 -0.99976595457E-02 -0.21557124438E-01  0.10192941535E+01  0.10189963918E+01 0.  0.
     999903    2    3    3    0    0 -0.91184120544E-01  0.20582998990E-01 -0.90036401922E-01  0.13205358270E+00  0.24359625342E-01 0.  0.
         14    1    1    2    0    0  0.65009324121E-02  0.99976595457E-02  0.21557124438E-01  0.24635846497E-01  0.00000000000E+00 0. -1.
     999901    1    3    3    0    0  0.84683188132E-01 -0.30580658536E-01  0.68479277484E-01  0.88724057080E+00  0.88000000000E+00 0. -1.
        -11    1    4    4    0    0 -0.70425051602E-01  0.49532050919E-02 -0.65001783913E-01  0.95967260910E-01  0.51100000000E-03 0.  1.
         11    1    4    4    0    0 -0.20759068942E-01  0.15629793898E-01 -0.25034618009E-01  0.36086321792E-01  0.51100000000E-03 0. -1.
</event>
<event>
 8    1  0.1106168E+005  0.1043930E+01  0.7957747E-01            NaN
         13   -1    0    0    0    0  0.00000000000E+00  0.00000000000E+00  0.74505805969E-08  0.10566000000E+00  0.10566000000E+00 0.  1.
     999900   -1    0    0    0    0 -0.00000000000E+00 -0.00000000000E+00 -0.74505805969E-08  0.93827000000E+00  0.93827000000E+00 0. -1.
     999902    2    1    2    0    0 -0.21164312949E-01 -0.93465758439E-02 -0.71474783154E-02  0.10197148587E+01  0.10194273000E+01 0.  0.
     999903    2    3    3    0    0  0.33381454637E-01 -0.71059738888E-01 -0.10263720077E+00  0.13072552110E+00  0.19772680133E-01 0.  0.
         14    1    1    2    0    0  0.21164312949E-01  0.93465758439E-02  0.71474783154E-02  0.24215141315E-01  0.00000000000E+00 0.  1.
     999901    1    3    3    0    0 -0.54545767586E-01  0.61713163044E-01  0.95489722453E-01  0.88898933759E+00  0.88000000000E+00 0.  1.
        -11    1    4    4    0    0  0.24644115075E-01 -0.30303104986E-01 -0.44920962565E-01  0.59529526946E-01  0.51100000000E-03 0.  1.
         11    1    4    4    0    0  0.87373395617E-02 -0.40756633902E-01 -0.57716238203E-01  0.71195994149E-01  0.51100000000E-03 0. -1.
</event>
<event>
 7    1  0.1106168E+005  0.1043930E+01  0.7957747E-01            NaN
         13   -1    0    0    0    0  0.00000000000E+00  0.00000000000E+00  0.74505805969E-08  0.10566000000E+00  0.10566000000E+00 0. -1.
     999900   -1    0    0    0    0 -0.00000000000E+00 -0.00000000000E+00 -0.74505805969E-08  0.93827000000E+00  0.93827000000E+00 0.  1.
     999902    2    1    2    0    0  0.10672996492E-01 -0.16913086144E-01 -0.14846407514E-01  0.10190225482E+01  0.10187181027E+01 0.  0.
         14    1    1    2    0    0 -0.10672996492E-01  0.16913086144E-01  0.14846407514E-01  0.24907451759E-01  0.00000000000E+00 0. -1.
     999901    1    3    3    0    0 -0.14814152216E-02  0.78454602951E-01  0.56442198103E-01  0.88529263017E+00  0.88000000000E+00 0.  1.
        -11    1    3    3    0    0 -0.19134659545E-02 -0.69213830916E-01 -0.76924664566E-01  0.10349821680E+00  0.51100000000E-03 0.  1.
         11    1    3    3    0    0  0.14067877668E-01 -0.26153858180E-01  0.56360589483E-02  0.30231701262E-01  0.51100000000E-03 0. -1.
</event>
<event>
 8    1  0.1106168E+005  0.1043930E+01  0.7957747E-01            NaN
         13   -1    0    0    0    0  0.00000000000E+00  0.00000000000E+00  0.74505805969E-08  0.10566000000E+00  0.10566000000E+00 0.  1.
     999900   -1    0    0    0    0 -0.00000000000E+00 -0.00000000000E+00 -0.74505805969E-08  0.93827000000E+00  0.93827000000E+00 0.  1.
     999902    2    1    2    0    0  0.71950889657E-02  0.21037055930E-01  0.87357466665E-02  0.10200419214E+01  0.10197621689E+01 0.  0.
     999903    2    3    3    0    0 -0.51542105740E-01  0.75094339237E-01  0.93890232965E-01  0.13233502474E+00  0.20035829814E-01 0.  0.
         14    1    1    2    0    0 -0.71950889657E-02 -0.21037055930E-01 -0.87357466665E-02  0.23888078559E-01  0.00000000000E+00 0. -1.
     999901    1    3    3    0    0  0.58737194705E-01 -0.54057283307E-01 -0.85154486298E-01  0.88770689670E+00  0.88000000000E+00 0. -1.
        -11    1    4    4    0    0 -0.27963556017E-01  0.56288788964E-01  0.58909578620E-01  0.86145155420E-01  0.51100000000E-03 0.  1.
         11    1    4    4    0    0 -0.23578549723E-01  0.18805550273E-01  0.34980654345E-01  0.46189869317E-01  0.51100000000E-03 0. -1.
</event>
<event>
 8    1  0.1106168E+005  0.1043930E+01  0.7957747E-01            NaN
         13   -1    0    0    0    0  0.00000000000E+00  0.00000000000E+00  0.74505805969E-08  0.10566000000E+00  0.10566000000E+00 0.  1.
     999900   -1    0    0    0    0 -0.00000000000E+00 -0.00000000000E+00 -0.74505805969E-08  0.93827000000E+00  0.93827000000E+00 0.  1.
     999902    2    1    2    0    0  0.20158065017E-01  0.10700576311E-01  0.12006319465E-01  0.10181423746E+01  0.10178157462E+01 0.  0.
     999903    2    3    3    0    0 -0.43470268448E-01 -0.10334797113E+00  0.57370558933E-01  0.12734859920E+00  0.18863120385E-01 0.  0.
         14    1    1    2    0    0 -0.20158065017E-01 -0.10700576311E-01 -0.12006319465E-01  0.25787625438E-01  0.00000000000E+00 0. -1.
     999901    1    3    3    0    0  0.63628333465E-01  0.11404854745E+00 -0.45364239468E-01  0.89079377536E+00  0.88000000000E+00 0.  1.
        -11    1    4    4    0    0 -0.29074230310E-01 -0.87838473497E-01  0.46676224951E-01  0.10363319638E+00  0.51100000000E-03 0.  1.
         11    1    4    4    0    0 -0.14396038138E-01 -0.15509497637E-01  0.10694333982E-01  0.23715402829E-01  0.51100000000E-03 0. -1.
</event>
<event>
 8    1  0.1106168E+005  0.1043930E+01  0.7957747E-01            NaN
         13   -1    0    0    0    0  0.00000000000E+00  0.00000000000E+00  0.74505805969E-08  0.10566000000E+00  0.10566000000E+00 0. -1.
     999900   -1    0    0    0    0 -0.00000000000E+00 -0.00000000000E+00 -0.74505805969E-08  0.93827000000E+00  0.93827000000E+00 0. -1.
     999902    2    1    2    0    0 -0.48552914899E-02  0.18280301793E-01  0.16324287619E-01  0.10189454917E+01  0.10186391360E+01 0.  0.
     999903    2    3    3    0    0 -0.12744037633E+00 -0.66502547408E-02 -0.13407768941E-01  0.12960155886E+00  0.18207701197E-01 0.  0.
         14    1    1    2    0    0  0.48552914899E-02 -0.18280301793E-01 -0.16324287619E-01  0.24984508308E-01  0.00000000000E+00 0.  1.
     999901    1    3    3    0    0  0.12258508484E+00  0.24930556534E-01  0.29732056560E-01  0.88934393283E+00  0.88000000000E+00 0.  1.
        -11    1    4    4    0    0 -0.10502112902E+00  0.97461442123E-03 -0.81754375213E-02  0.10534460743E+00  0.51100000000E-03 0. -1.
         11    1    4    4    0    0 -0.22419247314E-01 -0.76248691620E-02 -0.52323314193E-02  0.24256951436E-01  0.51100000000E-03 0.  1.
</event>
<event>
 8    1  0.1106168E+005  0.1043930E+01  0.7957747E-01            NaN
         13   -1    0    0    0    0  0.00000000000E+00  0.00000000000E+00  0.74505805969E-08  0.10566000000E+00  0.10566000000E+00 0.  1.
     999900   -1    0    0    0    0 -0.00000000000E+00 -0.00000000000E+00 -0.74505805969E-08  0.93827000000E+00  0.93827000000E+00 0. -1.
     999902    2    1    2    0    0  0.20682204389E-02  0.64079768065E-02  0.23221991666E-01  0.10197514848E+01  0.10194648057E+01 0.  0.
     999903    2    3    3    0    0 -0.10659943393E+00 -0.63080459604E-01 -0.29171587692E-01  0.12880682370E+00  0.19940727314E-01 0.  0.
         14    1    1    2    0    0 -0.20682204389E-02 -0.64079768065E-02 -0.23221991666E-01  0.24178515246E-01  0.00000000000E+00 0. -1.
     999901    1    3    3    0    0  0.10866765437E+00  0.69488436410E-01  0.52393579358E-01  0.89094466105E+00  0.88000000000E+00 0. -1.
        -11    1    4    4    0    0 -0.57228003053E-01 -0.27799354889E-01 -0.62223503372E-02  0.63928297572E-01  0.51100000000E-03 0.  1.
         11    1    4    4    0    0 -0.49371430876E-01 -0.35281104715E-01 -0.22949237354E-01  0.64878526130E-01  0.51100000000E-03 0. -1.
</event>
<event>
 8    1  0.1106168E+005  0.1043930E+01  0.7957747E-01            NaN
         13   -1    0    0    0    0  0.00000000000E+00  0.00000000000E+00  0.74505805969E-08  0.10566000000E+00  0.10566000000E+00 0.  1.
     999900   -1    0    0    0    0 -0.00000000000E+00 -0.00000000000E+00 -0.74505805969E-08  0.93827000000E+00  0.93827000000E+00 0. -1.
     999902    2    1    2    0    0  0.11280115832E-01 -0.92813119054E-02 -0.19588755292E-01  0.10194943069E+01  0.10192014220E+01 0.  0.
     999903    2    3    3    0    0  0.11004555450E+00 -0.56372506493E-01 -0.42917494899E-01  0.13241120899E+00  0.20073199695E-01 0.  0.
         14    1    1    2    0    0 -0.11280115832E-01  0.92813119054E-02  0.19588755292E-01  0.24435693110E-01  0.00000000000E+00 0.  1.
     999901    1    3    3    0    0 -0.98765438665E-01  0.47091194587E-01  0.23328739607E-01  0.88708309790E+00  0.88000000000E+00 0.  1.
        -11    1    4    4    0    0  0.70007908707E-01 -0.34589180053E-01 -0.16795372958E-01  0.79874052934E-01  0.51100000000E-03 0. -1.
         11    1    4    4    0    0  0.40037645789E-01 -0.21783326439E-01 -0.26122121941E-01  0.52537156059E-01  0.51100000000E-03 0.  1.
</event>
<event>
 8    1  0.1106168E+005  0.1043930E+01  0.7957747E-01            NaN
         13   -1    0    0    0    0  0.00000000000E+00  0.00000000000E+00  0.74505805969E-08  0.10566000000E+00  0.10566000000E+00 0. -1.
     999900   -1    0    0    0    0 -0.00000000000E+00 -0.00000000000E+00 -0.74505805969E-08  0.93827000000E+00  0.93827000000E+00 0.  1.
     999902    2    1    2    0    0  0.53476858365E-02  0.13304336880E-01 -0.20198594300E-01  0.10191593251E+01  0.10188582549E+01 0.  0.
     999903    2    3    3    0    0  0.87562343100E-01  0.80592585529E-01 -0.53725218527E-01  0.13213565415E+00  0.20275680546E-01 0.  0.
         14    1    1    2    0    0 -0.53476858365E-02 -0.13304336880E-01  0.20198594300E-01  0.24770674907E-01  0.00000000000E+00 0. -1.
     999901    1    3    3    0    0 -0.82214657263E-01 -0.67288248649E-01  0.33526624227E-01  0.88702367094E+00  0.88000000000E+00 0. -1.
        -11    1    4    4    0    0  0.25490574885E-01  0.24818038635E-01 -0.62475598638E-02  0.36124750171E-01  0.51100000000E-03 0. -1.
         11    1    4    4    0    0  0.62071768214E-01  0.55774546894E-01 -0.47477658663E-01  0.96010903983E-01  0.51100000000E-03 0.  1.
</event>
<event>
 8    1  0.1106168E+005  0.1043930E+01  0.7957747E-01            NaN
         13   -1    0    0    0    0  0.00000000000E+00  0.00000000000E+00  0.74505805969E-08  0.10566000000E+00  0.10566000000E+00 0.  1.
     999900   -1    0    0    0    0 -0.00000000000E+00 -0.00000000000E+00 -0.74505805969E-08  0.93827000000E+00  0.93827000000E+00 0. -1.
     999902    2    1    2    0    0  0.82445272199E-02 -0.15367748942E-01 -0.14818231750E-01  0.10210450720E+01  0.10207885771E+01 0.  0.
     999903    2    3    3    0    0  0.91411955099E-01  0.63251874047E-01 -0.68605124980E-01  0.13200576126E+00  0.19024003991E-01 0.  0.
         14    1    1    2    0    0 -0.82445272199E-02  0.15367748942E-01  0.14818231750E-01  0.22884927984E-01  0.00000000000E+00 0.  1.
     999901    1    3    3    0    0 -0.83167427879E-01 -0.78619622990E-01  0.53786893229E-01  0.88903931075E+00  0.88000000000E+00 0. -1.
        -11    1    4    4    0    0  0.11649754433E-01  0.10443264019E-01 -0.17752262552E-01  0.23668174591E-01  0.51100000000E-03 0. -1.
         11    1    4    4    0    0  0.79762200666E-01  0.52808610028E-01 -0.50852862428E-01  0.10833758667E+00  0.51100000000E-03 0.  1.
</event>
<event>
 8    1  0.1106168E+005  0.1043930E+01  0.7957747E-01            NaN
         13   -1    0    0    0    0  0.00000000000E+00  0.00000000000E+00  0.74505805969E-08  0.10566000000E+00  0.10566000000E+00 0. -1.
     999900   -1    0    0    0    0 -0.00000000000E+00 -0.00000000000E+00 -0.74505805969E-08  0.93827000000E+00  0.93827000000E+00 0. -1.
     999902    2    1    2    0    0 -0.18348761081E-01  0.45511522826E-02  0.14095429188E-01  0.10203488392E+01  0.10200763121E+01 0.  0.
     999903    2    3    3    0    0 -0.83663139612E-01  0.21615438644E-01  0.10011863695E+00  0.13358102846E+00  0.18798978181E-01 0.  0.
         14    1    1    2    0    0  0.18348761081E-01 -0.45511522826E-02 -0.14095429188E-01  0.23581160792E-01  0.00000000000E+00 0.  1.
     999901    1    3    3    0    0  0.65314378532E-01 -0.17064286361E-01 -0.86023207765E-01  0.88676781075E+00  0.88000000000E+00 0. -1.
        -11    1    4    4    0    0 -0.54258768367E-01  0.10502536278E-01  0.50643778281E-01  0.74962461356E-01  0.51100000000E-03 0.  1.
         11    1    4    4    0    0 -0.29404371245E-01  0.11112902365E-01  0.49474858672E-01  0.58618567100E-01  0.51100000000E-03 0. -1.
</event>
<event>
 8    1  0.1106168E+005  0.1043930E+01  0.7957747E-01            NaN
         13   -1    0    0    0    0  0.00000000000E+00  0.00000000000E+00  0.74505805969E-08  0.10566000000E+00  0.10566000000E+00 0. -1.
     999900   -1    0    0    0    0 -0.00000000000E+00 -0.00000000000E+00 -0.74505805969E-08  0.93827000000E+00  0.93827000000E+00 0. -1.
     999902    2    1    2    0    0 -0.64678693896E-02  0.12546554377E-01  0.18581355838E-01  0.10205951303E+01  0.10203283314E+01 0.  0.
     999903    2    3    3    0    0  0.92541780550E-01  0.20626983499E-01 -0.85175348108E-01  0.12894853113E+00  0.19581372784E-01 0.  0.
         14    1    1    2    0    0  0.64678693896E-02 -0.12546554377E-01 -0.18581355838E-01  0.23334869744E-01  0.00000000000E+00 0.  1.
     999901    1    3    3    0    0 -0.99009649940E-01 -0.80804291215E-02  0.10375670395E+00  0.89164659912E+00  0.88000000000E+00 0.  1.
        -11    1    4    4    0    0  0.64686508509E-01  0.22961478717E-01 -0.64326407853E-01  0.94072959751E-01  0.51100000000E-03 0.  1.
         11    1    4    4    0    0  0.27855272041E-01 -0.23344952186E-02 -0.20848940254E-01  0.34875571381E-01  0.51100000000E-03 0. -1.
</event>
<event>
 8    1  0.1106168E+005  0.1043930E+01  0.7957747E-01            NaN
         13   -1    0    0    0    0  0.00000000000E+00  0.00000000000E+00  0.74505805969E-08  0.10566000000E+00  0.10566000000E+00 0. -1.
     999900   -1    0    0    0    0 -0.00000000000E+00 -0.00000000000E+00 -0.74505805969E-08  0.93827000000E+00  0.93827000000E+00 0.  1.
     999902    2    1    2    0    0 -0.10379113606E-01  0.71361259309E-02  0.21285248105E-01  0.10191971862E+01  0.10188970469E+01 0.  0.
     999903    2    3    3    0    0  0.12208001789E+00  0.14870764946E-02  0.36212119537E-01  0.12914092685E+00  0.21455051239E-01 0.  0.
         14    1    1    2    0    0  0.10379113606E-01 -0.71361259309E-02 -0.21285248105E-01  0.24732813819E-01  0.00000000000E+00 0.  1.
     999901    1    3    3    0    0 -0.13245913149E+00  0.56490494363E-02 -0.14926871433E-01  0.89005625933E+00  0.88000000000E+00 0.  1.
        -11    1    4    4    0    0  0.57959202438E-01  0.67072358256E-02  0.80080344256E-02  0.58895211147E-01  0.51100000000E-03 0. -1.
         11    1    4    4    0    0  0.64120815449E-01 -0.52201593309E-02  0.28204085112E-01  0.70245715707E-01  0.51100000000E-03 0.  1.
</event>
<event>
 8    1  0.1106168E+005  0.1043930E+01  0.7957747E-01            NaN
         13   -1    0    0    0    0  0.00000000000E+00  0.00000000000E+00  0.74505805969E-08  0.10566000000E+00  0.10566000000E+00 0. -1.
     999900   -1    0    0    0    0 -0.00000000000E+00 -0.00000000000E+00 -0.74505805969E-08  0.93827000000E+00  0.93827000000E+00 0.  1.
     999902    2    1    2    0    0 -0.67494288655E-02  0.13004306142E-01  0.17801368304E-01  0.10208745130E+01  0.10206141366E+01 0.  0.
     999903    2    3    3    0    0 -0.87828658085E-01 -0.75631578959E-01 -0.53318807121E-01  0.12987044964E+00  0.24278170843E-01 0.  0.
         14    1    1    2    0    0  0.67494288655E-02 -0.13004306142E-01 -0.17801368304E-01  0.23055487021E-01  0.00000000000E+00 0.  1.
     999901    1    3    3    0    0  0.81079229219E-01  0.88635885101E-01  0.71120175426E-01  0.89100406334E+00  0.88000000000E+00 0. -1.
        -11    1    4    4    0    0 -0.41583060448E-01 -0.50779123649E-01 -0.34066022228E-01  0.73948801925E-01  0.51100000000E-03 0. -1.
         11    1    4    4    0    0 -0.46245597637E-01 -0.24852455310E-01 -0.19252784894E-01  0.55921647713E-01  0.51100000000E-03 0.  1.
</event>
<event>
 8    1  0.1106168E+005  0.1043930E+01  0.7957747E-01            NaN
         13   -1    0    0    0    0  0.00000000000E+00  0.00000000000E+00  0.74505805969E-08  0.10566000000E+00  0.10566000000E+00 0. -1.
     999900   -1    0    0    0    0 -0.00000000000E+00 -0.00000000000E+00 -0.74505805969E-08  0.93827000000E+00  0.93827000000E+00 0.  1.
     999902    2    1    2    0    0 -0.94091817426E-02 -0.90671401394E-02 -0.18928190763E-01  0.10209295188E+01  0.10206703974E+01 0.  0.
     999903    2    3    3    0    0 -0.10306106037E+00 -0.20919983978E-01 -0.80216243227E-01  0.13376133310E+00  0.19955466958E-01 0.  0.
         14    1    1    2    0    0  0.94091817426E-02  0.90671401394E-02  0.18928190763E-01  0.23000481233E-01  0.00000000000E+00 0. -1.
     999901    1    3    3    0    0  0.93651878630E-01  0.11852843839E-01  0.61288052464E-01  0.88716818566E+00  0.88000000000E+00 0. -1.
        -11    1    4    4    0    0 -0.82683729785E-01 -0.10371209160E-01 -0.69120132231E-01  0.10826825459E+00  0.51100000000E-03 0. -1.
         11    1    4    4    0    0 -0.20377330588E-01 -0.10548774819E-01 -0.11096110995E-01  0.25493078517E-01  0.51100000000E-03 0.  1.
</event>
<event>
 8    1  0.1106168E+005  0.1043930E+01  0.7957747E-01            NaN
         13   -1    0    0    0    0  0.00000000000E+00  0.00000000000E+00  0.74505805969E-08  0.10566000000E+00  0.10566000000E+00 0.  1.
     999900   -1    0    0    0    0 -0.00000000000E+00 -0.00000000000E+00 -0.74505805969E-08  0.93827000000E+00  0.93827000000E+00 0. -1.
     999902    2    1    2    0    0  0.50416220733E-02  0.22692163346E-01 -0.19867582734E-02  0.10205997741E+01  0.10203330826E+01 0.  0.
     999903    2    3    3    0    0  0.12258658789E+00  0.24144790986E-01  0.37817922678E-01  0.13189096820E+00  0.18830553772E-01 0.  0.
         14    1    1    2    0    0 -0.50416220733E-02 -0.22692163346E-01  0.19867582734E-02  0.23330225865E-01  0.00000000000E+00 0.  1.
     999901    1    3    3    0    0 -0.11754496582E+00 -0.14526276397E-02 -0.39804680952E-01  0.88870880593E+00  0.88000000000E+00 0.  1.
        -11    1    4    4    0    0  0.39958976825E-01  0.11254956130E-01  0.40924396008E-02  0.41718138133E-01  0.51100000000E-03 0. -1.
         11    1    4    4    0    0  0.82627611066E-01  0.12889834856E-01  0.33725483078E-01  0.90172830070E-01  0.51100000000E-03 0.  1.
</event>
<event>
 8    1  0.1106168E+005  0.1043930E+01  0.7957747E-01            NaN
         13   -1    0    0    0    0  0.00000000000E+00  0.00000000000E+00  0.74505805969E-08  0.10566000000E+00  0.10566000000E+00 0.  1.
     999900   -1    0    0    0    0 -0.00000000000E+00 -0.00000000000E+00 -0.74505805969E-08  0.93827000000E+00  0.93827000000E+00 0.  1.
     999902    2    1    2    0    0 -0.17358166876E-01 -0.14956861061E-01  0.31464848471E-02  0.10208017917E+01  0.10205397513E+01 0.  0.
     999903    2    3    3    0    0  0.11511151970E+00  0.42909801171E-01 -0.30893975532E-01  0.12835822412E+00  0.20723970945E-01 0.  0.
         14    1    1    2    0    0  0.17358166876E-01  0.14956861061E-01 -0.31464848471E-02  0.23128208253E-01  0.00000000000E+00 0.  1.
     999901    1    3    3    0    0 -0.13246968657E+00 -0.57866662233E-01  0.34040460379E-01  0.89244356763E+00  0.88000000000E+00 0. -1.
        -11    1    4    4    0    0  0.39212943570E-01  0.22023110394E-01 -0.18648274549E-01  0.48689748402E-01  0.51100000000E-03 0. -1.
         11    1    4    4    0    0  0.75898576125E-01  0.20886690778E-01 -0.12245700983E-01  0.79668475717E-01  0.51100000000E-03 0.  1.
</event>
<event>
 8    1  0.1106168E+005  0.1043930E+01  0.7957747E-01            NaN
         13   -1    0    0    0    0  0.00000000000E+00  0.00000000000E+00  0.74505805969E-08  0.10566000000E+00  0.10566000000E+00 0.  1.
     999900   -1    0    0    0    0 -0.00000000000E+00 -0.00000000000E+00 -0.74505805969E-08  0.93827000000E+00  0.93827000000E+00 0.  1.
     999902    2    1    2    0    0 -0.20618560377E-01 -0.28882764317E-02  0.60304590441E-02  0.10222543545E+01  0.10220245259E+01 0.  0.
     999903    2    3    3    0    0  0.48225266443E-01 -0.79668724126E-01  0.91524584233E-01  0.13211731161E+00  0.20135853097E-01 0.  0.
         14    1    1    2    0    0  0.20618560377E-01  0.28882764317E-02 -0.60304590441E-02  0.21675645527E-01  0.00000000000E+00 0. -1.
     999901    1    3    3    0    0 -0.68843826820E-01  0.76780447694E-01 -0.85494125189E-01  0.89013704287E+00  0.88000000000E+00 0.  1.
        -11    1    4    4    0    0  0.43491972607E-01 -0.60553630264E-01  0.79727428607E-01  0.10915593347E+00  0.51100000000E-03 0. -1.
         11    1    4    4    0    0  0.47332938359E-02 -0.19115093862E-01  0.11797155626E-01  0.22961378133E-01  0.51100000000E-03 0.  1.
</event>
<event>
 8    1  0.1106168E+005  0.1043930E+01  0.7957747E-01            NaN
         13   -1    0    0    0    0  0.00000000000E+00  0.00000000000E+00  0.74505805969E-08  0.10566000000E+00  0.10566000000E+00 0. -1.
     999900   -1    0    0    0    0 -0.00000000000E+00 -0.00000000000E+00 -0.74505805969E-08  0.93827000000E+00  0.93827000000E+00 0.  1.
     999902    2    1    2    0    0  0.14267547319E-01  0.18569672693E-01 -0.73409917526E-04  0.10205120360E+01  0.10202433114E+01 0.  0.
     999903    2    3    3    0    0  0.10181271150E+00 -0.77830206043E-01 -0.16577650878E-01  0.13077641099E+00  0.20106764204E-01 0.  0.
         14    1    1    2    0    0 -0.14267547319E-01 -0.18569672693E-01  0.73409917526E-04  0.23417964033E-01  0.00000000000E+00 0. -1.
     999901    1    3    3    0    0 -0.87545164177E-01  0.96399878736E-01  0.16504240960E-01  0.88973562498E+00  0.88000000000E+00 0.  1.
        -11    1    4    4    0    0  0.47050846485E-01 -0.28447085234E-01  0.90092389383E-03  0.54991741181E-01  0.51100000000E-03 0. -1.
         11    1    4    4    0    0  0.54761865011E-01 -0.49383120809E-01 -0.17478574772E-01  0.75784669805E-01  0.51100000000E-03 0.  1.
</event>
<event>
 8    1  0.1106168E+005  0.1043930E+01  0.7957747E-01            NaN
         13   -1    0    0    0    0  0.00000000000E+00  0.00000000000E+00  0.74505805969E-08  0.10566000000E+00  0.10566000000E+00 0.  1.
     999900   -1    0    0    0    0 -0.00000000000E+00 -0.00000000000E+00 -0.74505805969E-08  0.93827000000E+00  0.93827000000E+00 0. -1.
     999902    2    1    2    0    0 -0.12650631623E-01 -0.16247989080E-01 -0.11586376149E-01  0.10203020559E+01  0.10200284337E+01 0.  0.
     999903    2    3    3    0    0 -0.79737896259E-01  0.97020520937E-01  0.24553538264E-01  0.12977605974E+00  0.21629513595E-01 0.  0.
         14    1    1    2    0    0  0.12650631623E-01  0.16247989080E-01  0.11586376149E-01  0.23627944089E-01  0.00000000000E+00 0.  1.
     999901    1    3    3    0    0  0.67087264636E-01 -0.11326851002E+00 -0.36139914414E-01  0.89052599617E+00  0.88000000000E+00 0. -1.
        -11    1    4    4    0    0 -0.30583105726E-01  0.43310616402E-01  0.26815476681E-03  0.53023286176E-01  0.51100000000E-03 0.  1.
         11    1    4    4    0    0 -0.49154790534E-01  0.53709904535E-01  0.24285383497E-01  0.76752773567E-01  0.51100000000E-03 0. -1.
</event>
<event>
 8    1  0.1106168E+005  0.1043930E+01  0.7957747E-01            NaN
         13   -1    0    0    0    0  0.00000000000E+00  0.00000000000E+00  0.74505805969E-08  0.10566000000E+00  0.10566000000E+00 0. -1.
     999900   -1    0    0    0    0 -0.00000000000E+00 -0.00000000000E+00 -0.74505805969E-08  0.93827000000E+00  0.93827000000E+00 0. -1.
     999902    2    1    2    0    0 -0.16382544481E-01  0.38912755144E-02  0.17354298425E-01  0.10197493990E+01  0.10194626699E+01 0.  0.
     999903    2    3    3    0    0  0.10387271845E+00  0.73091887036E-01  0.84620458773E-02  0.12883463036E+00  0.19869327427E-01 0.  0.
         14    1    1    2    0    0  0.16382544481E-01 -0.38912755144E-02 -0.17354298425E-01  0.24180600957E-01  0.00000000000E+00 0. -1.
     999901    1    3    3    0    0 -0.12025526293E+00 -0.69200611522E-01  0.88922525481E-02  0.89091476868E+00  0.88000000000E+00 0. -1.
        -11    1    4    4    0    0  0.39446182751E-01  0.21043780413E-01 -0.47467796691E-02  0.44962596298E-01  0.51100000000E-03 0. -1.
         11    1    4    4    0    0  0.64426535696E-01  0.52048106623E-01  0.13208825546E-01  0.83872034065E-01  0.51100000000E-03 0.  1.
</event>
<event>
 8    1  0.1106168E+005  0.1043930E+01  0.7957747E-01            NaN
         13   -1    0    0    0    0  0.00000000000E+00  0.00000000000E+00  0.74505805969E-08  0.10566000000E+00  0.10566000000E+00 0. -1.
     999900   -1    0    0    0    0 -0.00000000000E+00 -0.00000000000E+00 -0.74505805969E-08  0.93827000000E+00  0.93827000000E+00 0. -1.
     999902    2    1    2    0    0 -0.17016516873E-01  0.17058445890E-01  0.40785795888E-02  0.10194925854E+01  0.10191996587E+01 0.  0.
     999903    2    3    3    0    0  0.80422673504E-01 -0.67015590910E-02 -0.97406262421E-01  0.12800051764E+00  0.19581502726E-01 0.  0.
         14    1    1    2    0    0  0.17016516873E-01 -0.17058445890E-01 -0.40785795888E-02  0.24437414637E-01  0.00000000000E+00 0.  1.
     999901    1    3    3    0    0 -0.97439190377E-01  0.23760004981E-01  0.10148484201E+00  0.89149206772E+00  0.88000000000E+00 0.  1.
        -11    1    4    4    0    0  0.51715577197E-01 -0.13419956375E-01 -0.59363241972E-01  0.79867714205E-01  0.51100000000E-03 0. -1.
         11    1    4    4    0    0  0.28707096307E-01  0.67183972836E-02 -0.38043020450E-01  0.48132803434E-01  0.51100000000E-03 0.  1.
</event>
<event>
 8    1  0.1106168E+005  0.1043930E+01  0.7957747E-01            NaN
         13   -1    0    0    0    0  0.00000000000E+00  0.00000000000E+00  0.74505805969E-08  0.10566000000E+00  0.10566000000E+00 0. -1.
     999900   -1    0    0    0    0 -0.00000000000E+00 -0.00000000000E+00 -0.74505805969E-08  0.93827000000E+00  0.93827000000E+00 0.  1.
     999902    2    1    2    0    0 -0.18214871699E-01  0.47404411917E-02  0.14958000437E-01  0.10198884711E+01  0.10196050698E+01 0.  0.
     999903    2    3    3    0    0  0.78561520777E-01  0.10013983953E+00  0.12319184092E-01  0.12945392625E+00  0.20165731285E-01 0.  0.
         14    1    1    2    0    0  0.18214871699E-01 -0.47404411917E-02 -0.14958000437E-01  0.24041528878E-01  0.00000000000E+00 0. -1.
     999901    1    3    3    0    0 -0.96776392476E-01 -0.95399398337E-01  0.26388163448E-02  0.89043454487E+00  0.88000000000E+00 0.  1.
        -11    1    4    4    0    0  0.11170507769E-01  0.86146800175E-02 -0.38941918838E-02  0.14643046372E-01  0.51100000000E-03 0.  1.
         11    1    4    4    0    0  0.67391013008E-01  0.91525159511E-01  0.16213375976E-01  0.11481087988E+00  0.51100000000E-03 0. -1.
</event>
<event>
 8    1  0.1106168E+005  0.1043930E+01  0.7957747E-01            NaN
         13   -1    0    0    0    0  0.00000000000E+00  0.00000000000E+00  0.74505805969E-08  0.10566000000E+00  0.10566000000E+00 0.  1.
     999900   -1    0    0    0    0 -0.00000000000E+00 -0.00000000000E+00 -0.74505805969E-08  0.93827000000E+00  0.93827000000E+00 0. -1.
     999902    2    1    2    0    0  0.11535079215E-01  0.14679287890E-01  0.46929286451E-02  0.10246799838E+01  0.10244991489E+01 0.  0.
     999903    2    3    3    0    0 -0.13876928061E-01 -0.49664937525E-01 -0.12106835937E+00  0.13305122077E+00  0.19644453572E-01 0.  0.
         14    1    1    2    0    0 -0.11535079215E-01 -0.14679287890E-01 -0.46929286451E-02  0.19250016226E-01  0.00000000000E+00 0. -1.
     999901    1    3    3    0    0  0.25412007276E-01  0.64344225415E-01  0.12576128801E+00  0.89162876301E+00  0.88000000000E+00 0.  1.
        -11    1    4    4    0    0 -0.72453687170E-02 -0.12255992652E-01 -0.55208870788E-01  0.57017411889E-01  0.51100000000E-03 0.  1.
         11    1    4    4    0    0 -0.66315593443E-02 -0.37408944873E-01 -0.65859488578E-01  0.76033808879E-01  0.51100000000E-03 0. -1.
</event>
<event>
 8    1  0.1106168E+005  0.1043930E+01  0.7957747E-01            NaN
         13   -1    0    0    0    0  0.00000000000E+00  0.00000000000E+00  0.74505805969E-08  0.10566000000E+00  0.10566000000E+00 0.  1.
     999900   -1    0    0    0    0 -0.00000000000E+00 -0.00000000000E+00 -0.74505805969E-08  0.93827000000E+00  0.93827000000E+00 0.  1.
     999902    2    1    2    0    0  0.88778470267E-02  0.17506744676E-01  0.14090894781E-01  0.10197668960E+01  0.10194805867E+01 0.  0.
     999903    2    3    3    0    0  0.65630237128E-01  0.11139125938E+00 -0.20690773798E-01  0.13227329024E+00  0.18782292126E-01 0.  0.
         14    1    1    2    0    0 -0.88778470267E-02 -0.17506744676E-01 -0.14090894781E-01  0.24163103954E-01  0.00000000000E+00 0. -1.
     999901    1    3    3    0    0 -0.56752390101E-01 -0.93884514706E-01  0.34781668579E-01  0.88749360581E+00  0.88000000000E+00 0.  1.
        -11    1    4    4    0    0  0.59070326704E-01  0.99068155250E-01 -0.24233281866E-01  0.11786142691E+00  0.51100000000E-03 0. -1.
         11    1    4    4    0    0  0.65599104239E-02  0.12323104132E-01  0.35425080683E-02  0.14411863330E-01  0.51100000000E-03 0.  1.
</event>
<event>
 8    1  0.1106168E+005  0.1043930E+01  0.7957747E-01            NaN
         13   -1    0    0    0    0  0.00000000000E+00  0.00000000000E+00  0.74505805969E-08  0.10566000000E+00  0.10566000000E+00 0. -1.
     999900   -1    0    0    0    0 -0.00000000000E+00 -0.00000000000E+00 -0.74505805969E-08  0.93827000000E+00  0.93827000000E+00 0. -1.
     999902    2    1    2    0    0 -0.22771446356E-01 -0.37637984384E-02  0.44471802147E-02  0.10204250567E+01  0.10201543089E+01 0.  0.
     999903    2    3    3    0    0 -0.77150754236E-01 -0.84939990842E-01  0.64199079555E-01  0.13300352619E+00  0.20034351469E-01 0.  0.
         14    1    1    2    0    0  0.22771446356E-01  0.37637984384E-02 -0.44471802147E-02  0.23504943304E-01  0.00000000000E+00 0.  1.
     999901    1    3    3    0    0  0.54379307880E-01  0.81176192403E-01 -0.59751899341E-01  0.88742153051E+00  0.88000000000E+00 0. -1.
        -11    1    4    4    0    0 -0.64153481024E-01 -0.71421280070E-01  0.44553250489E-01  0.10583913088E+00  0.51100000000E-03 0. -1.
         11    1    4    4    0    0 -0.12997273212E-01 -0.13518710772E-01  0.19645829067E-01  0.27164395311E-01  0.51100000000E-03 0.  1.
</event>
<event>
 8    1  0.1106168E+005  0.1043930E+01  0.7957747E-01            NaN
         13   -1    0    0    0    0  0.00000000000E+00  0.00000000000E+00  0.74505805969E-08  0.10566000000E+00  0.10566000000E+00 0.  1.
     999900   -1    0    0    0    0 -0.00000000000E+00 -0.00000000000E+00 -0.74505805969E-08  0.93827000000E+00  0.93827000000E+00 0. -1.
     999902    2    1    2    0    0 -0.14866350964E-01  0.20485954894E-01  0.25140218120E-02  0.10184937455E+01  0.10181760685E+01 0.  0.
     999903    2    3    3    0    0 -0.10347289356E+00 -0.69189037515E-01 -0.27492790699E-01  0.12900336753E+00  0.19805369924E-01 0.  0.
         14    1    1    2    0    0  0.14866350964E-01 -0.20485954894E-01 -0.25140218120E-02  0.25436254532E-01  0.00000000000E+00 0.  1.
     999901    1    3    3    0    0  0.88606542600E-01  0.89674992410E-01  0.30006812511E-01  0.88949037794E+00  0.88000000000E+00 0.  1.
        -11    1    4    4    0    0 -0.56989832633E-01 -0.49569163763E-01 -0.14695143144E-01  0.76949018011E-01  0.51100000000E-03 0.  1.
         11    1    4    4    0    0 -0.46483060931E-01 -0.19619873752E-01 -0.12797647554E-01  0.52054349515E-01  0.51100000000E-03 0. -1.
</event>
<event>
 8    1  0.1106168E+005  0.1043930E+01  0.7957747E-01            NaN
         13   -1    0    0    0    0  0.00000000000E+00  0.00000000000E+00  0.74505805969E-08  0.10566000000E+00  0.10566000000E+00 0. -1.
     999900   -1    0    0    0    0 -0.00000000000E+00 -0.00000000000E+00 -0.74505805969E-08  0.93827000000E+00  0.93827000000E+00 0.  1.
     999902    2    1    2    0    0 -0.21669944668E-02 -0.23910679514E-01  0.21019488501E-02  0.10198294886E+01  0.10195446784E+01 0.  0.
     999903    2    3    3    0    0 -0.83832696113E-01  0.90185011559E-01  0.31357382015E-01  0.12823373161E+00  0.17301655077E-01 0.  0.
         14    1    1    2    0    0  0.21669944668E-02  0.23910679514E-01 -0.21019488501E-02  0.24100511380E-01  0.00000000000E+00 0.  1.
     999901    1    3    3    0    0  0.81665701647E-01 -0.11409569107E+00 -0.29255433165E-01  0.89159575701E+00  0.88000000000E+00 0. -1.
        -11    1    4    4    0    0 -0.58950296205E-01  0.68713114555E-01  0.15946172001E-01  0.91930251044E-01  0.51100000000E-03 0. -1.
         11    1    4    4    0    0 -0.24882399909E-01  0.21471897004E-01  0.15411210014E-01  0.36303480567E-01  0.51100000000E-03 0.  1.
</event>
<event>
 8    1  0.1106168E+005  0.1043930E+01  0.7957747E-01            NaN
         13   -1    0    0    0    0  0.00000000000E+00  0.00000000000E+00  0.74505805969E-08  0.10566000000E+00  0.10566000000E+00 0. -1.
     999900   -1    0    0    0    0 -0.00000000000E+00 -0.00000000000E+00 -0.74505805969E-08  0.93827000000E+00  0.93827000000E+00 0. -1.
     999902    2    1    2    0    0 -0.22481433462E-01  0.56428851057E-02 -0.37511001733E-02  0.10204496304E+01  0.10201794550E+01 0.  0.
     999903    2    3    3    0    0  0.65742122941E-01 -0.44549917087E-01 -0.10015158352E+00  0.12938522956E+00  0.20086714669E-01 0.  0.
         14    1    1    2    0    0  0.22481433462E-01 -0.56428851057E-02  0.37511001733E-02  0.23480369574E-01  0.00000000000E+00 0. -1.
     999901    1    3    3    0    0 -0.88223556403E-01  0.50192802193E-01  0.96400483347E-01  0.89106440086E+00  0.88000000000E+00 0.  1.
        -11    1    4    4    0    0  0.62949701667E-01 -0.45916598474E-01 -0.99099941110E-01  0.12606370772E+00  0.51100000000E-03 0.  1.
         11    1    4    4    0    0  0.27924212737E-02  0.13666813870E-02 -0.10516424094E-02  0.33215218411E-02  0.51100000000E-03 0. -1.
</event>
<event>
 8    1  0.1106168E+005  0.1043930E+01  0.7957747E-01            NaN
         13   -1    0    0    0    0  0.00000000000E+00  0.00000000000E+00  0.74505805969E-08  0.10566000000E+00  0.10566000000E+00 0.  1.
     999900   -1    0    0    0    0 -0.00000000000E+00 -0.00000000000E+00 -0.74505805969E-08  0.93827000000E+00  0.93827000000E+00 0.  1.
     999902    2    1    2    0    0  0.11015165051E-01 -0.15061283419E-01  0.15344255636E-01  0.10197717240E+01  0.10194855304E+01 0.  0.
     999903    2    3    3    0    0  0.21254362282E-01  0.11944428429E+00  0.39466423211E-01  0.12916604924E+00  0.20188728282E-01 0.  0.
         14    1    1    2    0    0 -0.11015165051E-01  0.15061283419E-01 -0.15344255636E-01  0.24158276022E-01  0.00000000000E+00 0. -1.
     999901    1    3    3    0    0 -0.10239197230E-01 -0.13450556771E+00 -0.24122167575E-01  0.89060567474E+00  0.88000000000E+00 0. -1.
        -11    1    4    4    0    0  0.10107673424E-01  0.31612777869E-01  0.19172729110E-01  0.38332589909E-01  0.51100000000E-03 0.  1.
         11    1    4    4    0    0  0.11146688857E-01  0.87831506423E-01  0.20293694102E-01  0.90833459332E-01  0.51100000000E-03 0. -1.
</event>
<event>
 8    1  0.1106168E+005  0.1043930E+01  0.7957747E-01            NaN
         13   -1    0    0    0    0  0.00000000000E+00  0.00000000000E+00  0.74505805969E-08  0.10566000000E+00  0.10566000000E+00 0. -1.
     999900   -1    0    0    0    0 -0.00000000000E+00 -0.00000000000E+00 -0.74505805969E-08  0.93827000000E+00  0.93827000000E+00 0. -1.
     999902    2    1    2    0    0 -0.14960621115E-01 -0.68695624411E-02  0.16709194154E-01  0.10204734819E+01  0.10202038615E+01 0.  0.
     999903    2    3    3    0    0 -0.11327675568E+00 -0.49694962486E-01  0.45879680489E-01  0.13348363163E+00  0.20290937816E-01 0.  0.
         14    1    1    2    0    0  0.14960621115E-01  0.68695624411E-02 -0.16709194154E-01  0.23456518104E-01  0.00000000000E+00 0.  1.
     999901    1    3    3    0    0  0.98316134564E-01  0.42825400045E-01 -0.29170486335E-01  0.88698985027E+00  0.88000000000E+00 0.  1.
        -11    1    4    4    0    0 -0.38622469315E-01 -0.21615155064E-01  0.72242829558E-02  0.44848204531E-01  0.51100000000E-03 0. -1.
         11    1    4    4    0    0 -0.74654286364E-01 -0.28079807422E-01  0.38655397533E-01  0.88635427098E-01  0.51100000000E-03 0.  1.
</event>
<event>
 8    1  0.1106168E+005  0.1043930E+01  0.7957747E-01            NaN
         13   -1    0    0    0    0  0.00000000000E+00  0.00000000000E+00  0.74505805969E-08  0.10566000000E+00  0.10566000000E+00 0. -1.
     999900   -1    0    0    0    0 -0.00000000000E+00 -0.00000000000E+00 -0.74505805969E-08  0.93827000000E+00  0.93827000000E+00 0.  1.
     999902    2    1    2    0    0  0.17007314170E-01  0.40946328563E-02 -0.16043434825E-01  0.10201938134E+01  0.10199176488E+01 0.  0.
     999903    2    3    3    0    0  0.37229820518E-01 -0.94844154209E-01 -0.82610302027E-01  0.13192078039E+00  0.14041266870E-01 0.  0.
         14    1    1    2    0    0 -0.17007314170E-01 -0.40946328563E-02  0.16043434825E-01  0.23736186604E-01  0.00000000000E+00 0. -1.
     999901    1    3    3    0    0 -0.20222506348E-01  0.98938787066E-01  0.66566867203E-01  0.88827303300E+00  0.88000000000E+00 0. -1.
        -11    1    4    4    0    0  0.29749440558E-01 -0.71695410944E-01 -0.55092075721E-01  0.95187494411E-01  0.51100000000E-03 0. -1.
         11    1    4    4    0    0  0.74803799601E-02 -0.23148743265E-01 -0.27518226306E-01  0.36733285984E-01  0.51100000000E-03 0.  1.
</event>
<event>
 8    1  0.1106168E+005  0.1043930E+01  0.7957747E-01            NaN
         13   -1    0    0    0    0  0.00000000000E+00  0.00000000000E+00  0.74505805969E-08  0.10566000000E+00  0.10566000000E+00 0.  1.
     999900   -1    0    0    0    0 -0.00000000000E+00 -0.00000000000E+00 -0.74505805969E-08  0.93827000000E+00  0.93827000000E+00 0. -1.
     999902    2    1    2    0    0  0.16119703341E-01 -0.76716256591E-02 -0.15379580842E-01  0.10203666772E+01  0.10200945670E+01 0.  0.
     999903    2    3    3    0    0 -0.43074145941E-01  0.11176245746E+00 -0.46384857533E-01  0.12978835990E+00  0.18634226847E-01 0.  0.
         14    1    1    2    0    0 -0.16119703341E-01  0.76716256591E-02  0.15379580842E-01  0.23563322833E-01  0.00000000000E+00 0.  1.
     999901    1    3    3    0    0  0.59193849282E-01 -0.11943408312E+00  0.31005276691E-01  0.89057831727E+00  0.88000000000E+00 0.  1.
        -11    1    4    4    0    0 -0.17227744555E-01  0.25304953228E-01 -0.74673991146E-02  0.31514425440E-01  0.51100000000E-03 0.  1.
         11    1    4    4    0    0 -0.25846401387E-01  0.86457504236E-01 -0.38917458418E-01  0.98273934459E-01  0.51100000000E-03 0. -1.
</event>
<event>
 8    1  0.1106168E+005  0.1043930E+01  0.7957747E-01            NaN
         13   -1    0    0    0    0  0.00000000000E+00  0.00000000000E+00  0.74505805969E-08  0.10566000000E+00  0.10566000000E+00 0.  1.
     999900   -1    0    0    0    0 -0.00000000000E+00 -0.00000000000E+00 -0.74505805969E-08  0.93827000000E+00  0.93827000000E+00 0.  1.
     999902    2    1    2    0    0  0.16296288845E-01 -0.27631655441E-02  0.12412095550E-01  0.10232596292E+01  0.10230508318E+01 0.  0.
     999903    2    3    3    0    0  0.13355127554E+00 -0.20968018151E-02  0.13254456949E-01  0.13548156822E+00  0.18418331172E-01 0.  0.
         14    1    1    2    0    0 -0.16296288845E-01  0.27631655441E-02 -0.12412095550E-01  0.20670370821E-01  0.00000000000E+00 0. -1.
     999901    1    3    3    0    0 -0.11725498669E+00 -0.66636372896E-03 -0.84236139902E-03  0.88777806096E+00  0.88000000000E+00 0. -1.
        -11    1    4    4    0    0  0.27220356605E-01 -0.58354966101E-02  0.79291340359E-02  0.28950528872E-01  0.51100000000E-03 0. -1.
         11    1    4    4    0    0  0.10633091893E+00  0.37386947950E-02  0.53253229134E-02  0.10653103935E+00  0.51100000000E-03 0.  1.
</event>
<event>
 8    1  0.1106168E+005  0.1043930E+01  0.7957747E-01            NaN
         13   -1    0    0    0    0  0.00000000000E+00  0.00000000000E+00  0.74505805969E-08  0.10566000000E+00  0.10566000000E+00 0.  1.
     999900   -1    0    0    0    0 -0.00000000000E+00 -0.00000000000E+00 -0.74505805969E-08  0.93827000000E+00  0.93827000000E+00 0. -1.
     999902    2    1    2    0    0 -0.61272607899E-03 -0.67324933863E-03 -0.23658631565E-01  0.10202538613E+01  0.10199791086E+01 0.  0.
     999903    2    3    3    0    0 -0.11896414445E+00 -0.13344419678E-01  0.44659790753E-01  0.12961643581E+00  0.21803264028E-01 0.  0.
         14    1    1    2    0    0  0.61272607899E-03  0.67324933863E-03  0.23658631565E-01  0.23676138736E-01  0.00000000000E+00 0.  1.
     999901    1    3    3    0    0  0.11835141837E+00  0.12671170339E-01 -0.68318422317E-01  0.89063742545E+00  0.88000000000E+00 0. -1.
        -11    1    4    4    0    0 -0.53476232411E-01  0.37882327746E-02  0.14716686661E-01  0.55595864304E-01  0.51100000000E-03 0.  1.
         11    1    4    4    0    0 -0.65487912036E-01 -0.17132652452E-01  0.29943104092E-01  0.74020571509E-01  0.51100000000E-03 0. -1.
</event>
<event>
 8    1  0.1106168E+005  0.1043930E+01  0.7957747E-01            NaN
         13   -1    0    0    0    0  0.00000000000E+00  0.00000000000E+00  0.74505805969E-08  0.10566000000E+00  0.10566000000E+00 0.  1.
     999900   -1    0    0    0    0 -0.00000000000E+00 -0.00000000000E+00 -0.74505805969E-08  0.93827000000E+00  0.93827000000E+00 0. -1.
     999902    2    1    2    0    0  0.85516485930E-02  0.16744407845E-02  0.37002108907E-01  0.10059156539E+01  0.10051971012E+01 0.  0.
     999903    2    3    3    0    0  0.18484669180E-01  0.77754412596E-01 -0.80119436062E-01  0.11484647404E+00  0.19574393768E-01 0.  0.
         14    1    1    2    0    0 -0.85516485930E-02 -0.16744407845E-02 -0.37002108907E-01  0.38014346097E-01  0.00000000000E+00 0. -1.
     999901    1    3    3    0    0 -0.99330205875E-02 -0.76079971811E-01  0.11712154497E+00  0.89106917986E+00  0.88000000000E+00 0. -1.
        -11    1    4    4    0    0  0.13744612427E-01  0.53804155636E-01 -0.42220350132E-01  0.69761168430E-01  0.51100000000E-03 0. -1.
         11    1    4    4    0    0  0.47400567535E-02  0.23950256959E-01 -0.37899085930E-01  0.45085305608E-01  0.51100000000E-03 0.  1.
</event>
<event>
 8    1  0.1106168E+005  0.1043930E+01  0.7957747E-01            NaN
         13   -1    0    0    0    0  0.00000000000E+00  0.00000000000E+00  0.74505805969E-08  0.10566000000E+00  0.10566000000E+00 0. -1.
     999900   -1    0    0    0    0 -0.00000000000E+00 -0.00000000000E+00 -0.74505805969E-08  0.93827000000E+00  0.93827000000E+00 0. -1.
     999902    2    1    2    0    0 -0.30537399996E-04 -0.82034786852E-02  0.21819350599E-01  0.10206194433E+01  0.10203532064E+01 0.  0.
     999903    2    3    3    0    0 -0.37795245285E-01 -0.68056642094E-01  0.10691294565E+00  0.13368681095E+00  0.19534543161E-01 0.  0.
         14    1    1    2    0    0  0.30537399996E-04  0.82034786852E-02 -0.21819350599E-01  0.23310556742E-01  0.00000000000E+00 0.  1.
     999901    1    3    3    0    0  0.37764707885E-01  0.59853163408E-01 -0.85093595047E-01  0.88693263231E+00  0.88000000000E+00 0. -1.
        -11    1    4    4    0    0 -0.11439923653E-01 -0.25745671427E-01  0.24348349704E-01  0.37239961127E-01  0.51100000000E-03 0.  1.
         11    1    4    4    0    0 -0.26355321632E-01 -0.42310970667E-01  0.82564595942E-01  0.96446849825E-01  0.51100000000E-03 0. -1.
</event>
<event>
 8    1  0.1106168E+005  0.1043930E+01  0.7957747E-01            NaN
         13   -1    0    0    0    0  0.00000000000E+00  0.00000000000E+00  0.74505805969E-08  0.10566000000E+00  0.10566000000E+00 0.  1.
     999900   -1    0    0    0    0 -0.00000000000E+00 -0.00000000000E+00 -0.74505805969E-08  0.93827000000E+00  0.93827000000E+00 0. -1.
     999902    2    1    2    0    0  0.20813389464E-02  0.13329097743E-01  0.19455577987E-01  0.10202547739E+01  0.10199800426E+01 0.  0.
     999903    2    3    3    0    0 -0.45673504617E-01 -0.10376541387E+00  0.60933142949E-01  0.13024801088E+00  0.19959115423E-01 0.  0.
         14    1    1    2    0    0 -0.20813389464E-02 -0.13329097743E-01 -0.19455577987E-01  0.23675226150E-01  0.00000000000E+00 0. -1.
     999901    1    3    3    0    0  0.47754843564E-01  0.11709451162E+00 -0.41477564963E-01  0.89000676297E+00  0.88000000000E+00 0.  1.
        -11    1    4    4    0    0 -0.19735124945E-02 -0.23781286992E-01  0.14906684360E-01  0.28140979410E-01  0.51100000000E-03 0.  1.
         11    1    4    4    0    0 -0.43699992123E-01 -0.79984126883E-01  0.46026458589E-01  0.10210703147E+00  0.51100000000E-03 0. -1.
</event>
<event>
 8    1  0.1106168E+005  0.1043930E+01  0.7957747E-01            NaN
         13   -1    0    0    0    0  0.00000000000E+00  0.00000000000E+00  0.74505805969E-08  0.10566000000E+00  0.10566000000E+00 0.  1.
     999900   -1    0    0    0    0 -0.00000000000E+00 -0.00000000000E+00 -0.74505805969E-08  0.93827000000E+00  0.93827000000E+00 0.  1.
     999902    2    1    2    0    0  0.21725025358E-01  0.59745523490E-02  0.22008754938E-02  0.10212911870E+01  0.10210402405E+01 0.  0.
     999903    2    3    3    0    0  0.10780890158E+00 -0.35115744176E-01 -0.67202520996E-01  0.13341975615E+00  0.20706949416E-01 0.  0.
         14    1    1    2    0    0 -0.21725025358E-01 -0.59745523490E-02 -0.22008754938E-02  0.22638813033E-01  0.00000000000E+00 0. -1.
     999901    1    3    3    0    0 -0.86083876224E-01  0.41090296525E-01  0.69403396489E-01  0.88787143082E+00  0.88000000000E+00 0. -1.
        -11    1    4    4    0    0  0.60691877172E-01 -0.15094161943E-01 -0.26122163310E-01  0.67778803592E-01  0.51100000000E-03 0.  1.
         11    1    4    4    0    0  0.47117024410E-01 -0.20021582233E-01 -0.41080357685E-01  0.65640952560E-01  0.51100000000E-03 0. -1.
</event>
<event>
 8    1  0.1106168E+005  0.1043930E+01  0.7957747E-01            NaN
         13   -1    0    0    0    0  0.00000000000E+00  0.00000000000E+00  0.74505805969E-08  0.10566000000E+00  0.10566000000E+00 0. -1.
     999900   -1    0    0    0    0 -0.00000000000E+00 -0.00000000000E+00 -0.74505805969E-08  0.93827000000E+00  0.93827000000E+00 0. -1.
     999902    2    1    2    0    0  0.16047628295E-01  0.17286163229E-01 -0.17086539024E-02  0.10202813782E+01  0.10200072713E+01 0.  0.
     999903    2    3    3    0    0 -0.81689409971E-01  0.71675271322E-01 -0.69350622914E-01  0.13062631042E+00  0.21052787323E-01 0.  0.
         14    1    1    2    0    0 -0.16047628295E-01 -0.17286163229E-01  0.17086539024E-02  0.23648621762E-01  0.00000000000E+00 0.  1.
     999901    1    3    3    0    0  0.97737038266E-01 -0.54389108093E-01  0.67641969012E-01  0.88965506782E+00  0.88000000000E+00 0.  1.
        -11    1    4    4    0    0 -0.39916092196E-01  0.46531111894E-01 -0.31677574963E-01  0.69008468080E-01  0.51100000000E-03 0.  1.
         11    1    4    4    0    0 -0.41773317775E-01  0.25144159429E-01 -0.37673047951E-01  0.61617842337E-01  0.51100000000E-03 0. -1.
</event>
<event>
 8    1  0.1106168E+005  0.1043930E+01  0.7957747E-01            NaN
         13   -1    0    0    0    0  0.00000000000E+00  0.00000000000E+00  0.74505805969E-08  0.10566000000E+00  0.10566000000E+00 0.  1.
     999900   -1    0    0    0    0 -0.00000000000E+00 -0.00000000000E+00 -0.74505805969E-08  0.93827000000E+00  0.93827000000E+00 0.  1.
     999902    2    1    2    0    0  0.22926924544E-01  0.10510214536E-01 -0.87857337520E-02  0.10172223682E+01  0.10168716973E+01 0.  0.
     999903    2    3    3    0    0  0.10653788507E+00  0.61839070317E-01 -0.40773985286E-01  0.13119263259E+00  0.19354518743E-01 0.  0.
         14    1    1    2    0    0 -0.22926924544E-01 -0.10510214536E-01  0.87857337520E-02  0.26707631797E-01  0.00000000000E+00 0.  1.
     999901    1    3    3    0    0 -0.83610960530E-01 -0.51328855782E-01  0.31988251534E-01  0.88602973561E+00  0.88000000000E+00 0. -1.
        -11    1    4    4    0    0  0.23524620431E-01  0.22652932522E-01 -0.14276977511E-01  0.35646266650E-01  0.51100000000E-03 0. -1.
         11    1    4    4    0    0  0.83013264643E-01  0.39186137795E-01 -0.26497007775E-01  0.95546365939E-01  0.51100000000E-03 0.  1.
</event>
<event>
 8    1  0.1106168E+005  0.1043930E+01  0.7957747E-01            NaN
         13   -1    0    0    0    0  0.00000000000E+00  0.00000000000E+00  0.74505805969E-08  0.10566000000E+00  0.10566000000E+00 0. -1.
     999900   -1    0    0    0    0 -0.00000000000E+00 -0.00000000000E+00 -0.74505805969E-08  0.93827000000E+00  0.93827000000E+00 0. -1.
     999902    2    1    2    0    0 -0.17560041026E-01  0.29566572221E-02 -0.15492718978E-01  0.10203265849E+01  0.10200535372E+01 0.  0.
     999903    2    3    3    0    0  0.60358637319E-01 -0.97451608248E-01  0.54426905946E-01  0.12845109239E+00  0.19935245043E-01 0.  0.
         14    1    1    2    0    0  0.17560041026E-01 -0.29566572221E-02  0.15492718978E-01  0.23603415094E-01  0.00000000000E+00 0. -1.
     999901    1    3    3    0    0 -0.77918678345E-01  0.10040826547E+00 -0.69919624924E-01  0.89187549252E+00  0.88000000000E+00 0. -1.
        -11    1    4    4    0    0  0.15802414195E-01 -0.42757609928E-01  0.25203519908E-01  0.52090383353E-01  0.51100000000E-03 0.  1.
         11    1    4    4    0    0  0.44556223124E-01 -0.54693998320E-01  0.29223386039E-01  0.76360709032E-01  0.51100000000E-03 0. -1.
</event>
<event>
 8    1  0.1106168E+005  0.1043930E+01  0.7957747E-01            NaN
         13   -1    0    0    0    0  0.00000000000E+00  0.00000000000E+00  0.74505805969E-08  0.10566000000E+00  0.10566000000E+00 0.  1.
     999900   -1    0    0    0    0 -0.00000000000E+00 -0.00000000000E+00 -0.74505805969E-08  0.93827000000E+00  0.93827000000E+00 0.  1.
     999902    2    1    2    0    0  0.17190166925E-01  0.54085148663E-03 -0.18189200834E-01  0.10188971938E+01  0.10185896378E+01 0.  0.
     999903    2    3    3    0    0  0.10017215913E+00  0.45915051752E-02 -0.84286732475E-01  0.13251617950E+00  0.20018520740E-01 0.  0.
         14    1    1    2    0    0 -0.17190166925E-01 -0.54085148663E-03  0.18189200834E-01  0.25032806200E-01  0.00000000000E+00 0.  1.
     999901    1    3    3    0    0 -0.82981992207E-01 -0.40506536886E-02  0.66097531640E-01  0.88638101430E+00  0.88000000000E+00 0. -1.
        -11    1    4    4    0    0  0.46369287604E-01  0.49777102365E-02 -0.51624903240E-01  0.69572122202E-01  0.51100000000E-03 0.  1.
         11    1    4    4    0    0  0.53802871528E-01 -0.38620506128E-03 -0.32661829235E-01  0.62944057297E-01  0.51100000000E-03 0. -1.
</event>
<event>
 8    1  0.1106168E+005  0.1043930E+01  0.7957747E-01            NaN
         13   -1    0    0    0    0  0.00000000000E+00  0.00000000000E+00  0.74505805969E-08  0.10566000000E+00  0.10566000000E+00 0. -1.
     999900   -1    0    0    0    0 -0.00000000000E+00 -0.00000000000E+00 -0.74505805969E-08  0.93827000000E+00  0.93827000000E+00 0.  1.
     999902    2    1    2    0    0  0.59706086265E-02 -0.22198340348E-01 -0.20355747696E-02  0.10208527808E+01  0.10205919077E+01 0.  0.
     999903    2    3    3    0    0 -0.98395296191E-02 -0.74772805362E-01  0.10730774574E+00  0.13238781436E+00  0.17994230471E-01 0.  0.
         14    1    1    2    0    0 -0.59706086265E-02  0.22198340348E-01  0.20355747696E-02  0.23077219205E-01  0.00000000000E+00 0.  1.
     999901    1    3    3    0    0  0.15810138246E-01  0.52574465014E-01 -0.10934332051E+00  0.88846496644E+00  0.88000000000E+00 0.  1.
        -11    1    4    4    0    0  0.12688296812E-02 -0.29631688432E-01  0.54355845064E-01  0.61923064376E-01  0.51100000000E-03 0. -1.
         11    1    4    4    0    0 -0.11108359300E-01 -0.45141116930E-01  0.52951900676E-01  0.70464749984E-01  0.51100000000E-03 0.  1.
</event>
<event>
 8    1  0.1106168E+005  0.1043930E+01  0.7957747E-01            NaN
         13   -1    0    0    0    0  0.00000000000E+00  0.00000000000E+00  0.74505805969E-08  0.10566000000E+00  0.10566000000E+00 0. -1.
     999900   -1    0    0    0    0 -0.00000000000E+00 -0.00000000000E+00 -0.74505805969E-08  0.93827000000E+00  0.93827000000E+00 0. -1.
     999902    2    1    2    0    0 -0.76305946925E-02  0.20463251326E-01 -0.11236563581E-01  0.10193692388E+01  0.10190733114E+01 0.  0.
     999903    2    3    3    0    0  0.10433513124E+00 -0.70324362630E-01 -0.21633006280E-02  0.12759514254E+00  0.21083285818E-01 0.  0.
         14    1    1    2    0    0  0.76305946925E-02 -0.20463251326E-01  0.11236563581E-01  0.24560761212E-01  0.00000000000E+00 0. -1.
     999901    1    3    3    0    0 -0.11196572593E+00  0.90787613956E-01 -0.90732629526E-02  0.89177409624E+00  0.88000000000E+00 0. -1.
        -11    1    4    4    0    0  0.77770749648E-01 -0.54907437776E-01 -0.10464147936E-01  0.95775131099E-01  0.51100000000E-03 0.  1.
         11    1    4    4    0    0  0.26564381593E-01 -0.15416924854E-01  0.83008473078E-02  0.31820011445E-01  0.51100000000E-03 0. -1.
</event>
<event>
 8    1  0.1106168E+005  0.1043930E+01  0.7957747E-01            NaN
         13   -1    0    0    0    0  0.00000000000E+00  0.00000000000E+00  0.74505805969E-08  0.10566000000E+00  0.10566000000E+00 0. -1.
     999900   -1    0    0    0    0 -0.00000000000E+00 -0.00000000000E+00 -0.74505805969E-08  0.93827000000E+00  0.93827000000E+00 0. -1.
     999902    2    1    2    0    0 -0.90991495770E-02 -0.10040319989E-01  0.19971938402E-01  0.10197953595E+01  0.10195097324E+01 0.  0.
     999903    2    3    3    0    0 -0.12668221440E+00 -0.24601832331E-01 -0.12992522504E-01  0.13124346430E+00  0.20060101715E-01 0.  0.
         14    1    1    2    0    0  0.90991495770E-02  0.10040319989E-01 -0.19971938402E-01  0.24134640500E-01  0.00000000000E+00 0.  1.
     999901    1    3    3    0    0  0.11758306483E+00  0.14561512342E-01  0.32964460906E-01  0.88855189520E+00  0.88000000000E+00 0.  1.
        -11    1    4    4    0    0 -0.36446770886E-01  0.54547174877E-03 -0.86544497559E-02  0.37467656305E-01  0.51100000000E-03 0.  1.
         11    1    4    4    0    0 -0.90235443518E-01 -0.25147304080E-01 -0.43380727483E-02  0.93775807998E-01  0.51100000000E-03 0. -1.
</event>
<event>
 8    1  0.1106168E+005  0.1043930E+01  0.7957747E-01            NaN
         13   -1    0    0    0    0  0.00000000000E+00  0.00000000000E+00  0.74505805969E-08  0.10566000000E+00  0.10566000000E+00 0.  1.
     999900   -1    0    0    0    0 -0.00000000000E+00 -0.00000000000E+00 -0.74505805969E-08  0.93827000000E+00  0.93827000000E+00 0.  1.
     999902    2    1    2    0    0 -0.73700719066E-02  0.14048714345E-01 -0.17617100602E-01  0.10202224787E+01  0.10199469885E+01 0.  0.
     999903    2    3    3    0    0 -0.82725097899E-01 -0.51566629007E-01 -0.86695988236E-01  0.13187815018E+00  0.19315617209E-01 0.  0.
         14    1    1    2    0    0  0.73700719066E-02 -0.14048714345E-01  0.17617100602E-01  0.23707521344E-01  0.00000000000E+00 0.  1.
     999901    1    3    3    0    0  0.75355025992E-01  0.65615343352E-01  0.69078887634E-01  0.88834432848E+00  0.88000000000E+00 0. -1.
        -11    1    4    4    0    0 -0.75621476897E-01 -0.39784900347E-01 -0.77150340566E-01  0.11512550644E+00  0.51100000000E-03 0. -1.
         11    1    4    4    0    0 -0.71036210016E-02 -0.11781728660E-01 -0.95456476700E-02  0.16752643731E-01  0.51100000000E-03 0.  1.
</event>
<event>
 8    1  0.1106168E+005  0.1043930E+01  0.7957747E-01            NaN
         13   -1    0    0    0    0  0.00000000000E+00  0.00000000000E+00  0.74505805969E-08  0.10566000000E+00  0.10566000000E+00 0.  1.
     999900   -1    0    0    0    0 -0.00000000000E+00 -0.00000000000E+00 -0.74505805969E-08  0.93827000000E+00  0.93827000000E+00 0.  1.
     999902    2    1    2    0    0  0.66272737626E-02 -0.11160224723E-01  0.19647721734E-01  0.10203820841E+01  0.10201103339E+01 0.  0.
     999903    2    3    3    0    0 -0.86786772729E-01 -0.71410913371E-01  0.66529172749E-01  0.13215114566E+00  0.20157678551E-01 0.  0.
         14    1    1    2    0    0 -0.66272737626E-02  0.11160224723E-01 -0.19647721734E-01  0.23547915889E-01  0.00000000000E+00 0. -1.
     999901    1    3    3    0    0  0.93414046491E-01  0.60250688648E-01 -0.46881451016E-01  0.88823093845E+00  0.88000000000E+00 0.  1.
        -11    1    4    4    0    0 -0.64191706757E-01 -0.41229906224E-01  0.48017858378E-01  0.90146859224E-01  0.51100000000E-03 0. -1.
         11    1    4    4    0    0 -0.22595065971E-01 -0.30181007147E-01  0.18511314371E-01  0.42004286440E-01  0.51100000000E-03 0.  1.
</event>
<event>
 8    1  0.1106168E+005  0.1043930E+01  0.7957747E-01            NaN
         13   -1    0    0    0    0  0.00000000000E+00  0.00000000000E+00  0.74505805969E-08  0.10566000000E+00  0.10566000000E+00 0.  1.
     999900   -1    0    0    0    0 -0.00000000000E+00 -0.00000000000E+00 -0.74505805969E-08  0.93827000000E+00  0.93827000000E+00 0.  1.
     999902    2    1    2    0    0 -0.12853004934E-01  0.19439625404E-01 -0.46356053635E-02  0.10201689477E+01  0.10198921973E+01 0.  0.
     999903    2    3    3    0    0  0.49745830158E-01  0.32443796534E-01 -0.11508340417E+00  0.13096343772E+00  0.19493192473E-01 0.  0.
         14    1    1    2    0    0  0.12853004934E-01 -0.19439625404E-01  0.46356053635E-02  0.23761052350E-01  0.00000000000E+00 0. -1.
     999901    1    3    3    0    0 -0.62598835092E-01 -0.13004171130E-01  0.11044779881E+00  0.88920550993E+00  0.88000000000E+00 0. -1.
        -11    1    4    4    0    0  0.15885103365E-01  0.13267357692E-01 -0.22730584613E-01  0.30745729572E-01  0.51100000000E-03 0. -1.
         11    1    4    4    0    0  0.33860726792E-01  0.19176438842E-01 -0.92352819560E-01  0.10021770815E+00  0.51100000000E-03 0.  1.
</event>
<event>
 8    1  0.1106168E+005  0.1043930E+01  0.7957747E-01            NaN
         13   -1    0    0    0    0  0.00000000000E+00  0.00000000000E+00  0.74505805969E-08  0.10566000000E+00  0.10566000000E+00 0. -1.
     999900   -1    0    0    0    0 -0.00000000000E+00 -0.00000000000E+00 -0.74505805969E-08  0.93827000000E+00  0.93827000000E+00 0.  1.
     999902    2    1    2    0    0 -0.78761206267E-02 -0.20720415385E-01  0.90504538615E-02  0.10199867420E+01  0.10197056802E+01 0.  0.
     999903    2    3    3    0    0 -0.77658204681E-01 -0.13617645744E-01  0.10461611348E+00  0.13203810388E+00  0.16531565130E-01 0.  0.
         14    1    1    2    0    0  0.78761206267E-02  0.20720415385E-01 -0.90504538615E-02  0.23943258027E-01  0.00000000000E+00 0. -1.
     999901    1    3    3    0    0  0.69782084055E-01 -0.71027696414E-02 -0.95565659623E-01  0.88794863809E+00  0.88000000000E+00 0.  1.
        -11    1    4    4    0    0 -0.52162598953E-01 -0.15647313689E-02  0.63837151897E-01  0.82455007108E-01  0.51100000000E-03 0. -1.
         11    1    4    4    0    0 -0.25495605728E-01 -0.12052914375E-01  0.40778961588E-01  0.49583096772E-01  0.51100000000E-03 0.  1.
</event>
<event>
 8    1  0.1106168E+005  0.1043930E+01  0.7957747E-01            NaN
         13   -1    0    0    0    0  0.00000000000E+00  0.00000000000E+00  0.74505805969E-08  0.10566000000E+00  0.10566000000E+00 0.  1.
     999900   -1    0    0    0    0 -0.00000000000E+00 -0.00000000000E+00 -0.74505805969E-08  0.93827000000E+00  0.93827000000E+00 0. -1.
     999902    2    1    2    0    0 -0.11095143438E-01  0.78642697202E-02  0.18684648913E-01  0.10208201525E+01  0.10205585327E+01 0.  0.
     999903    2    3    3    0    0 -0.13072593816E+00 -0.31872987022E-02 -0.43358936626E-02  0.13235878048E+00  0.20015419412E-01 0.  0.
         14    1    1    2    0    0  0.11095143438E-01 -0.78642697202E-02 -0.18684648913E-01  0.23109847493E-01  0.00000000000E+00 0. -1.
     999901    1    3    3    0    0  0.11963079472E+00  0.11051568422E-01  0.23020542576E-01  0.88846137203E+00  0.88000000000E+00 0.  1.
        -11    1    4    4    0    0 -0.25222276711E-01  0.49347829384E-02  0.47932408112E-02  0.26148644393E-01  0.51100000000E-03 0. -1.
         11    1    4    4    0    0 -0.10550366145E+00 -0.81220816407E-02 -0.91291344738E-02  0.10621013608E+00  0.51100000000E-03 0.  1.
</event>
<event>
 8    1  0.1106168E+005  0.1043930E+01  0.7957747E-01            NaN
         13   -1    0    0    0    0  0.00000000000E+00  0.00000000000E+00  0.74505805969E-08  0.10566000000E+00  0.10566000000E+00 0.  1.
     999900   -1    0    0    0    0 -0.00000000000E+00 -0.00000000000E+00 -0.74505805969E-08  0.93827000000E+00  0.93827000000E+00 0.  1.
     999902    2    1    2    0    0 -0.21688167582E-01  0.40974816044E-02 -0.82077292858E-02  0.10203814801E+01  0.10201097158E+01 0.  0.
     999903    2    3    3    0    0 -0.11768193165E+00  0.77380742795E-02  0.57349910850E-01  0.13272959969E+00  0.20474851102E-01 0.  0.
         14    1    1    2    0    0  0.21688167582E-01 -0.40974816044E-02  0.82077292858E-02  0.23548519881E-01  0.00000000000E+00 0.  1.
     999901    1    3    3    0    0  0.95993764069E-01 -0.36405926751E-02 -0.65557640136E-01  0.88765188043E+00  0.88000000000E+00 0.  1.
        -11    1    4    4    0    0 -0.70217780193E-01  0.93369621345E-02  0.44018226392E-01  0.83400125257E-01  0.51100000000E-03 0. -1.
         11    1    4    4    0    0 -0.47464151458E-01 -0.15988878550E-02  0.13331684459E-01  0.49329474430E-01  0.51100000000E-03 0.  1.
</event>
<event>
 8    1  0.1106168E+005  0.1043930E+01  0.7957747E-01            NaN
         13   -1    0    0    0    0  0.00000000000E+00  0.00000000000E+00  0.74505805969E-08  0.10566000000E+00  0.10566000000E+00 0. -1.
     999900   -1    0    0    0    0 -0.00000000000E+00 -0.00000000000E+00 -0.74505805969E-08  0.93827000000E+00  0.93827000000E+00 0. -1.
     999902    2    1    2    0    0 -0.16160073425E-02 -0.14530836600E-01  0.18706397921E-01  0.10201879273E+01  0.10199116241E+01 0.  0.
     999903    2    3    3    0    0 -0.88121957420E-02  0.12344662778E+00 -0.26995068017E-01  0.12823602851E+00  0.19975500174E-01 0.  0.
         14    1    1    2    0    0  0.16160073425E-02  0.14530836600E-01 -0.18706397921E-01  0.23742072682E-01  0.00000000000E+00 0.  1.
     999901    1    3    3    0    0  0.71961883995E-02 -0.13797746438E+00  0.45701465938E-01  0.89195189881E+00  0.88000000000E+00 0.  1.
        -11    1    4    4    0    0 -0.41383655843E-02  0.52287054889E-01 -0.21570903438E-01  0.56715316933E-01  0.51100000000E-03 0. -1.
         11    1    4    4    0    0 -0.46738301576E-02  0.71159572887E-01 -0.54241645784E-02  0.71520711575E-01  0.51100000000E-03 0.  1.
</event>
<event>
 8    1  0.1106168E+005  0.1043930E+01  0.7957747E-01            NaN
         13   -1    0    0    0    0  0.00000000000E+00  0.00000000000E+00  0.74505805969E-08  0.10566000000E+00  0.10566000000E+00 0. -1.
     999900   -1    0    0    0    0 -0.00000000000E+00 -0.00000000000E+00 -0.74505805969E-08  0.93827000000E+00  0.93827000000E+00 0. -1.
     999902    2    1    2    0    0 -0.11982206539E-01 -0.18571726415E-01 -0.79757212953E-02  0.10204333103E+01  0.10201627549E+01 0.  0.
     999903    2    3    3    0    0 -0.95820562005E-01  0.35669157417E-02 -0.89195602460E-01  0.13244926856E+00  0.19815404458E-01 0.  0.
         14    1    1    2    0    0  0.11982206539E-01  0.18571726415E-01  0.79757212953E-02  0.23496689677E-01  0.00000000000E+00 0. -1.
     999901    1    3    3    0    0  0.83838355466E-01 -0.22138642157E-01  0.81219881165E-01  0.88798404176E+00  0.88000000000E+00 0.  1.
        -11    1    4    4    0    0 -0.50297270285E-01 -0.71388095443E-02 -0.51947889675E-01  0.72661009919E-01  0.51100000000E-03 0. -1.
         11    1    4    4    0    0 -0.45523291720E-01  0.10705725286E-01 -0.37247712785E-01  0.59788258644E-01  0.51100000000E-03 0.  1.
</event>
<event>
 8    1  0.1106168E+005  0.1043930E+01  0.7957747E-01            NaN
         13   -1    0    0    0    0  0.00000000000E+00  0.00000000000E+00  0.74505805969E-08  0.10566000000E+00  0.10566000000E+00 0. -1.
     999900   -1    0    0    0    0 -0.00000000000E+00 -0.00000000000E+00 -0.74505805969E-08  0.93827000000E+00  0.93827000000E+00 0.  1.
     999902    2    1    2    0    0 -0.35274389399E-02 -0.60849057572E-02  0.22592487012E-01  0.10202680184E+01  0.10199935980E+01 0.  0.
     999903    2    3    3    0    0  0.11449456149E+00  0.57851331297E-01  0.21613124172E-02  0.12985549160E+00  0.20049844977E-01 0.  0.
         14    1    1    2    0    0  0.35274389399E-02  0.60849057572E-02 -0.22592487012E-01  0.23661981594E-01  0.00000000000E+00 0.  1.
     999901    1    3    3    0    0 -0.11802200043E+00 -0.63936237054E-01  0.20431174595E-01  0.89041252680E+00  0.88000000000E+00 0. -1.
        -11    1    4    4    0    0  0.86968410750E-01  0.52034272694E-01  0.56296538843E-02  0.10150381336E+00  0.51100000000E-03 0.  1.
         11    1    4    4    0    0  0.27526150742E-01  0.58170586031E-02 -0.34683414671E-02  0.28351678239E-01  0.51100000000E-03 0. -1.
</event>
<event>
 8    1  0.1106168E+005  0.1043930E+01  0.7957747E-01            NaN
         13   -1    0    0    0    0  0.00000000000E+00  0.00000000000E+00  0.74505805969E-08  0.10566000000E+00  0.10566000000E+00 0. -1.
     999900   -1    0    0    0    0 -0.00000000000E+00 -0.00000000000E+00 -0.74505805969E-08  0.93827000000E+00  0.93827000000E+00 0.  1.
     999902    2    1    2    0    0  0.18835347834E-01 -0.13779358809E-01  0.56104192604E-03  0.10205857111E+01  0.10203186942E+01 0.  0.
     999903    2    3    3    0    0  0.10227126409E+00  0.42906432447E-01 -0.68614093932E-01  0.13212635327E+00  0.21192119722E-01 0.  0.
         14    1    1    2    0    0 -0.18835347834E-01  0.13779358809E-01 -0.56104192604E-03  0.23344288921E-01  0.00000000000E+00 0. -1.
     999901    1    3    3    0    0 -0.83435916260E-01 -0.56685791256E-01  0.69175135858E-01  0.88845935781E+00  0.88000000000E+00 0. -1.
        -11    1    4    4    0    0  0.18139964019E-01  0.86251062778E-02 -0.36044471490E-02  0.20413326852E-01  0.51100000000E-03 0. -1.
         11    1    4    4    0    0  0.84131300075E-01  0.34281326169E-01 -0.65009646783E-01  0.11171302642E+00  0.51100000000E-03 0.  1.
</event>
<event>
 8    1  0.1106168E+005  0.1043930E+01  0.7957747E-01            NaN
         13   -1    0    0    0    0  0.00000000000E+00  0.00000000000E+00  0.74505805969E-08  0.10566000000E+00  0.10566000000E+00 0.  1.
     999900   -1    0    0    0    0 -0.00000000000E+00 -0.00000000000E+00 -0.74505805969E-08  0.93827000000E+00  0.93827000000E+00 0. -1.
     999902    2    1    2    0    0 -0.18124900287E-02 -0.10738753278E-03  0.23813961256E-01  0.10200469222E+01  0.10197672883E+01 0.  0.
     999903    2    3    3    0    0  0.11643212283E-01  0.84565965710E-02  0.13138485610E+00  0.13335312213E+00  0.17719942224E-01 0.  0.
         14    1    1    2    0    0  0.18124900287E-02  0.10738753278E-03 -0.23813961256E-01  0.23883077751E-01  0.00000000000E+00 0. -1.
     999901    1    3    3    0    0 -0.13455702312E-01 -0.85639841038E-02 -0.10757089484E+00  0.88669380012E+00  0.88000000000E+00 0. -1.
        -11    1    4    4    0    0  0.11892913359E-01  0.13218325920E-01  0.94705740032E-01  0.96361838112E-01  0.51100000000E-03 0.  1.
         11    1    4    4    0    0 -0.24970107562E-03 -0.47617293491E-02  0.36679116067E-01  0.36991284020E-01  0.51100000000E-03 0. -1.
</event>
<event>
 8    1  0.1106168E+005  0.1043930E+01  0.7957747E-01            NaN
         13   -1    0    0    0    0  0.00000000000E+00  0.00000000000E+00  0.74505805969E-08  0.10566000000E+00  0.10566000000E+00 0.  1.
     999900   -1    0    0    0    0 -0.00000000000E+00 -0.00000000000E+00 -0.74505805969E-08  0.93827000000E+00  0.93827000000E+00 0.  1.
     999902    2    1    2    0    0  0.54361659928E-02  0.61533174954E-02 -0.21497650230E-01  0.10209177384E+01  0.10206583486E+01 0.  0.
     999903    2    3    3    0    0  0.98951359696E-01 -0.24149202729E-01 -0.83981444846E-01  0.13324237054E+00  0.18057980215E-01 0.  0.
         14    1    1    2    0    0 -0.54361659928E-02 -0.61533174954E-02  0.21497650230E-01  0.23012261565E-01  0.00000000000E+00 0.  1.
     999901    1    3    3    0    0 -0.93515193704E-01  0.30302520225E-01  0.62483794616E-01  0.88767536790E+00  0.88000000000E+00 0.  1.
        -11    1    4    4    0    0  0.58288605091E-01 -0.16326293290E-01 -0.38537458158E-01  0.71760059492E-01  0.51100000000E-03 0.  1.
         11    1    4    4    0    0  0.40662754605E-01 -0.78229094394E-02 -0.45443986688E-01  0.61482311044E-01  0.51100000000E-03 0. -1.
</event>
<event>
 8    1  0.1106168E+005  0.1043930E+01  0.7957747E-01            NaN
         13   -1    0    0    0    0  0.00000000000E+00  0.00000000000E+00  0.74505805969E-08  0.10566000000E+00  0.10566000000E+00 0. -1.
     999900   -1    0    0    0    0 -0.00000000000E+00 -0.00000000000E+00 -0.74505805969E-08  0.93827000000E+00  0.93827000000E+00 0.  1.
     999902    2    1    2    0    0 -0.54599194317E-02 -0.22194341723E-01 -0.11895153214E-01  0.10181638556E+01  0.10178377782E+01 0.  0.
     999903    2    3    3    0    0 -0.58215257739E-01 -0.11620711248E+00 -0.25755407772E-02  0.13153632282E+00  0.20051473418E-01 0.  0.
         14    1    1    2    0    0  0.54599194317E-02  0.22194341723E-01  0.11895153214E-01  0.25766144351E-01  0.00000000000E+00 0.  1.
     999901    1    3    3    0    0  0.52755338307E-01  0.94012770762E-01 -0.93196124373E-02  0.88662753282E+00  0.88000000000E+00 0.  1.
        -11    1    4    4    0    0 -0.92048856315E-02 -0.36585986237E-01  0.31684905585E-02  0.37862445270E-01  0.51100000000E-03 0. -1.
         11    1    4    4    0    0 -0.49010372107E-01 -0.79621126248E-01 -0.57440313357E-02  0.93673877554E-01  0.51100000000E-03 0.  1.
</event>
<event>
 8    1  0.1106168E+005  0.1043930E+01  0.7957747E-01            NaN
         13   -1    0    0    0    0  0.00000000000E+00  0.00000000000E+00  0.74505805969E-08  0.10566000000E+00  0.10566000000E+00 0. -1.
     999900   -1    0    0    0    0 -0.00000000000E+00 -0.00000000000E+00 -0.74505805969E-08  0.93827000000E+00  0.93827000000E+00 0.  1.
     999902    2    1    2    0    0  0.50287755107E-03 -0.21204891049E-01  0.10039781823E-01  0.10204630550E+01  0.10201931920E+01 0.  0.
     999903    2    3    3    0    0 -0.26464143290E-01 -0.12754150947E+00  0.23020230500E-01  0.13355652738E+00  0.18445256161E-01 0.  0.
         14    1    1    2    0    0 -0.50287755107E-03  0.21204891049E-01 -0.10039781823E-01  0.23466945035E-01  0.00000000000E+00 0.  1.
     999901    1    3    3    0    0  0.26967020841E-01  0.10633661842E+00 -0.12980448678E-01  0.88690652759E+00  0.88000000000E+00 0.  1.
        -11    1    4    4    0    0 -0.31376081594E-02 -0.28669054479E-01 -0.20600726452E-02  0.28918234558E-01  0.51100000000E-03 0.  1.
         11    1    4    4    0    0 -0.23326535131E-01 -0.98872454991E-01  0.25080303146E-01  0.10463829282E+00  0.51100000000E-03 0. -1.
</event>
<event>
 7    1  0.1106168E+005  0.1043930E+01  0.7957747E-01            NaN
         13   -1    0    0    0    0  0.00000000000E+00  0.00000000000E+00  0.74505805969E-08  0.10566000000E+00  0.10566000000E+00 0.  1.
     999900   -1    0    0    0    0 -0.00000000000E+00 -0.00000000000E+00 -0.74505805969E-08  0.93827000000E+00  0.93827000000E+00 0. -1.
     999903    2    1    2    0    0 -0.58207143687E-01  0.71908930956E-01 -0.60381141183E-01  0.11214362143E+00  0.19270279947E-01 0.  0.
         14    1    1    2    0    0  0.18143283749E-01 -0.35797058086E-01 -0.22906916878E-01  0.46209684630E-01  0.00000000000E+00 0.  1.
     999901    1    1    2    0    0  0.40063859938E-01 -0.36111872870E-01  0.83288058061E-01  0.88557669394E+00  0.88000000000E+00 0.  1.
        -11    1    3    3    0    0 -0.55448387662E-01  0.59121161369E-01 -0.55183209974E-01  0.98057550448E-01  0.51100000000E-03 0.  1.
         11    1    3    3    0    0 -0.27587560249E-02  0.12787769587E-01 -0.51979312095E-02  0.14086070981E-01  0.51100000000E-03 0. -1.
</event>
<event>
 8    1  0.1106168E+005  0.1043930E+01  0.7957747E-01            NaN
         13   -1    0    0    0    0  0.00000000000E+00  0.00000000000E+00  0.74505805969E-08  0.10566000000E+00  0.10566000000E+00 0.  1.
     999900   -1    0    0    0    0 -0.00000000000E+00 -0.00000000000E+00 -0.74505805969E-08  0.93827000000E+00  0.93827000000E+00 0.  1.
     999902    2    1    2    0    0  0.11068352598E-01 -0.18448264902E-01  0.11028253216E-01  0.10197542006E+01  0.10194675867E+01 0.  0.
     999903    2    3    3    0    0 -0.66794812122E-02 -0.50177117314E-01 -0.11768674912E+00  0.12964788252E+00  0.19900853072E-01 0.  0.
         14    1    1    2    0    0 -0.11068352598E-01  0.18448264902E-01 -0.11028253216E-01  0.24175799389E-01  0.00000000000E+00 0.  1.
     999901    1    3    3    0    0  0.17747833810E-01  0.31728852412E-01  0.12871500233E+00  0.89010631809E+00  0.88000000000E+00 0. -1.
        -11    1    4    4    0    0  0.10593993618E-02 -0.15461415391E-01 -0.17749298014E-01  0.23568546707E-01  0.51100000000E-03 0.  1.
         11    1    4    4    0    0 -0.77388805740E-02 -0.34715701923E-01 -0.99937451102E-01  0.10607933581E+00  0.51100000000E-03 0. -1.
</event>
<event>
 8    1  0.1106168E+005  0.1043930E+01  0.7957747E-01            NaN
         13   -1    0    0    0    0  0.00000000000E+00  0.00000000000E+00  0.74505805969E-08  0.10566000000E+00  0.10566000000E+00 0.  1.
     999900   -1    0    0    0    0 -0.00000000000E+00 -0.00000000000E+00 -0.74505805969E-08  0.93827000000E+00  0.93827000000E+00 0.  1.
     999902    2    1    2    0    0 -0.21084690582E-01 -0.13959483187E-03 -0.97319407211E-02  0.10207072884E+01  0.10204430774E+01 0.  0.
     999903    2    3    3    0    0  0.53723009931E-01  0.53281967185E-01  0.10236867253E+00  0.12884597473E+00  0.19920097011E-01 0.  0.
         14    1    1    2    0    0  0.21084690582E-01  0.13959483187E-03  0.97319407211E-02  0.23222711596E-01  0.00000000000E+00 0.  1.
     999901    1    3    3    0    0 -0.74807700513E-01 -0.53421562017E-01 -0.11210061325E+00  0.89186131368E+00  0.88000000000E+00 0.  1.
        -11    1    4    4    0    0  0.14547757828E-01  0.28137520162E-01  0.42448864483E-01  0.52967202263E-01  0.51100000000E-03 0.  1.
         11    1    4    4    0    0  0.39175252102E-01  0.25144447023E-01  0.59919808045E-01  0.75878772463E-01  0.51100000000E-03 0. -1.
</event>
<event>
 8    1  0.1106168E+005  0.1043930E+01  0.7957747E-01            NaN
         13   -1    0    0    0    0  0.00000000000E+00  0.00000000000E+00  0.74505805969E-08  0.10566000000E+00  0.10566000000E+00 0. -1.
     999900   -1    0    0    0    0 -0.00000000000E+00 -0.00000000000E+00 -0.74505805969E-08  0.93827000000E+00  0.93827000000E+00 0. -1.
     999902    2    1    2    0    0 -0.10473998371E-01  0.15027373143E-01 -0.13960250839E-01  0.10208992556E+01  0.10206394441E+01 0.  0.
     999903    2    3    3    0    0  0.72858721363E-01 -0.97804976558E-01 -0.38370074264E-01  0.12945586376E+00  0.20306436065E-01 0.  0.
         14    1    1    2    0    0  0.10473998371E-01 -0.15027373143E-01  0.13960250839E-01  0.23030744429E-01  0.00000000000E+00 0. -1.
     999901    1    3    3    0    0 -0.83332719734E-01  0.11283234970E+00  0.24409823426E-01  0.89144339181E+00  0.88000000000E+00 0.  1.
        -11    1    4    4    0    0  0.25315621412E-01 -0.38834693596E-01 -0.24535928664E-01  0.52452712328E-01  0.51100000000E-03 0.  1.
         11    1    4    4    0    0  0.47543099951E-01 -0.58970282962E-01 -0.13834145600E-01  0.77003151436E-01  0.51100000000E-03 0. -1.
</event>
<event>
 8    1  0.1106168E+005  0.1043930E+01  0.7957747E-01            NaN
         13   -1    0    0    0    0  0.00000000000E+00  0.00000000000E+00  0.74505805969E-08  0.10566000000E+00  0.10566000000E+00 0.  1.
     999900   -1    0    0    0    0 -0.00000000000E+00 -0.00000000000E+00 -0.74505805969E-08  0.93827000000E+00  0.93827000000E+00 0.  1.
     999902    2    1    2    0    0  0.41053742445E-02 -0.36579903266E-02  0.23304287686E-01  0.10199857979E+01  0.10197047137E+01 0.  0.
     999903    2    3    3    0    0 -0.60418547154E-01 -0.11001813034E+00  0.32513245317E-01  0.13118850900E+00  0.19973080068E-01 0.  0.
         14    1    1    2    0    0 -0.41053742445E-02  0.36579903266E-02 -0.23304287686E-01  0.23944202126E-01  0.00000000000E+00 0. -1.
     999901    1    3    3    0    0  0.64523921398E-01  0.10636014002E+00 -0.92089576317E-02  0.88879728888E+00  0.88000000000E+00 0. -1.
        -11    1    4    4    0    0 -0.17196738635E-01 -0.51102875202E-01  0.16423891024E-01  0.56366984938E-01  0.51100000000E-03 0.  1.
         11    1    4    4    0    0 -0.43221808518E-01 -0.58915255140E-01  0.16089354293E-01  0.74821524058E-01  0.51100000000E-03 0. -1.
</event>
<event>
 8    1  0.1106168E+005  0.1043930E+01  0.7957747E-01            NaN
         13   -1    0    0    0    0  0.00000000000E+00  0.00000000000E+00  0.74505805969E-08  0.10566000000E+00  0.10566000000E+00 0. -1.
     999900   -1    0    0    0    0 -0.00000000000E+00 -0.00000000000E+00 -0.74505805969E-08  0.93827000000E+00  0.93827000000E+00 0. -1.
     999902    2    1    2    0    0 -0.65868790070E-02  0.15619441000E-01 -0.16672631100E-01  0.10201533194E+01  0.10198762006E+01 0.  0.
     999903    2    3    3    0    0 -0.13887706529E-01 -0.12155903425E+00 -0.36157462221E-01  0.12928245626E+00  0.20907515963E-01 0.  0.
         14    1    1    2    0    0  0.65868790070E-02 -0.15619441000E-01  0.16672631100E-01  0.23776680593E-01  0.00000000000E+00 0.  1.
     999901    1    3    3    0    0  0.73008275223E-02  0.13717847525E+00  0.19484831121E-01  0.89087086314E+00  0.88000000000E+00 0. -1.
        -11    1    4    4    0    0 -0.15739266797E-01 -0.82405638939E-01 -0.16797263128E-01  0.85561808173E-01  0.51100000000E-03 0.  1.
         11    1    4    4    0    0  0.18515602679E-02 -0.39153395307E-01 -0.19360199094E-01  0.43720648091E-01  0.51100000000E-03 0. -1.
</event>
<event>
 8    1  0.1106168E+005  0.1043930E+01  0.7957747E-01            NaN
         13   -1    0    0    0    0  0.00000000000E+00  0.00000000000E+00  0.74505805969E-08  0.10566000000E+00  0.10566000000E+00 0. -1.
     999900   -1    0    0    0    0 -0.00000000000E+00 -0.00000000000E+00 -0.74505805969E-08  0.93827000000E+00  0.93827000000E+00 0.  1.
     999902    2    1    2    0    0 -0.22749498742E-01  0.46313069840E-03  0.37133378349E-02  0.10208747823E+01  0.10206144121E+01 0.  0.
     999903    2    3    3    0    0 -0.49440266666E-01 -0.12066328421E+00 -0.23319076479E-02  0.13215629460E+00  0.21351353228E-01 0.  0.
         14    1    1    2    0    0  0.22749498742E-01 -0.46313069840E-03 -0.37133378349E-02  0.23055217651E-01  0.00000000000E+00 0.  1.
     999901    1    3    3    0    0  0.26690767924E-01  0.12112641491E+00  0.60452454828E-02  0.88871848775E+00  0.88000000000E+00 0. -1.
        -11    1    4    4    0    0 -0.29464014750E-01 -0.52321353243E-01  0.65309878005E-02  0.60403369881E-01  0.51100000000E-03 0.  1.
         11    1    4    4    0    0 -0.19976251916E-01 -0.68341930964E-01 -0.88628954484E-02  0.71752924715E-01  0.51100000000E-03 0. -1.
</event>
<event>
 8    1  0.1106168E+005  0.1043930E+01  0.7957747E-01            NaN
         13   -1    0    0    0    0  0.00000000000E+00  0.00000000000E+00  0.74505805969E-08  0.10566000000E+00  0.10566000000E+00 0. -1.
     999900   -1    0    0    0    0 -0.00000000000E+00 -0.00000000000E+00 -0.74505805969E-08  0.93827000000E+00  0.93827000000E+00 0. -1.
     999902    2    1    2    0    0  0.17077986143E-01  0.69042356154E-02 -0.16742260400E-01  0.10190376445E+01  0.10187335724E+01 0.  0.
     999903    2    3    3    0    0  0.12160227468E+00 -0.44483797288E-01  0.53339818430E-02  0.13108864972E+00  0.19744905503E-01 0.  0.
         14    1    1    2    0    0 -0.17077986143E-01 -0.69042356154E-02  0.16742260400E-01  0.24892355522E-01  0.00000000000E+00 0. -1.
     999901    1    3    3    0    0 -0.10452428854E+00  0.51388032903E-01 -0.22076242243E-01  0.88794899476E+00  0.88000000000E+00 0.  1.
        -11    1    4    4    0    0  0.76256107595E-01 -0.35763912287E-01  0.92962020613E-02  0.84739199084E-01  0.51100000000E-03 0.  1.
         11    1    4    4    0    0  0.45346167090E-01 -0.87198850005E-02 -0.39622202184E-02  0.46349450636E-01  0.51100000000E-03 0. -1.
</event>
<event>
 8    1  0.1106168E+005  0.1043930E+01  0.7957747E-01            NaN
         13   -1    0    0    0    0  0.00000000000E+00  0.00000000000E+00  0.74505805969E-08  0.10566000000E+00  0.10566000000E+00 0. -1.
     999900   -1    0    0    0    0 -0.00000000000E+00 -0.00000000000E+00 -0.74505805969E-08  0.93827000000E+00  0.93827000000E+00 0. -1.
     999902    2    1    2    0    0  0.20503011199E-01 -0.82614420754E-02  0.86640389028E-02  0.10201878336E+01  0.10199115282E+01 0.  0.
     999903    2    3    3    0    0  0.13097452808E+00 -0.28650993584E-02  0.13406074631E-01  0.13325177988E+00  0.20341538888E-01 0.  0.
         14    1    1    2    0    0 -0.20503011199E-01  0.82614420754E-02 -0.86640389028E-02  0.23742166361E-01  0.00000000000E+00 0. -1.
     999901    1    3    3    0    0 -0.11047151688E+00 -0.53963427171E-02 -0.47420357278E-02  0.88693605376E+00  0.88000000000E+00 0.  1.
        -11    1    4    4    0    0  0.31856444941E-01  0.46496164063E-02 -0.36180330783E-02  0.32400668224E-01  0.51100000000E-03 0.  1.
         11    1    4    4    0    0  0.99118083137E-01 -0.75147157646E-02  0.17024107709E-01  0.10085111166E+00  0.51100000000E-03 0. -1.
</event>
<event>
 8    1  0.1106168E+005  0.1043930E+01  0.7957747E-01            NaN
         13   -1    0    0    0    0  0.00000000000E+00  0.00000000000E+00  0.74505805969E-08  0.10566000000E+00  0.10566000000E+00 0.  1.
     999900   -1    0    0    0    0 -0.00000000000E+00 -0.00000000000E+00 -0.74505805969E-08  0.93827000000E+00  0.93827000000E+00 0. -1.
     999902    2    1    2    0    0 -0.13282615008E-01 -0.96551125119E-02  0.16388347486E-01  0.10207302803E+01  0.10204665983E+01 0.  0.
     999903    2    3    3    0    0 -0.29642658594E-01 -0.10370710232E+00  0.76395855636E-01  0.13353564056E+00  0.19015526834E-01 0.  0.
         14    1    1    2    0    0  0.13282615008E-01  0.96551125119E-02 -0.16388347486E-01  0.23199719662E-01  0.00000000000E+00 0. -1.
     999901    1    3    3    0    0  0.16360043586E-01  0.94051989813E-01 -0.60007508150E-01  0.88719463978E+00  0.88000000000E+00 0. -1.
        -11    1    4    4    0    0 -0.91947536390E-02 -0.24022599310E-01  0.92333556743E-02  0.27333948674E-01  0.51100000000E-03 0. -1.
         11    1    4    4    0    0 -0.20447904955E-01 -0.79684503014E-01  0.67162499962E-01  0.10620169189E+00  0.51100000000E-03 0.  1.
</event>
<event>
 8    1  0.1106168E+005  0.1043930E+01  0.7957747E-01            NaN
         13   -1    0    0    0    0  0.00000000000E+00  0.00000000000E+00  0.74505805969E-08  0.10566000000E+00  0.10566000000E+00 0.  1.
     999900   -1    0    0    0    0 -0.00000000000E+00 -0.00000000000E+00 -0.74505805969E-08  0.93827000000E+00  0.93827000000E+00 0.  1.
     999902    2    1    2    0    0  0.45821142044E-02  0.18937050349E-01  0.63359504889E-02  0.10234421520E+01  0.10232370628E+01 0.  0.
     999903    2    3    3    0    0 -0.41432334860E-01  0.12660935187E+00  0.14963623154E-01  0.13564426354E+00  0.20709656228E-01 0.  0.
         14    1    1    2    0    0 -0.45821142044E-02 -0.18937050349E-01 -0.63359504889E-02  0.20487847987E-01  0.00000000000E+00 0.  1.
     999901    1    3    3    0    0  0.46014449065E-01 -0.10767230152E+00 -0.86276726655E-02  0.88779788847E+00  0.88000000000E+00 0. -1.
        -11    1    4    4    0    0 -0.37506650735E-01  0.94513357590E-01  0.50107333770E-02  0.10180811452E+00  0.51100000000E-03 0.  1.
         11    1    4    4    0    0 -0.39256841248E-02  0.32095994281E-01  0.99528897774E-02  0.33836149022E-01  0.51100000000E-03 0. -1.
</event>
<event>
 8    1  0.1106168E+005  0.1043930E+01  0.7957747E-01            NaN
         13   -1    0    0    0    0  0.00000000000E+00  0.00000000000E+00  0.74505805969E-08  0.10566000000E+00  0.10566000000E+00 0.  1.
     999900   -1    0    0    0    0 -0.00000000000E+00 -0.00000000000E+00 -0.74505805969E-08  0.93827000000E+00  0.93827000000E+00 0.  1.
     999902    2    1    2    0    0  0.15394194688E-02 -0.22602906723E-01  0.52730961869E-02  0.10206691585E+01  0.10204040691E+01 0.  0.
     999903    2    3    3    0    0  0.12411331968E+00 -0.28102928829E-02 -0.34585285552E-01  0.13105980648E+00  0.23843595135E-01 0.  0.
         14    1    1    2    0    0 -0.15394194688E-02  0.22602906723E-01 -0.52730961869E-02  0.23260841516E-01  0.00000000000E+00 0. -1.
     999901    1    3    3    0    0 -0.12257390022E+00 -0.19792613840E-01  0.39858381739E-01  0.88960935200E+00  0.88000000000E+00 0.  1.
        -11    1    4    4    0    0  0.89154199985E-01  0.80920019992E-02 -0.20634642770E-01  0.91869480648E-01  0.51100000000E-03 0. -1.
         11    1    4    4    0    0  0.34959119699E-01 -0.10902294882E-01 -0.13950642782E-01  0.39190325833E-01  0.51100000000E-03 0.  1.
</event>
<event>
 8    1  0.1106168E+005  0.1043930E+01  0.7957747E-01            NaN
         13   -1    0    0    0    0  0.00000000000E+00  0.00000000000E+00  0.74505805969E-08  0.10566000000E+00  0.10566000000E+00 0.  1.
     999900   -1    0    0    0    0 -0.00000000000E+00 -0.00000000000E+00 -0.74505805969E-08  0.93827000000E+00  0.93827000000E+00 0. -1.
     999902    2    1    2    0    0  0.71012358411E-03 -0.22325809246E-01 -0.82641023947E-02  0.10201131693E+01  0.10198351028E+01 0.  0.
     999903    2    3    3    0    0  0.12261693710E+00 -0.15639484808E-01  0.36484148885E-01  0.13055800854E+00  0.20851707974E-01 0.  0.
         14    1    1    2    0    0 -0.71012358411E-03  0.22325809246E-01  0.82641023947E-02  0.23816830654E-01  0.00000000000E+00 0.  1.
     999901    1    3    3    0    0 -0.12190681352E+00 -0.66863244384E-02 -0.44748251280E-01  0.88955516080E+00  0.88000000000E+00 0.  1.
        -11    1    4    4    0    0  0.73085501854E-01 -0.17602089164E-01  0.28229600489E-01  0.80302525420E-01  0.51100000000E-03 0.  1.
         11    1    4    4    0    0  0.49531435250E-01  0.19626043562E-02  0.82545483962E-02  0.50255483123E-01  0.51100000000E-03 0. -1.
</event>
<event>
 8    1  0.1106168E+005  0.1043930E+01  0.7957747E-01            NaN
         13   -1    0    0    0    0  0.00000000000E+00  0.00000000000E+00  0.74505805969E-08  0.10566000000E+00  0.10566000000E+00 0. -1.
     999900   -1    0    0    0    0 -0.00000000000E+00 -0.00000000000E+00 -0.74505805969E-08  0.93827000000E+00  0.93827000000E+00 0. -1.
     999902    2    1    2    0    0 -0.95495168061E-02 -0.17731439935E-02  0.20048656973E-01  0.10216525235E+01  0.10214096107E+01 0.  0.
     999903    2    3    3    0    0  0.41413439676E-01  0.10970370467E+00 -0.53272927033E-01  0.13013675509E+00  0.18643885482E-01 0.  0.
         14    1    1    2    0    0  0.95495168061E-02  0.17731439935E-02 -0.20048656973E-01  0.22277476457E-01  0.00000000000E+00 0.  1.
     999901    1    3    3    0    0 -0.50962956482E-01 -0.11147684867E+00  0.73321584006E-01  0.89151576845E+00  0.88000000000E+00 0.  1.
        -11    1    4    4    0    0  0.19378862147E-01  0.28376940453E-01 -0.17951029743E-01  0.38772305031E-01  0.51100000000E-03 0. -1.
         11    1    4    4    0    0  0.22034577529E-01  0.81326764219E-01 -0.35321897290E-01  0.91364450058E-01  0.51100000000E-03 0.  1.
</event>
<event>
 8    1  0.1106168E+005  0.1043930E+01  0.7957747E-01            NaN
         13   -1    0    0    0    0  0.00000000000E+00  0.00000000000E+00  0.74505805969E-08  0.10566000000E+00  0.10566000000E+00 0.  1.
     999900   -1    0    0    0    0 -0.00000000000E+00 -0.00000000000E+00 -0.74505805969E-08  0.93827000000E+00  0.93827000000E+00 0. -1.
     999902    2    1    2    0    0 -0.21432247309E-01  0.46326387433E-02  0.83555529425E-02  0.10204647527E+01  0.10201949292E+01 0.  0.
     999903    2    3    3    0    0 -0.48288649537E-01  0.33219588841E-01  0.11705512558E+00  0.13290964051E+00  0.22972491352E-01 0.  0.
         14    1    1    2    0    0  0.21432247309E-01 -0.46326387433E-02 -0.83555529425E-02  0.23465247312E-01  0.00000000000E+00 0.  1.
     999901    1    3    3    0    0  0.26856402228E-01 -0.28586950098E-01 -0.10869957264E+00  0.88755511218E+00  0.88000000000E+00 0. -1.
        -11    1    4    4    0    0 -0.49778242451E-01  0.27864663820E-01  0.10226400353E+00  0.11710038621E+00  0.51100000000E-03 0. -1.
         11    1    4    4    0    0  0.14895929143E-02  0.53549250215E-02  0.14791122049E-01  0.15809254300E-01  0.51100000000E-03 0.  1.
</event>
<event>
 8    1  0.1106168E+005  0.1043930E+01  0.7957747E-01            NaN
         13   -1    0    0    0    0  0.00000000000E+00  0.00000000000E+00  0.74505805969E-08  0.10566000000E+00  0.10566000000E+00 0. -1.
     999900   -1    0    0    0    0 -0.00000000000E+00 -0.00000000000E+00 -0.74505805969E-08  0.93827000000E+00  0.93827000000E+00 0.  1.
     999902    2    1    2    0    0 -0.24497229019E-01 -0.16428623849E-02 -0.65437036607E-02  0.10185206851E+01  0.10182036892E+01 0.  0.
     999903    2    3    3    0    0  0.52186453388E-01 -0.10536662635E+00 -0.44718283101E-01  0.12829806975E+00  0.25201547428E-01 0.  0.
         14    1    1    2    0    0  0.24497229019E-01  0.16428623849E-02  0.65437036607E-02  0.25409314907E-01  0.00000000000E+00 0. -1.
     999901    1    3    3    0    0 -0.76683682407E-01  0.10372376396E+00  0.38174579440E-01  0.89022261535E+00  0.88000000000E+00 0. -1.
        -11    1    4    4    0    0  0.26584083386E-01 -0.75661216481E-01 -0.22826329674E-01  0.83382465880E-01  0.51100000000E-03 0.  1.
         11    1    4    4    0    0  0.25602370001E-01 -0.29705409864E-01 -0.21891953427E-01  0.44915603867E-01  0.51100000000E-03 0. -1.
</event>
<event>
 8    1  0.1106168E+005  0.1043930E+01  0.7957747E-01            NaN
         13   -1    0    0    0    0  0.00000000000E+00  0.00000000000E+00  0.74505805969E-08  0.10566000000E+00  0.10566000000E+00 0.  1.
     999900   -1    0    0    0    0 -0.00000000000E+00 -0.00000000000E+00 -0.74505805969E-08  0.93827000000E+00  0.93827000000E+00 0.  1.
     999902    2    1    2    0    0  0.14399599267E-01 -0.15481557333E-01  0.93699920257E-02  0.10208037416E+01  0.10205417459E+01 0.  0.
     999903    2    3    3    0    0 -0.94729933265E-01  0.67230096688E-01  0.52941331485E-01  0.12914857609E+00  0.19568443194E-01 0.  0.
         14    1    1    2    0    0 -0.14399599267E-01  0.15481557333E-01 -0.93699920257E-02  0.23126258389E-01  0.00000000000E+00 0. -1.
     999901    1    3    3    0    0  0.10912953253E+00 -0.82711654021E-01 -0.43571339460E-01  0.89165516552E+00  0.88000000000E+00 0. -1.
        -11    1    4    4    0    0 -0.12498220434E-01  0.17590315708E-01  0.12367667400E-01  0.24876596203E-01  0.51100000000E-03 0.  1.
         11    1    4    4    0    0 -0.82231712830E-01  0.49639780980E-01  0.40573664086E-01  0.10427197988E+00  0.51100000000E-03 0. -1.
</event>
<event>
 8    1  0.1106168E+005  0.1043930E+01  0.7957747E-01            NaN
         13   -1    0    0    0    0  0.00000000000E+00  0.00000000000E+00  0.74505805969E-08  0.10566000000E+00  0.10566000000E+00 0.  1.
     999900   -1    0    0    0    0 -0.00000000000E+00 -0.00000000000E+00 -0.74505805969E-08  0.93827000000E+00  0.93827000000E+00 0. -1.
     999902    2    1    2    0    0 -0.15082451640E-01 -0.10777253592E-01  0.15378209694E-01  0.10198443429E+01  0.10195598879E+01 0.  0.
     999903    2    3    3    0    0  0.11976213764E-01  0.10110823630E+00 -0.74710597144E-01  0.12778687431E+00  0.19532198469E-01 0.  0.
         14    1    1    2    0    0  0.15082451640E-01  0.10777253592E-01 -0.15378209694E-01  0.24085657057E-01  0.00000000000E+00 0.  1.
     999901    1    3    3    0    0 -0.27058665405E-01 -0.11188548989E+00  0.90088806838E-01  0.89205746863E+00  0.88000000000E+00 0.  1.
        -11    1    4    4    0    0  0.91274085391E-02  0.96959847012E-01 -0.65780977790E-01  0.11752412382E+00  0.51100000000E-03 0.  1.
         11    1    4    4    0    0  0.28488052252E-02  0.41483892884E-02 -0.89296193542E-02  0.10262750494E-01  0.51100000000E-03 0. -1.
</event>
<event>
 8    1  0.1106168E+005  0.1043930E+01  0.7957747E-01            NaN
         13   -1    0    0    0    0  0.00000000000E+00  0.00000000000E+00  0.74505805969E-08  0.10566000000E+00  0.10566000000E+00 0.  1.
     999900   -1    0    0    0    0 -0.00000000000E+00 -0.00000000000E+00 -0.74505805969E-08  0.93827000000E+00  0.93827000000E+00 0. -1.
     999902    2    1    2    0    0 -0.64196318972E-02 -0.52618469297E-02 -0.21973028171E-01  0.10204414353E+01  0.10201710690E+01 0.  0.
     999903    2    3    3    0    0  0.37143803262E-01 -0.12283774395E+00  0.13937449108E-01  0.13082835822E+00  0.21284580542E-01 0.  0.
         14    1    1    2    0    0  0.64196318972E-02  0.52618469297E-02  0.21973028171E-01  0.23488564746E-01  0.00000000000E+00 0.  1.
     999901    1    3    3    0    0 -0.43563435159E-01  0.11757589702E+00 -0.35910477279E-01  0.88961307703E+00  0.88000000000E+00 0.  1.
        -11    1    4    4    0    0  0.12307179065E-01 -0.59251415477E-01 -0.26468675646E-02  0.60576100250E-01  0.51100000000E-03 0. -1.
         11    1    4    4    0    0  0.24836624197E-01 -0.63586328472E-01  0.16584316673E-01  0.70252257975E-01  0.51100000000E-03 0.  1.
</event>
<event>
 8    1  0.1106168E+005  0.1043930E+01  0.7957747E-01            NaN
         13   -1    0    0    0    0  0.00000000000E+00  0.00000000000E+00  0.74505805969E-08  0.10566000000E+00  0.10566000000E+00 0.  1.
     999900   -1    0    0    0    0 -0.00000000000E+00 -0.00000000000E+00 -0.74505805969E-08  0.93827000000E+00  0.93827000000E+00 0.  1.
     999902    2    1    2    0    0  0.11064464057E-03  0.10494246105E-01 -0.23879918780E-01  0.10178456759E+01  0.10175113896E+01 0.  0.
     999903    2    3    3    0    0  0.59430677244E-01  0.10746162476E+00 -0.39105879381E-01  0.13040363909E+00  0.19895554611E-01 0.  0.
         14    1    1    2    0    0 -0.11064464057E-03 -0.10494246105E-01  0.23879918780E-01  0.26084324114E-01  0.00000000000E+00 0.  1.
     999901    1    3    3    0    0 -0.59320032603E-01 -0.96967378653E-01  0.15225960601E-01  0.88744203679E+00  0.88000000000E+00 0.  1.
        -11    1    4    4    0    0  0.25753683250E-01  0.27817233380E-01 -0.10936560835E-01  0.39457827585E-01  0.51100000000E-03 0. -1.
         11    1    4    4    0    0  0.33676993994E-01  0.79644391378E-01 -0.28169318546E-01  0.90945811508E-01  0.51100000000E-03 0.  1.
</event>
<event>
 8    1  0.1106168E+005  0.1043930E+01  0.7957747E-01            NaN
         13   -1    0    0    0    0  0.00000000000E+00  0.00000000000E+00  0.74505805969E-08  0.10566000000E+00  0.10566000000E+00 0.  1.
     999900   -1    0    0    0    0 -0.00000000000E+00 -0.00000000000E+00 -0.74505805969E-08  0.93827000000E+00  0.93827000000E+00 0.  1.
     999902    2    1    2    0    0 -0.15232125329E-01  0.16396975746E-01 -0.63936623735E-02  0.10206543180E+01  0.10203888864E+01 0.  0.
     999903    2    3    3    0    0 -0.95587156311E-01  0.37545808080E-01 -0.82906227033E-01  0.13343485432E+00  0.19616975084E-01 0.  0.
         14    1    1    2    0    0  0.15232125329E-01 -0.16396975746E-01  0.63936623735E-02  0.23275682035E-01  0.00000000000E+00 0. -1.
     999901    1    3    3    0    0  0.80355030982E-01 -0.21148832334E-01  0.76512564660E-01  0.88721946364E+00  0.88000000000E+00 0. -1.
        -11    1    4    4    0    0 -0.32170528851E-01  0.22527440609E-01 -0.28319016700E-01  0.48421651509E-01  0.51100000000E-03 0. -1.
         11    1    4    4    0    0 -0.63416627460E-01  0.15018367470E-01 -0.54587210333E-01  0.85013202815E-01  0.51100000000E-03 0.  1.
</event>
<event>
 8    1  0.1106168E+005  0.1043930E+01  0.7957747E-01            NaN
         13   -1    0    0    0    0  0.00000000000E+00  0.00000000000E+00  0.74505805969E-08  0.10566000000E+00  0.10566000000E+00 0. -1.
     999900   -1    0    0    0    0 -0.00000000000E+00 -0.00000000000E+00 -0.74505805969E-08  0.93827000000E+00  0.93827000000E+00 0.  1.
     999902    2    1    2    0    0  0.16337032035E-01  0.11351769143E-01  0.12876887449E-01  0.10202324155E+01  0.10199571590E+01 0.  0.
     999903    2    3    3    0    0  0.41500193132E-01 -0.45994070585E-01 -0.11135240768E+00  0.12930332310E+00  0.21960649110E-01 0.  0.
         14    1    1    2    0    0 -0.16337032035E-01 -0.11351769143E-01 -0.12876887449E-01  0.23697584450E-01  0.00000000000E+00 0.  1.
     999901    1    3    3    0    0 -0.25163161096E-01  0.57345839728E-01  0.12422929513E+00  0.89092909245E+00  0.88000000000E+00 0. -1.
        -11    1    4    4    0    0  0.91511190965E-02 -0.82667964627E-02 -0.82464595782E-02  0.14844127494E-01  0.51100000000E-03 0. -1.
         11    1    4    4    0    0  0.32349074035E-01 -0.37727274122E-01 -0.10310594810E+00  0.11445919560E+00  0.51100000000E-03 0.  1.
</event>
<event>
 8    1  0.1106168E+005  0.1043930E+01  0.7957747E-01            NaN
         13   -1    0    0    0    0  0.00000000000E+00  0.00000000000E+00  0.74505805969E-08  0.10566000000E+00  0.10566000000E+00 0.  1.
     999900   -1    0    0    0    0 -0.00000000000E+00 -0.00000000000E+00 -0.74505805969E-08  0.93827000000E+00  0.93827000000E+00 0. -1.
     999902    2    1    2    0    0 -0.75097102416E-02 -0.88983736348E-02  0.20063179126E-01  0.10207328459E+01  0.10204692228E+01 0.  0.
     999903    2    3    3    0    0  0.10046607129E+00 -0.31348763494E-01  0.77153917803E-01  0.13201346284E+00  0.19966243630E-01 0.  0.
         14    1    1    2    0    0  0.75097102416E-02  0.88983736348E-02 -0.20063179126E-01  0.23197154090E-01  0.00000000000E+00 0. -1.
     999901    1    3    3    0    0 -0.10797578153E+00  0.22450389860E-01 -0.57090738677E-01  0.88871938307E+00  0.88000000000E+00 0. -1.
        -11    1    4    4    0    0  0.75751782253E-01 -0.24380258815E-01  0.68227024880E-01  0.10482326831E+00  0.51100000000E-03 0. -1.
         11    1    4    4    0    0  0.24714289041E-01 -0.69685046794E-02  0.89268929234E-02  0.27190194529E-01  0.51100000000E-03 0.  1.
</event>
<event>
 8    1  0.1106168E+005  0.1043930E+01  0.7957747E-01            NaN
         13   -1    0    0    0    0  0.00000000000E+00  0.00000000000E+00  0.74505805969E-08  0.10566000000E+00  0.10566000000E+00 0.  1.
     999900   -1    0    0    0    0 -0.00000000000E+00 -0.00000000000E+00 -0.74505805969E-08  0.93827000000E+00  0.93827000000E+00 0.  1.
     999902    2    1    2    0    0 -0.57486324189E-02 -0.16917430668E-01  0.16914638067E-01  0.10193261138E+01  0.10190291336E+01 0.  0.
     999903    2    3    3    0    0  0.81477128269E-01 -0.73410757310E-01  0.70002345779E-01  0.13162225891E+00  0.19910522493E-01 0.  0.
         14    1    1    2    0    0  0.57486324189E-02  0.16917430668E-01 -0.16914638067E-01  0.24603886198E-01  0.00000000000E+00 0. -1.
     999901    1    3    3    0    0 -0.87225760688E-01  0.56493326642E-01 -0.53087707712E-01  0.88770385489E+00  0.88000000000E+00 0.  1.
        -11    1    4    4    0    0  0.57429617915E-01 -0.39373059465E-01  0.40436187668E-01  0.80521706512E-01  0.51100000000E-03 0.  1.
         11    1    4    4    0    0  0.24047510353E-01 -0.34037697846E-01  0.29566158110E-01  0.51100552397E-01  0.51100000000E-03 0. -1.
</event>
<event>
 8    1  0.1106168E+005  0.1043930E+01  0.7957747E-01            NaN
         13   -1    0    0    0    0  0.00000000000E+00  0.00000000000E+00  0.74505805969E-08  0.10566000000E+00  0.10566000000E+00 0. -1.
     999900   -1    0    0    0    0 -0.00000000000E+00 -0.00000000000E+00 -0.74505805969E-08  0.93827000000E+00  0.93827000000E+00 0. -1.
     999902    2    1    2    0    0 -0.58943721053E-02 -0.16594853072E-01  0.12210411627E-01  0.10225004194E+01  0.10222758340E+01 0.  0.
     999903    2    3    3    0    0  0.12660554837E+00  0.26699399557E-01 -0.10332665554E-01  0.13124354762E+00  0.19397989537E-01 0.  0.
         14    1    1    2    0    0  0.58943721053E-02  0.16594853072E-01 -0.12210411627E-01  0.21429580563E-01  0.00000000000E+00 0. -1.
     999901    1    3    3    0    0 -0.13249992048E+00 -0.43294252630E-01  0.22543077181E-01  0.89125687182E+00  0.88000000000E+00 0.  1.
        -11    1    4    4    0    0  0.70439512413E-01  0.20814374664E-01  0.18211131841E-02  0.73474762169E-01  0.51100000000E-03 0. -1.
         11    1    4    4    0    0  0.56166035960E-01  0.58850248930E-02 -0.12153778738E-01  0.57768785447E-01  0.51100000000E-03 0.  1.
</event>
<event>
 8    1  0.1106168E+005  0.1043930E+01  0.7957747E-01            NaN
         13   -1    0    0    0    0  0.00000000000E+00  0.00000000000E+00  0.74505805969E-08  0.10566000000E+00  0.10566000000E+00 0.  1.
     999900   -1    0    0    0    0 -0.00000000000E+00 -0.00000000000E+00 -0.74505805969E-08  0.93827000000E+00  0.93827000000E+00 0. -1.
     999902    2    1    2    0    0  0.26188143159E-02  0.22339135694E-01 -0.78574540109E-02  0.10201049133E+01  0.10198266517E+01 0.  0.
     999903    2    3    3    0    0  0.28111185599E-01  0.10883425441E+00 -0.68999723568E-01  0.13338644408E+00  0.19895927336E-01 0.  0.
         14    1    1    2    0    0 -0.26188143159E-02 -0.22339135694E-01  0.78574540109E-02  0.23825086684E-01  0.00000000000E+00 0. -1.
     999901    1    3    3    0    0 -0.25492371283E-01 -0.86495118711E-01  0.61142269557E-01  0.88671846923E+00  0.88000000000E+00 0.  1.
        -11    1    4    4    0    0  0.24019484236E-01  0.69355829916E-01 -0.53259491137E-01  0.90686279466E-01  0.51100000000E-03 0. -1.
         11    1    4    4    0    0  0.40917013632E-02  0.39478424489E-01 -0.15740232432E-01  0.42700164616E-01  0.51100000000E-03 0.  1.
</event>
<event>
 8    1  0.1106168E+005  0.1043930E+01  0.7957747E-01            NaN
         13   -1    0    0    0    0  0.00000000000E+00  0.00000000000E+00  0.74505805969E-08  0.10566000000E+00  0.10566000000E+00 0.  1.
     999900   -1    0    0    0    0 -0.00000000000E+00 -0.00000000000E+00 -0.74505805969E-08  0.93827000000E+00  0.93827000000E+00 0.  1.
     999902    2    1    2    0    0  0.90333904512E-02  0.11376951693E-01 -0.17168262031E-01  0.10214403047E+01  0.10211926898E+01 0.  0.
     999903    2    3    3    0    0  0.68096562302E-01  0.59051369325E-03  0.10948238647E+00  0.13034817015E+00  0.19151031561E-01 0.  0.
         14    1    1    2    0    0 -0.90333904512E-02 -0.11376951693E-01  0.17168262031E-01  0.22489695285E-01  0.00000000000E+00 0.  1.
     999901    1    3    3    0    0 -0.59063171851E-01  0.10786438000E-01 -0.12665064851E+00  0.89109213456E+00  0.88000000000E+00 0.  1.
        -11    1    4    4    0    0  0.54405598993E-01 -0.71183353965E-02  0.88491626478E-01  0.10412333542E+00  0.51100000000E-03 0. -1.
         11    1    4    4    0    0  0.13690963309E-01  0.77088490898E-02  0.20990759996E-01  0.26224834735E-01  0.51100000000E-03 0.  1.
</event>
<event>
 8    1  0.1106168E+005  0.1043930E+01  0.7957747E-01            NaN
         13   -1    0    0    0    0  0.00000000000E+00  0.00000000000E+00  0.74505805969E-08  0.10566000000E+00  0.10566000000E+00 0. -1.
     999900   -1    0    0    0    0 -0.00000000000E+00 -0.00000000000E+00 -0.74505805969E-08  0.93827000000E+00  0.93827000000E+00 0. -1.
     999902    2    1    2    0    0  0.11655240793E-01 -0.16044226825E-01  0.12238058362E-01  0.10206269546E+01  0.10203608913E+01 0.  0.
     999903    2    3    3    0    0  0.70796748245E-01  0.80280623453E-01 -0.70325780513E-01  0.12956411609E+00  0.19595578832E-01 0.  0.
         14    1    1    2    0    0 -0.11655240793E-01  0.16044226825E-01 -0.12238058362E-01  0.23303045398E-01  0.00000000000E+00 0.  1.
     999901    1    3    3    0    0 -0.59141507451E-01 -0.96324850278E-01  0.82563838875E-01  0.89106283851E+00  0.88000000000E+00 0.  1.
        -11    1    4    4    0    0  0.70977391013E-01  0.74405675191E-01 -0.65290583025E-01  0.12180770045E+00  0.51100000000E-03 0. -1.
         11    1    4    4    0    0 -0.18064276854E-03  0.58749482617E-02 -0.50351974884E-02  0.77564156435E-02  0.51100000000E-03 0.  1.
</event>
<event>
 8    1  0.1106168E+005  0.1043930E+01  0.7957747E-01            NaN
         13   -1    0    0    0    0  0.00000000000E+00  0.00000000000E+00  0.74505805969E-08  0.10566000000E+00  0.10566000000E+00 0. -1.
     999900   -1    0    0    0    0 -0.00000000000E+00 -0.00000000000E+00 -0.74505805969E-08  0.93827000000E+00  0.93827000000E+00 0.  1.
     999902    2    1    2    0    0  0.82743273838E-02  0.12845689890E-01 -0.18485991075E-01  0.10199465034E+01  0.10196644849E+01 0.  0.
     999903    2    3    3    0    0  0.10169498685E+00 -0.75076158659E-01 -0.25576436614E-01  0.13061644911E+00  0.20693059690E-01 0.  0.
         14    1    1    2    0    0 -0.82743273838E-02 -0.12845689890E-01  0.18485991075E-01  0.23983496585E-01  0.00000000000E+00 0. -1.
     999901    1    3    3    0    0 -0.93420659467E-01  0.87921848550E-01  0.70904455383E-02  0.88933005430E+00  0.88000000000E+00 0.  1.
        -11    1    4    4    0    0  0.70369179677E-01 -0.45428373874E-01 -0.25240784871E-01  0.87480951888E-01  0.51100000000E-03 0. -1.
         11    1    4    4    0    0  0.31325807173E-01 -0.29647784785E-01 -0.33565174273E-03  0.43135497225E-01  0.51100000000E-03 0.  1.
</event>
<event>
 8    1  0.1106168E+005  0.1043930E+01  0.7957747E-01            NaN
         13   -1    0    0    0    0  0.00000000000E+00  0.00000000000E+00  0.74505805969E-08  0.10566000000E+00  0.10566000000E+00 0. -1.
     999900   -1    0    0    0    0 -0.00000000000E+00 -0.00000000000E+00 -0.74505805969E-08  0.93827000000E+00  0.93827000000E+00 0. -1.
     999902    2    1    2    0    0 -0.40889243439E-02  0.32508666557E-02  0.22900858185E-01  0.10204409229E+01  0.10201705448E+01 0.  0.
     999903    2    3    3    0    0 -0.55859239116E-01 -0.11564752399E+00 -0.98756489588E-02  0.13033346188E+00  0.19866515653E-01 0.  0.
         14    1    1    2    0    0  0.40889243439E-02 -0.32508666557E-02 -0.22900858185E-01  0.23489077076E-01  0.00000000000E+00 0.  1.
     999901    1    3    3    0    0  0.51770314772E-01  0.11889839064E+00  0.32776507143E-01  0.89010746105E+00  0.88000000000E+00 0.  1.
        -11    1    4    4    0    0 -0.43393556023E-01 -0.69480306342E-01 -0.26056320534E-02  0.81960747392E-01  0.51100000000E-03 0. -1.
         11    1    4    4    0    0 -0.12465683093E-01 -0.46167217644E-01 -0.72700169054E-02  0.48372714486E-01  0.51100000000E-03 0.  1.
</event>
<event>
 8    1  0.1106168E+005  0.1043930E+01  0.7957747E-01            NaN
         13   -1    0    0    0    0  0.00000000000E+00  0.00000000000E+00  0.74505805969E-08  0.10566000000E+00  0.10566000000E+00 0. -1.
     999900   -1    0    0    0    0 -0.00000000000E+00 -0.00000000000E+00 -0.74505805969E-08  0.93827000000E+00  0.93827000000E+00 0.  1.
     999902    2    1    2    0    0 -0.44323855168E-02  0.21859045519E-02  0.23102537292E-01  0.10203047709E+01  0.10200312123E+01 0.  0.
     999903    2    3    3    0    0  0.10002529499E+00  0.63206074415E-03 -0.77626109215E-01  0.12841908223E+00  0.21452009458E-01 0.  0.
         14    1    1    2    0    0  0.44323855168E-02 -0.21859045519E-02 -0.23102537292E-01  0.23625229087E-01  0.00000000000E+00 0.  1.
     999901    1    3    3    0    0 -0.10445768051E+00  0.15538438077E-02  0.10072864651E+00  0.89188568868E+00  0.88000000000E+00 0. -1.
        -11    1    4    4    0    0  0.44110574966E-02 -0.14154578888E-02  0.81046255221E-03  0.47306363020E-02  0.51100000000E-03 0. -1.
         11    1    4    4    0    0  0.95614237497E-01  0.20475186330E-02 -0.78436571768E-01  0.12368844593E+00  0.51100000000E-03 0.  1.
</event>
<event>
 8    1  0.1106168E+005  0.1043930E+01  0.7957747E-01            NaN
         13   -1    0    0    0    0  0.00000000000E+00  0.00000000000E+00  0.74505805969E-08  0.10566000000E+00  0.10566000000E+00 0. -1.
     999900   -1    0    0    0    0 -0.00000000000E+00 -0.00000000000E+00 -0.74505805969E-08  0.93827000000E+00  0.93827000000E+00 0. -1.
     999902    2    1    2    0    0 -0.42869002401E-03 -0.18072036709E-01  0.15786339827E-01  0.10199301914E+01  0.10196477846E+01 0.  0.
     999903    2    3    3    0    0 -0.54982047583E-01  0.14553126808E-01  0.11720341357E+00  0.13182778013E+00  0.20176828415E-01 0.  0.
         14    1    1    2    0    0  0.42869002401E-03  0.18072036709E-01 -0.15786339827E-01  0.23999808564E-01  0.00000000000E+00 0.  1.
     999901    1    3    3    0    0  0.54553357559E-01 -0.32625163517E-01 -0.10141707375E+00  0.88810241130E+00  0.88000000000E+00 0. -1.
        -11    1    4    4    0    0 -0.54314860333E-01  0.16408394358E-01  0.10403388520E+00  0.11850168712E+00  0.51100000000E-03 0.  1.
         11    1    4    4    0    0 -0.66718724978E-03 -0.18552675497E-02  0.13169528370E-01  0.13326093013E-01  0.51100000000E-03 0. -1.
</event>
<event>
 8    1  0.1106168E+005  0.1043930E+01  0.7957747E-01            NaN
         13   -1    0    0    0    0  0.00000000000E+00  0.00000000000E+00  0.74505805969E-08  0.10566000000E+00  0.10566000000E+00 0.  1.
     999900   -1    0    0    0    0 -0.00000000000E+00 -0.00000000000E+00 -0.74505805969E-08  0.93827000000E+00  0.93827000000E+00 0. -1.
     999902    2    1    2    0    0  0.36058166515E-02  0.19784040313E-01  0.13919200887E-01  0.10194728064E+01  0.10191793997E+01 0.  0.
     999903    2    3    3    0    0  0.76842454755E-01  0.44958339621E-01  0.95650058685E-01  0.13229904462E+00  0.20690295440E-01 0.  0.
         14    1    1    2    0    0 -0.36058166515E-02 -0.19784040313E-01 -0.13919200887E-01  0.24457193587E-01  0.00000000000E+00 0. -1.
     999901    1    3    3    0    0 -0.73236638103E-01 -0.25174299309E-01 -0.81730857798E-01  0.88717376180E+00  0.88000000000E+00 0. -1.
        -11    1    4    4    0    0  0.28265762460E-01  0.16911959052E-01  0.21565167069E-01  0.39373661731E-01  0.51100000000E-03 0.  1.
         11    1    4    4    0    0  0.48576692295E-01  0.28046380569E-01  0.74084891616E-01  0.92925382884E-01  0.51100000000E-03 0. -1.
</event>
<event>
 8    1  0.1106168E+005  0.1043930E+01  0.7957747E-01            NaN
         13   -1    0    0    0    0  0.00000000000E+00  0.00000000000E+00  0.74505805969E-08  0.10566000000E+00  0.10566000000E+00 0. -1.
     999900   -1    0    0    0    0 -0.00000000000E+00 -0.00000000000E+00 -0.74505805969E-08  0.93827000000E+00  0.93827000000E+00 0. -1.
     999902    2    1    2    0    0 -0.15401050801E-01 -0.82491871880E-02 -0.15031056045E-01  0.10208827854E+01  0.10206225979E+01 0.  0.
     999903    2    3    3    0    0 -0.10521510622E+00  0.23845150866E-01 -0.75954937413E-01  0.13363517035E+00  0.21222545599E-01 0.  0.
         14    1    1    2    0    0  0.15401050801E-01  0.82491871880E-02  0.15031056045E-01  0.23047214601E-01  0.00000000000E+00 0. -1.
     999901    1    3    3    0    0  0.89814055416E-01 -0.32094338054E-01  0.60923881368E-01  0.88724761505E+00  0.88000000000E+00 0.  1.
        -11    1    4    4    0    0 -0.25178596256E-01  0.12814682216E-01 -0.12486004914E-01  0.30892381414E-01  0.51100000000E-03 0. -1.
         11    1    4    4    0    0 -0.80036509961E-01  0.11030468651E-01 -0.63468932499E-01  0.10274278894E+00  0.51100000000E-03 0.  1.
</event>
<event>
 8    1  0.1364967E+005  0.1043930E+01  0.7957747E-01            NaN
         13   -1    0    0    0    0  0.00000000000E+00  0.00000000000E+00  0.74505805969E-08  0.10566000000E+00  0.10566000000E+00 0.  1.
     999900   -1    0    0    0    0 -0.00000000000E+00 -0.00000000000E+00 -0.74505805969E-08  0.93827000000E+00  0.93827000000E+00 0. -1.
     999902    2    1    2    0    0 -0.15808670460E-01  0.11250855556E-01  0.11437621851E-01  0.10214063456E+01  0.10211579740E+01 0.  0.
     999903    2    3    3    0    0  0.87100555834E-01  0.82582088840E-02  0.95692584543E-01  0.13140737736E+00  0.21357042100E-01 0.  0.
         14    1    1    2    0    0  0.15808670460E-01 -0.11250855556E-01 -0.11437621851E-01  0.22523654367E-01  0.00000000000E+00 0. -1.
     999901    1    3    3    0    0 -0.10290922629E+00  0.29926466720E-02 -0.84254962691E-01  0.88999896827E+00  0.88000000000E+00 0. -1.
        -11    1    4    4    0    0  0.45836806211E-01  0.14983015565E-01  0.52724753357E-01  0.71453931289E-01  0.51100000000E-03 0. -1.
         11    1    4    4    0    0  0.41263749623E-01 -0.67248066815E-02  0.42967831185E-01  0.59953446070E-01  0.51100000000E-03 0.  1.
</event>
<event>
 8    1  0.1106168E+005  0.1043930E+01  0.7957747E-01            NaN
         13   -1    0    0    0    0  0.00000000000E+00  0.00000000000E+00  0.74505805969E-08  0.10566000000E+00  0.10566000000E+00 0. -1.
     999900   -1    0    0    0    0 -0.00000000000E+00 -0.00000000000E+00 -0.74505805969E-08  0.93827000000E+00  0.93827000000E+00 0. -1.
     999902    2    1    2    0    0 -0.76528877939E-02  0.21534514664E-01 -0.90605168816E-02  0.10193455541E+01  0.10190490487E+01 0.  0.
     999903    2    3    3    0    0 -0.11486406951E-01  0.62400175301E-02  0.12657659199E+00  0.12881422799E+00  0.20014902648E-01 0.  0.
         14    1    1    2    0    0  0.76528877939E-02 -0.21534514664E-01  0.90605168816E-02  0.24584445886E-01  0.00000000000E+00 0. -1.
     999901    1    3    3    0    0  0.38335191568E-02  0.15294497133E-01 -0.13563710887E+00  0.89053132613E+00  0.88000000000E+00 0. -1.
        -11    1    4    4    0    0 -0.52252318119E-02 -0.72434896034E-02  0.42411513024E-01  0.43344766086E-01  0.51100000000E-03 0. -1.
         11    1    4    4    0    0 -0.62611751388E-02  0.13483507133E-01  0.84165078968E-01  0.85469461899E-01  0.51100000000E-03 0.  1.
</event>
<event>
 8    1  0.1106168E+005  0.1043930E+01  0.7957747E-01            NaN
         13   -1    0    0    0    0  0.00000000000E+00  0.00000000000E+00  0.74505805969E-08  0.10566000000E+00  0.10566000000E+00 0. -1.
     999900   -1    0    0    0    0 -0.00000000000E+00 -0.00000000000E+00 -0.74505805969E-08  0.93827000000E+00  0.93827000000E+00 0. -1.
     999902    2    1    2    0    0  0.71994936027E-02 -0.22026338049E-01  0.18952757259E-02  0.10206795302E+01  0.10204146799E+01 0.  0.
     999903    2    3    3    0    0 -0.10662440214E+00  0.65288610265E-01 -0.22949389071E-01  0.12871706641E+00  0.20249517623E-01 0.  0.
         14    1    1    2    0    0 -0.71994936027E-02  0.22026338049E-01 -0.18952757259E-02  0.23250469803E-01  0.00000000000E+00 0.  1.
     999901    1    3    3    0    0  0.11382389574E+00 -0.87314948314E-01  0.24844664797E-01  0.89196246379E+00  0.88000000000E+00 0. -1.
        -11    1    4    4    0    0 -0.15185346054E-01  0.10729064260E-01 -0.10895440788E-01  0.21556421448E-01  0.51100000000E-03 0.  1.
         11    1    4    4    0    0 -0.91439056084E-01  0.54559546005E-01 -0.12053948284E-01  0.10716064496E+00  0.51100000000E-03 0. -1.
</event>
<event>
 8    1  0.1106168E+005  0.1043930E+01  0.7957747E-01            NaN
         13   -1    0    0    0    0  0.00000000000E+00  0.00000000000E+00  0.74505805969E-08  0.10566000000E+00  0.10566000000E+00 0.  1.
     999900   -1    0    0    0    0 -0.00000000000E+00 -0.00000000000E+00 -0.74505805969E-08  0.93827000000E+00  0.93827000000E+00 0.  1.
     999902    2    1    2    0    0 -0.13283176631E-01 -0.22711713843E-01  0.40954084459E-03  0.10176158888E+01  0.10172756090E+01 0.  0.
     999903    2    3    3    0    0 -0.12559409207E+00  0.62782757627E-02  0.24578102602E-01  0.12967541744E+00  0.19958408009E-01 0.  0.
         14    1    1    2    0    0  0.13283176631E-01  0.22711713843E-01 -0.40954084459E-03  0.26314111248E-01  0.00000000000E+00 0.  1.
     999901    1    3    3    0    0  0.11231091544E+00 -0.28989989605E-01 -0.24168561757E-01  0.88794047132E+00  0.88000000000E+00 0.  1.
        -11    1    4    4    0    0 -0.72961533718E-01  0.96062613991E-02  0.22253893614E-01  0.76884085236E-01  0.51100000000E-03 0. -1.
         11    1    4    4    0    0 -0.52632558351E-01 -0.33279856364E-02  0.23242089881E-02  0.52791332199E-01  0.51100000000E-03 0.  1.
</event>
<event>
 8    1  0.1106168E+005  0.1043930E+01  0.7957747E-01            NaN
         13   -1    0    0    0    0  0.00000000000E+00  0.00000000000E+00  0.74505805969E-08  0.10566000000E+00  0.10566000000E+00 0. -1.
     999900   -1    0    0    0    0 -0.00000000000E+00 -0.00000000000E+00 -0.74505805969E-08  0.93827000000E+00  0.93827000000E+00 0. -1.
     999902    2    1    2    0    0  0.23502280412E-01 -0.12246814919E-02  0.28387115852E-02  0.10202252470E+01  0.10199498220E+01 0.  0.
     999903    2    3    3    0    0  0.27700499182E-01 -0.12596110036E+00  0.14475496738E-01  0.13134268224E+00  0.20195140855E-01 0.  0.
         14    1    1    2    0    0 -0.23502280412E-01  0.12246814919E-02 -0.28387115852E-02  0.23704752958E-01  0.00000000000E+00 0.  1.
     999901    1    3    3    0    0 -0.41982187699E-02  0.12473641887E+00 -0.11636785152E-01  0.88888256480E+00  0.88000000000E+00 0. -1.
        -11    1    4    4    0    0  0.22913296601E-01 -0.58463306335E-01  0.92370513295E-02  0.63470950734E-01  0.51100000000E-03 0. -1.
         11    1    4    4    0    0  0.47872025806E-02 -0.67497794026E-01  0.52384454081E-02  0.67871731510E-01  0.51100000000E-03 0.  1.
</event>
<event>
 8    1  0.1106168E+005  0.1043930E+01  0.7957747E-01            NaN
         13   -1    0    0    0    0  0.00000000000E+00  0.00000000000E+00  0.74505805969E-08  0.10566000000E+00  0.10566000000E+00 0. -1.
     999900   -1    0    0    0    0 -0.00000000000E+00 -0.00000000000E+00 -0.74505805969E-08  0.93827000000E+00  0.93827000000E+00 0. -1.
     999902    2    1    2    0    0  0.18815862935E-01 -0.14684624103E-01 -0.23431302795E-02  0.10199473992E+01  0.10196654019E+01 0.  0.
     999903    2    3    3    0    0  0.33266152110E-01 -0.12666510703E+00  0.61497171701E-02  0.13269288784E+00  0.20466979471E-01 0.  0.
         14    1    1    2    0    0 -0.18815862935E-01  0.14684624103E-01  0.23431302795E-02  0.23982600829E-01  0.00000000000E+00 0.  1.
     999901    1    3    3    0    0 -0.14450289175E-01  0.11198048292E+00 -0.84928474496E-02  0.88725451133E+00  0.88000000000E+00 0. -1.
        -11    1    4    4    0    0  0.16949231191E-01 -0.38290670024E-01 -0.48303612899E-02  0.42155015835E-01  0.51100000000E-03 0. -1.
         11    1    4    4    0    0  0.16316920919E-01 -0.88374437003E-01  0.10980078460E-01  0.90537872009E-01  0.51100000000E-03 0.  1.
</event>
<event>
 8    1  0.1106168E+005  0.1043930E+01  0.7957747E-01            NaN
         13   -1    0    0    0    0  0.00000000000E+00  0.00000000000E+00  0.74505805969E-08  0.10566000000E+00  0.10566000000E+00 0. -1.
     999900   -1    0    0    0    0 -0.00000000000E+00 -0.00000000000E+00 -0.74505805969E-08  0.93827000000E+00  0.93827000000E+00 0. -1.
     999902    2    1    2    0    0 -0.18469301742E-02  0.12734353364E-01 -0.19773615205E-01  0.10203382479E+01  0.10200654731E+01 0.  0.
     999903    2    3    3    0    0 -0.10157861058E-01 -0.10846169775E+00 -0.67681376126E-01  0.13070196950E+00  0.25201470889E-01 0.  0.
         14    1    1    2    0    0  0.18469301742E-02 -0.12734353364E-01  0.19773615205E-01  0.23591752053E-01  0.00000000000E+00 0. -1.
     999901    1    3    3    0    0  0.83109308842E-02  0.12119605112E+00  0.47907760921E-01  0.88963627845E+00  0.88000000000E+00 0.  1.
        -11    1    4    4    0    0  0.48357715270E-02 -0.87138425452E-02 -0.11559073031E-01  0.15270528101E-01  0.51100000000E-03 0. -1.
         11    1    4    4    0    0 -0.14993632585E-01 -0.99747855209E-01 -0.56122303095E-01  0.11543144140E+00  0.51100000000E-03 0.  1.
</event>
<event>
 8    1  0.1106168E+005  0.1043930E+01  0.7957747E-01            NaN
         13   -1    0    0    0    0  0.00000000000E+00  0.00000000000E+00  0.74505805969E-08  0.10566000000E+00  0.10566000000E+00 0. -1.
     999900   -1    0    0    0    0 -0.00000000000E+00 -0.00000000000E+00 -0.74505805969E-08  0.93827000000E+00  0.93827000000E+00 0.  1.
     999902    2    1    2    0    0  0.19528467884E-01  0.85615607083E-02 -0.76250323491E-02  0.10212848571E+01  0.10210337687E+01 0.  0.
     999903    2    3    3    0    0 -0.40000528930E-02  0.23645320693E-01  0.12686519624E+00  0.13062850770E+00  0.19847604223E-01 0.  0.
         14    1    1    2    0    0 -0.19528467884E-01 -0.85615607083E-02  0.76250323491E-02  0.22645142922E-01  0.00000000000E+00 0.  1.
     999901    1    3    3    0    0  0.23528520777E-01 -0.15083759984E-01 -0.13449022859E+00  0.89065634938E+00  0.88000000000E+00 0.  1.
        -11    1    4    4    0    0  0.52860421116E-02  0.20598603364E-01  0.82698931144E-01  0.85390977481E-01  0.51100000000E-03 0. -1.
         11    1    4    4    0    0 -0.92860950046E-02  0.30467173290E-02  0.44166265093E-01  0.45237530217E-01  0.51100000000E-03 0.  1.
</event>
<event>
 8    1  0.1106168E+005  0.1043930E+01  0.7957747E-01            NaN
         13   -1    0    0    0    0  0.00000000000E+00  0.00000000000E+00  0.74505805969E-08  0.10566000000E+00  0.10566000000E+00 0.  1.
     999900   -1    0    0    0    0 -0.00000000000E+00 -0.00000000000E+00 -0.74505805969E-08  0.93827000000E+00  0.93827000000E+00 0. -1.
     999902    2    1    2    0    0 -0.63245419207E-02  0.11385139502E-01  0.18962975916E-01  0.10209253116E+01  0.10206660944E+01 0.  0.
     999903    2    3    3    0    0  0.34472139044E-01 -0.66722365139E-01 -0.10200221268E+00  0.12829003990E+00  0.20339138778E-01 0.  0.
         14    1    1    2    0    0  0.63245419207E-02 -0.11385139502E-01 -0.18962975916E-01  0.23004688382E-01  0.00000000000E+00 0. -1.
     999901    1    3    3    0    0 -0.40796680965E-01  0.78107504641E-01  0.12096518860E+00  0.89263527172E+00  0.88000000000E+00 0.  1.
        -11    1    4    4    0    0  0.11077802381E-01 -0.14657001424E-01 -0.39955999819E-01  0.43980546141E-01  0.51100000000E-03 0.  1.
         11    1    4    4    0    0  0.23394336663E-01 -0.52065363715E-01 -0.62046212861E-01  0.84309493761E-01  0.51100000000E-03 0. -1.
</event>
<event>
 8    1  0.1106168E+005  0.1043930E+01  0.7957747E-01            NaN
         13   -1    0    0    0    0  0.00000000000E+00  0.00000000000E+00  0.74505805969E-08  0.10566000000E+00  0.10566000000E+00 0. -1.
     999900   -1    0    0    0    0 -0.00000000000E+00 -0.00000000000E+00 -0.74505805969E-08  0.93827000000E+00  0.93827000000E+00 0.  1.
     999902    2    1    2    0    0 -0.26902269636E-02  0.83484900431E-02 -0.21992708145E-01  0.10202527151E+01  0.10199779355E+01 0.  0.
     999903    2    3    3    0    0 -0.33051398359E-01 -0.79245343839E-01  0.92810233229E-01  0.12796677676E+00  0.19736694501E-01 0.  0.
         14    1    1    2    0    0  0.26902269636E-02 -0.83484900431E-02  0.21992708145E-01  0.23677284867E-01  0.00000000000E+00 0. -1.
     999901    1    3    3    0    0  0.30361171395E-01  0.87593833882E-01 -0.11480294137E+00  0.89228593837E+00  0.88000000000E+00 0.  1.
        -11    1    4    4    0    0 -0.62622354355E-02 -0.38641651985E-01  0.36137847376E-01  0.53278494674E-01  0.51100000000E-03 0. -1.
         11    1    4    4    0    0 -0.26789162923E-01 -0.40603691854E-01  0.56672385853E-01  0.74688282090E-01  0.51100000000E-03 0.  1.
</event>
<event>
 8    1  0.1106168E+005  0.1043930E+01  0.7957747E-01            NaN
         13   -1    0    0    0    0  0.00000000000E+00  0.00000000000E+00  0.74505805969E-08  0.10566000000E+00  0.10566000000E+00 0.  1.
     999900   -1    0    0    0    0 -0.00000000000E+00 -0.00000000000E+00 -0.74505805969E-08  0.93827000000E+00  0.93827000000E+00 0.  1.
     999902    2    1    2    0    0 -0.42927028767E-02 -0.88725255436E-02 -0.21584764093E-01  0.10202013033E+01  0.10199253150E+01 0.  0.
     999903    2    3    3    0    0 -0.91225262459E-01 -0.26403825194E-01 -0.91296686906E-01  0.13300100539E+00  0.18302237523E-01 0.  0.
         14    1    1    2    0    0  0.42927028767E-02  0.88725255436E-02  0.21584764093E-01  0.23728696729E-01  0.00000000000E+00 0.  1.
     999901    1    3    3    0    0  0.86932559582E-01  0.17531299650E-01  0.69711922813E-01  0.88720029788E+00  0.88000000000E+00 0. -1.
        -11    1    4    4    0    0 -0.47910565413E-01 -0.23107046803E-01 -0.52935238063E-01  0.75045042741E-01  0.51100000000E-03 0. -1.
         11    1    4    4    0    0 -0.43314697046E-01 -0.32967783909E-02 -0.38361448843E-01  0.57955962646E-01  0.51100000000E-03 0.  1.
</event>
<event>
 8    1  0.1106168E+005  0.1043930E+01  0.7957747E-01            NaN
         13   -1    0    0    0    0  0.00000000000E+00  0.00000000000E+00  0.74505805969E-08  0.10566000000E+00  0.10566000000E+00 0. -1.
     999900   -1    0    0    0    0 -0.00000000000E+00 -0.00000000000E+00 -0.74505805969E-08  0.93827000000E+00  0.93827000000E+00 0. -1.
     999902    2    1    2    0    0 -0.19264608628E-01 -0.93135731251E-02 -0.11196505019E-01  0.10197798548E+01  0.10194938561E+01 0.  0.
     999903    2    3    3    0    0 -0.75895772793E-01  0.37788784015E-01 -0.99540996906E-01  0.13229437881E+00  0.20130376883E-01 0.  0.
         14    1    1    2    0    0  0.19264608628E-01  0.93135731251E-02  0.11196505019E-01  0.24150145229E-01  0.00000000000E+00 0.  1.
     999901    1    3    3    0    0  0.56631164165E-01 -0.47102357140E-01  0.88344491887E-01  0.88748547597E+00  0.88000000000E+00 0.  1.
        -11    1    4    4    0    0 -0.23475294335E-01  0.75911206973E-02 -0.42502904512E-01  0.49147457416E-01  0.51100000000E-03 0. -1.
         11    1    4    4    0    0 -0.52420478458E-01  0.30197663317E-01 -0.57038092394E-01  0.83146921389E-01  0.51100000000E-03 0.  1.
</event>
<event>
 8    1  0.1106168E+005  0.1043930E+01  0.7957747E-01            NaN
         13   -1    0    0    0    0  0.00000000000E+00  0.00000000000E+00  0.74505805969E-08  0.10566000000E+00  0.10566000000E+00 0. -1.
     999900   -1    0    0    0    0 -0.00000000000E+00 -0.00000000000E+00 -0.74505805969E-08  0.93827000000E+00  0.93827000000E+00 0. -1.
     999902    2    1    2    0    0 -0.10057217444E-01 -0.22546815848E-01  0.61399422487E-03  0.10192341802E+01  0.10189349491E+01 0.  0.
     999903    2    3    3    0    0  0.11548246629E+00  0.35639425368E-01  0.36317301501E-01  0.12770707627E+00  0.19590361930E-01 0.  0.
         14    1    1    2    0    0  0.10057217444E-01  0.22546815848E-01 -0.61399422487E-03  0.24695819819E-01  0.00000000000E+00 0. -1.
     999901    1    3    3    0    0 -0.12553968373E+00 -0.58186241216E-01 -0.35703307276E-01  0.89152710391E+00  0.88000000000E+00 0. -1.
        -11    1    4    4    0    0  0.84651864092E-01  0.26323129900E-01  0.17373346763E-01  0.90337918732E-01  0.51100000000E-03 0. -1.
         11    1    4    4    0    0  0.30830602196E-01  0.93162954684E-02  0.18943954738E-01  0.37369157538E-01  0.51100000000E-03 0.  1.
</event>
<event>
 8    1  0.1106168E+005  0.1043930E+01  0.7957747E-01            NaN
         13   -1    0    0    0    0  0.00000000000E+00  0.00000000000E+00  0.74505805969E-08  0.10566000000E+00  0.10566000000E+00 0. -1.
     999900   -1    0    0    0    0 -0.00000000000E+00 -0.00000000000E+00 -0.74505805969E-08  0.93827000000E+00  0.93827000000E+00 0.  1.
     999902    2    1    2    0    0  0.91487510566E-02  0.10393961444E-01  0.19528883490E-01  0.10199902554E+01  0.10197092771E+01 0.  0.
     999903    2    3    3    0    0  0.10309997038E+00 -0.26410840629E-01 -0.71080133664E-01  0.12960190247E+00  0.20423793149E-01 0.  0.
         14    1    1    2    0    0 -0.91487510566E-02 -0.10393961444E-01 -0.19528883490E-01  0.23939744585E-01  0.00000000000E+00 0.  1.
     999901    1    3    3    0    0 -0.93951219327E-01  0.36804802074E-01  0.90609017155E-01  0.89038835294E+00  0.88000000000E+00 0.  1.
        -11    1    4    4    0    0  0.49064083201E-01 -0.17145699205E-01 -0.23639158592E-01  0.57099301235E-01  0.51100000000E-03 0. -1.
         11    1    4    4    0    0  0.54035887183E-01 -0.92651414247E-02 -0.47440975073E-01  0.72502601237E-01  0.51100000000E-03 0.  1.
</event>
<event>
 7    1  0.1106168E+005  0.1043930E+01  0.7957747E-01            NaN
         13   -1    0    0    0    0  0.00000000000E+00  0.00000000000E+00  0.74505805969E-08  0.10566000000E+00  0.10566000000E+00 0. -1.
     999900   -1    0    0    0    0 -0.00000000000E+00 -0.00000000000E+00 -0.74505805969E-08  0.93827000000E+00  0.93827000000E+00 0. -1.
     999903    2    1    2    0    0 -0.34570407000E-01  0.93601106825E-01  0.50149477261E-01  0.11343157289E+00  0.19886463222E-01 0.  0.
         14    1    1    2    0    0  0.30205090006E-01 -0.35157015339E-01  0.61357998043E-02  0.46754798995E-01  0.00000000000E+00 0. -1.
     999901    1    1    2    0    0  0.43653169937E-02 -0.58444091486E-01 -0.56285277065E-01  0.88374362812E+00  0.88000000000E+00 0. -1.
        -11    1    3    3    0    0 -0.19299295465E-01  0.75509774656E-01  0.36059147768E-01  0.85876144142E-01  0.51100000000E-03 0. -1.
         11    1    3    3    0    0 -0.15271111535E-01  0.18091332169E-01  0.14090329493E-01  0.27555428746E-01  0.51100000000E-03 0.  1.
</event>
<event>
 8    1  0.1106168E+005  0.1043930E+01  0.7957747E-01            NaN
         13   -1    0    0    0    0  0.00000000000E+00  0.00000000000E+00  0.74505805969E-08  0.10566000000E+00  0.10566000000E+00 0.  1.
     999900   -1    0    0    0    0 -0.00000000000E+00 -0.00000000000E+00 -0.74505805969E-08  0.93827000000E+00  0.93827000000E+00 0. -1.
     999902    2    1    2    0    0  0.17816433032E-01  0.66922355369E-02 -0.17963312783E-01  0.10177595604E+01  0.10174230344E+01 0.  0.
     999903    2    3    3    0    0 -0.80634934562E-01  0.39393083848E-01  0.85447962977E-01  0.12565199446E+00  0.20814937134E-01 0.  0.
         14    1    1    2    0    0 -0.17816433032E-01 -0.66922355369E-02  0.17963312783E-01  0.26170439596E-01  0.00000000000E+00 0.  1.
     999901    1    3    3    0    0  0.98451367595E-01 -0.32700848311E-01 -0.10341127576E+00  0.89210756594E+00  0.88000000000E+00 0. -1.
        -11    1    4    4    0    0 -0.52688882848E-01  0.30849735276E-01  0.45466659660E-01  0.76126886210E-01  0.51100000000E-03 0.  1.
         11    1    4    4    0    0 -0.27946051714E-01  0.85433485714E-02  0.39981303317E-01  0.49525108249E-01  0.51100000000E-03 0. -1.
</event>
<event>
 8    1  0.1106168E+005  0.1043930E+01  0.7957747E-01            NaN
         13   -1    0    0    0    0  0.00000000000E+00  0.00000000000E+00  0.74505805969E-08  0.10566000000E+00  0.10566000000E+00 0. -1.
     999900   -1    0    0    0    0 -0.00000000000E+00 -0.00000000000E+00 -0.74505805969E-08  0.93827000000E+00  0.93827000000E+00 0. -1.
     999902    2    1    2    0    0 -0.15576472408E-01 -0.30254221108E-02 -0.17494193561E-01  0.10203116495E+01  0.10200382520E+01 0.  0.
     999903    2    3    3    0    0  0.27212177363E-01 -0.77930293492E-01 -0.10125001260E+00  0.13213562780E+00  0.19865191765E-01 0.  0.
         14    1    1    2    0    0  0.15576472408E-01  0.30254221108E-02  0.17494193561E-01  0.23618350492E-01  0.00000000000E+00 0. -1.
     999901    1    3    3    0    0 -0.42788649771E-01  0.74904871382E-01  0.83755819036E-01  0.88817602170E+00  0.88000000000E+00 0.  1.
        -11    1    4    4    0    0  0.79495333927E-02 -0.22306648563E-01 -0.44271999957E-01  0.50210086162E-01  0.51100000000E-03 0.  1.
         11    1    4    4    0    0  0.19262643971E-01 -0.55623644929E-01 -0.56978012640E-01  0.81925541642E-01  0.51100000000E-03 0. -1.
</event>
<event>
 8    1  0.1106168E+005  0.1043930E+01  0.7957747E-01            NaN
         13   -1    0    0    0    0  0.00000000000E+00  0.00000000000E+00  0.74505805969E-08  0.10566000000E+00  0.10566000000E+00 0.  1.
     999900   -1    0    0    0    0 -0.00000000000E+00 -0.00000000000E+00 -0.74505805969E-08  0.93827000000E+00  0.93827000000E+00 0. -1.
     999902    2    1    2    0    0 -0.20615536433E-02 -0.24336387981E-01 -0.20788237029E-01  0.10118572611E+01  0.10113488301E+01 0.  0.
     999903    2    3    3    0    0  0.66231094044E-01 -0.85517395966E-01  0.56875434148E-01  0.12369137157E+00  0.19103862418E-01 0.  0.
         14    1    1    2    0    0  0.20615536433E-02  0.24336387981E-01  0.20788237029E-01  0.32072738925E-01  0.00000000000E+00 0.  1.
     999901    1    3    3    0    0 -0.68292647688E-01  0.61181007986E-01 -0.77663671177E-01  0.88816588951E+00  0.88000000000E+00 0. -1.
        -11    1    4    4    0    0  0.62844067944E-01 -0.72865518974E-01  0.45971401731E-01  0.10664141611E+00  0.51100000000E-03 0.  1.
         11    1    4    4    0    0  0.33870261009E-02 -0.12651876992E-01  0.10904032418E-01  0.17049955460E-01  0.51100000000E-03 0. -1.
</event>
<event>
 8    1  0.1106168E+005  0.1043930E+01  0.7957747E-01            NaN
         13   -1    0    0    0    0  0.00000000000E+00  0.00000000000E+00  0.74505805969E-08  0.10566000000E+00  0.10566000000E+00 0.  1.
     999900   -1    0    0    0    0 -0.00000000000E+00 -0.00000000000E+00 -0.74505805969E-08  0.93827000000E+00  0.93827000000E+00 0. -1.
     999902    2    1    2    0    0 -0.14519121704E-01  0.86734710607E-02  0.17668394142E-01  0.10194717469E+01  0.10191783144E+01 0.  0.
     999903    2    3    3    0    0  0.22059418430E-01  0.99396411586E-01  0.81327396401E-01  0.13176621567E+00  0.19542917085E-01 0.  0.
         14    1    1    2    0    0  0.14519121704E-01 -0.86734710607E-02 -0.17668394142E-01  0.24458253144E-01  0.00000000000E+00 0. -1.
     999901    1    3    3    0    0 -0.36578540133E-01 -0.90722940525E-01 -0.63659002258E-01  0.88770553119E+00  0.88000000000E+00 0. -1.
        -11    1    4    4    0    0 -0.53335281135E-03  0.40870232436E-01  0.34265848648E-01  0.53339196368E-01  0.51100000000E-03 0. -1.
         11    1    4    4    0    0  0.22592771241E-01  0.58526179149E-01  0.47061547753E-01  0.78427019298E-01  0.51100000000E-03 0.  1.
</event>
<event>
 8    1  0.1106168E+005  0.1043930E+01  0.7957747E-01            NaN
         13   -1    0    0    0    0  0.00000000000E+00  0.00000000000E+00  0.74505805969E-08  0.10566000000E+00  0.10566000000E+00 0. -1.
     999900   -1    0    0    0    0 -0.00000000000E+00 -0.00000000000E+00 -0.74505805969E-08  0.93827000000E+00  0.93827000000E+00 0.  1.
     999902    2    1    2    0    0 -0.13478080373E-01  0.30838136413E-02  0.20280803337E-01  0.10193845413E+01  0.10190889871E+01 0.  0.
     999903    2    3    3    0    0 -0.53810936300E-02  0.17776898826E-01 -0.12415209975E+00  0.12745275502E+00  0.22033760240E-01 0.  0.
         14    1    1    2    0    0  0.13478080373E-01 -0.30838136413E-02 -0.20280803337E-01  0.24545458666E-01  0.00000000000E+00 0. -1.
     999901    1    3    3    0    0 -0.80969867432E-02 -0.14693085185E-01  0.14443290308E+00  0.89193178632E+00  0.88000000000E+00 0. -1.
        -11    1    4    4    0    0 -0.75828185225E-02  0.21876099255E-01 -0.11315973410E+00  0.11550519208E+00  0.51100000000E-03 0.  1.
         11    1    4    4    0    0  0.22017248925E-02 -0.40992004288E-02 -0.10992365647E-01  0.11947562939E-01  0.51100000000E-03 0. -1.
</event>
<event>
 8    1  0.1106168E+005  0.1043930E+01  0.7957747E-01            NaN
         13   -1    0    0    0    0  0.00000000000E+00  0.00000000000E+00  0.74505805969E-08  0.10566000000E+00  0.10566000000E+00 0. -1.
     999900   -1    0    0    0    0 -0.00000000000E+00 -0.00000000000E+00 -0.74505805969E-08  0.93827000000E+00  0.93827000000E+00 0. -1.
     999902    2    1    2    0    0 -0.12265592974E-01 -0.53281437700E-02  0.19155496532E-01  0.10205683448E+01  0.10203009259E+01 0.  0.
     999903    2    3    3    0    0  0.96513706858E-01  0.71991083795E-01  0.45235828883E-01  0.13012385872E+00  0.19706005089E-01 0.  0.
         14    1    1    2    0    0  0.12265592974E-01  0.53281437700E-02 -0.19155496532E-01  0.23361655216E-01  0.00000000000E+00 0.  1.
     999901    1    3    3    0    0 -0.10877929983E+00 -0.77319227565E-01 -0.26080332351E-01  0.89044448606E+00  0.88000000000E+00 0. -1.
        -11    1    4    4    0    0  0.34511489145E-01  0.27150191650E-01  0.66119516112E-02  0.44408949714E-01  0.51100000000E-03 0. -1.
         11    1    4    4    0    0  0.62002217714E-01  0.44840892145E-01  0.38623877272E-01  0.85714909008E-01  0.51100000000E-03 0.  1.
</event>
<event>
 8    1  0.1106168E+005  0.1043930E+01  0.7957747E-01            NaN
         13   -1    0    0    0    0  0.00000000000E+00  0.00000000000E+00  0.74505805969E-08  0.10566000000E+00  0.10566000000E+00 0. -1.
     999900   -1    0    0    0    0 -0.00000000000E+00 -0.00000000000E+00 -0.74505805969E-08  0.93827000000E+00  0.93827000000E+00 0. -1.
     999902    2    1    2    0    0 -0.14992477337E-01  0.36265712709E-03 -0.15954923785E-01  0.10220332996E+01  0.10217987081E+01 0.  0.
     999903    2    3    3    0    0 -0.41971893400E-01  0.10882624411E+00 -0.61795590427E-01  0.13378017950E+00  0.21763505894E-01 0.  0.
         14    1    1    2    0    0  0.14992477337E-01 -0.36265712709E-03  0.15954923785E-01  0.21896700433E-01  0.00000000000E+00 0. -1.
     999901    1    3    3    0    0  0.26979416063E-01 -0.10846358698E+00  0.45840666642E-01  0.88825312007E+00  0.88000000000E+00 0. -1.
        -11    1    4    4    0    0 -0.14273515065E-01  0.63901515220E-01 -0.39613842015E-01  0.76528782035E-01  0.51100000000E-03 0.  1.
         11    1    4    4    0    0 -0.27698378335E-01  0.44924728886E-01 -0.22181748413E-01  0.57251397464E-01  0.51100000000E-03 0. -1.
</event>
<event>
 8    1  0.1106168E+005  0.1043930E+01  0.7957747E-01            NaN
         13   -1    0    0    0    0  0.00000000000E+00  0.00000000000E+00  0.74505805969E-08  0.10566000000E+00  0.10566000000E+00 0. -1.
     999900   -1    0    0    0    0 -0.00000000000E+00 -0.00000000000E+00 -0.74505805969E-08  0.93827000000E+00  0.93827000000E+00 0.  1.
     999902    2    1    2    0    0  0.22288985393E-01 -0.17898627863E-01 -0.92254782011E-02  0.10138922039E+01  0.10134471530E+01 0.  0.
     999903    2    3    3    0    0 -0.70041224284E-02 -0.12450736186E+00 -0.95992106276E-02  0.12697414225E+00  0.21889428205E-01 0.  0.
         14    1    1    2    0    0 -0.22288985393E-01  0.17898627863E-01  0.92254782011E-02  0.30037796145E-01  0.00000000000E+00 0. -1.
     999901    1    3    3    0    0  0.29293107821E-01  0.10660873399E+00  0.37373242651E-03  0.88691806161E+00  0.88000000000E+00 0.  1.
        -11    1    4    4    0    0  0.77722362467E-02 -0.47667823477E-01 -0.17392381687E-02  0.48331305815E-01  0.51100000000E-03 0.  1.
         11    1    4    4    0    0 -0.14776358675E-01 -0.76839538380E-01 -0.78599724589E-02  0.78642836433E-01  0.51100000000E-03 0. -1.
</event>
<event>
 8    1  0.1106168E+005  0.1043930E+01  0.7957747E-01            NaN
         13   -1    0    0    0    0  0.00000000000E+00  0.00000000000E+00  0.74505805969E-08  0.10566000000E+00  0.10566000000E+00 0.  1.
     999900   -1    0    0    0    0 -0.00000000000E+00 -0.00000000000E+00 -0.74505805969E-08  0.93827000000E+00  0.93827000000E+00 0.  1.
     999902    2    1    2    0    0  0.17430497940E-01 -0.13148012448E-01 -0.90367936573E-02  0.10203004395E+01  0.10200267794E+01 0.  0.
     999903    2    3    3    0    0 -0.93526528221E-01 -0.63588665891E-01  0.59291094850E-01  0.12927607310E+00  0.20152896477E-01 0.  0.
         14    1    1    2    0    0 -0.17430497940E-01  0.13148012448E-01  0.90367936573E-02  0.23629560499E-01  0.00000000000E+00 0. -1.
     999901    1    3    3    0    0  0.11095702616E+00  0.50440653442E-01 -0.68327888507E-01  0.89102436640E+00  0.88000000000E+00 0.  1.
        -11    1    4    4    0    0 -0.37389587295E-01 -0.26886895539E-01  0.35353946194E-01  0.58060735633E-01  0.51100000000E-03 0. -1.
         11    1    4    4    0    0 -0.56136940927E-01 -0.36701770351E-01  0.23937148656E-01  0.71215337465E-01  0.51100000000E-03 0.  1.
</event>
<event>
 8    1  0.1106168E+005  0.1043930E+01  0.7957747E-01            NaN
         13   -1    0    0    0    0  0.00000000000E+00  0.00000000000E+00  0.74505805969E-08  0.10566000000E+00  0.10566000000E+00 0.  1.
     999900   -1    0    0    0    0 -0.00000000000E+00 -0.00000000000E+00 -0.74505805969E-08  0.93827000000E+00  0.93827000000E+00 0.  1.
     999902    2    1    2    0    0  0.11453222572E-01  0.67233616004E-02 -0.19687362402E-01  0.10201819025E+01  0.10199054574E+01 0.  0.
     999903    2    3    3    0    0  0.11215198740E+00  0.54131191899E-01 -0.44071743153E-01  0.13283623045E+00  0.13960349594E-01 0.  0.
         14    1    1    2    0    0 -0.11453222572E-01 -0.67233616004E-02  0.19687362402E-01  0.23748097542E-01  0.00000000000E+00 0.  1.
     999901    1    3    3    0    0 -0.10069876483E+00 -0.47407830299E-01  0.24384380751E-01  0.88734567201E+00  0.88000000000E+00 0. -1.
        -11    1    4    4    0    0  0.23521562656E-01  0.92097567599E-02 -0.14652651612E-01  0.29206931534E-01  0.51100000000E-03 0.  1.
         11    1    4    4    0    0  0.88630424744E-01  0.44921435140E-01 -0.29419091541E-01  0.10362929891E+00  0.51100000000E-03 0. -1.
</event>
<event>
 8    1  0.1106168E+005  0.1043930E+01  0.7957747E-01            NaN
         13   -1    0    0    0    0  0.00000000000E+00  0.00000000000E+00  0.74505805969E-08  0.10566000000E+00  0.10566000000E+00 0. -1.
     999900   -1    0    0    0    0 -0.00000000000E+00 -0.00000000000E+00 -0.74505805969E-08  0.93827000000E+00  0.93827000000E+00 0.  1.
     999902    2    1    2    0    0  0.89642406866E-02 -0.42357416933E-02 -0.21421082308E-01  0.10203257231E+01  0.10200526552E+01 0.  0.
     999903    2    3    3    0    0 -0.41626285857E-01 -0.53172038579E-01 -0.11268242727E+00  0.13281076799E+00  0.19528372120E-01 0.  0.
         14    1    1    2    0    0 -0.89642406866E-02  0.42357416933E-02  0.21421082308E-01  0.23604276859E-01  0.00000000000E+00 0. -1.
     999901    1    3    3    0    0  0.50590526544E-01  0.48936296886E-01  0.91261344965E-01  0.88751495515E+00  0.88000000000E+00 0.  1.
        -11    1    4    4    0    0 -0.18186833860E-01 -0.28999102089E-01 -0.73927696423E-01  0.81469468313E-01  0.51100000000E-03 0.  1.
         11    1    4    4    0    0 -0.23439451997E-01 -0.24172936490E-01 -0.38754730850E-01  0.51341299679E-01  0.51100000000E-03 0. -1.
</event>
<event>
 8    1  0.1106168E+005  0.1043930E+01  0.7957747E-01            NaN
         13   -1    0    0    0    0  0.00000000000E+00  0.00000000000E+00  0.74505805969E-08  0.10566000000E+00  0.10566000000E+00 0. -1.
     999900   -1    0    0    0    0 -0.00000000000E+00 -0.00000000000E+00 -0.74505805969E-08  0.93827000000E+00  0.93827000000E+00 0.  1.
     999902    2    1    2    0    0 -0.14032443883E-01  0.17424198277E-01  0.58496407236E-02  0.10208057603E+01  0.10205438108E+01 0.  0.
     999903    2    3    3    0    0  0.69431905599E-01 -0.78164643623E-01  0.72900199056E-01  0.12917842684E+00  0.21026790309E-01 0.  0.
         14    1    1    2    0    0  0.14032443883E-01 -0.17424198277E-01 -0.58496407236E-02  0.23124239739E-01  0.00000000000E+00 0. -1.
     999901    1    3    3    0    0 -0.83464349482E-01  0.95588841900E-01 -0.67050558332E-01  0.89162733342E+00  0.88000000000E+00 0.  1.
        -11    1    4    4    0    0  0.41028541989E-02  0.65694092336E-03  0.19416378711E-02  0.46147657120E-02  0.51100000000E-03 0. -1.
         11    1    4    4    0    0  0.65329051400E-01 -0.78821584547E-01  0.70958561184E-01  0.12456366113E+00  0.51100000000E-03 0.  1.
</event>
<event>
 8    1  0.1106168E+005  0.1043930E+01  0.7957747E-01            NaN
         13   -1    0    0    0    0  0.00000000000E+00  0.00000000000E+00  0.74505805969E-08  0.10566000000E+00  0.10566000000E+00 0.  1.
     999900   -1    0    0    0    0 -0.00000000000E+00 -0.00000000000E+00 -0.74505805969E-08  0.93827000000E+00  0.93827000000E+00 0. -1.
     999902    2    1    2    0    0  0.41130779175E-03  0.10282112030E-01 -0.20691570536E-01  0.10208208656E+01  0.10205592621E+01 0.  0.
     999903    2    3    3    0    0  0.84695794940E-01  0.42459140507E-01 -0.91820465958E-01  0.13335337002E+00  0.19389869342E-01 0.  0.
         14    1    1    2    0    0 -0.41130779175E-03 -0.10282112030E-01  0.20691570536E-01  0.23109134410E-01  0.00000000000E+00 0.  1.
     999901    1    3    3    0    0 -0.84284487148E-01 -0.32177028477E-01  0.71128895421E-01  0.88746749557E+00  0.88000000000E+00 0.  1.
        -11    1    4    4    0    0  0.40675120627E-01  0.13803809805E-01 -0.51936214816E-01  0.67399125615E-01  0.51100000000E-03 0. -1.
         11    1    4    4    0    0  0.44020674312E-01  0.28655330702E-01 -0.39884251141E-01  0.65954244402E-01  0.51100000000E-03 0.  1.
</event>
<event>
 8    1  0.1106168E+005  0.1043930E+01  0.7957747E-01            NaN
         13   -1    0    0    0    0  0.00000000000E+00  0.00000000000E+00  0.74505805969E-08  0.10566000000E+00  0.10566000000E+00 0. -1.
     999900   -1    0    0    0    0 -0.00000000000E+00 -0.00000000000E+00 -0.74505805969E-08  0.93827000000E+00  0.93827000000E+00 0.  1.
     999902    2    1    2    0    0  0.21008545480E-01 -0.78973385112E-02 -0.56707068124E-02  0.10207808347E+01  0.10205183137E+01 0.  0.
     999903    2    3    3    0    0 -0.23995335796E-01  0.90251222617E-01 -0.88746339134E-01  0.13029779158E+00  0.19507497460E-01 0.  0.
         14    1    1    2    0    0 -0.21008545480E-01  0.78973385112E-02  0.56707068124E-02  0.23149165309E-01  0.00000000000E+00 0.  1.
     999901    1    3    3    0    0  0.45003881277E-01 -0.98148561129E-01  0.83075632322E-01  0.89048304311E+00  0.88000000000E+00 0. -1.
        -11    1    4    4    0    0 -0.35874956116E-02  0.24565239733E-01 -0.13175694137E-01  0.28110161239E-01  0.51100000000E-03 0.  1.
         11    1    4    4    0    0 -0.20407840185E-01  0.65685982885E-01 -0.75570644997E-01  0.10218763034E+00  0.51100000000E-03 0. -1.
</event>
<event>
 7    1  0.1106168E+005  0.1043930E+01  0.7957747E-01            NaN
         13   -1    0    0    0    0  0.00000000000E+00  0.00000000000E+00  0.74505805969E-08  0.10566000000E+00  0.10566000000E+00 0. -1.
     999900   -1    0    0    0    0 -0.00000000000E+00 -0.00000000000E+00 -0.74505805969E-08  0.93827000000E+00  0.93827000000E+00 0.  1.
     999903    2    1    2    0    0  0.11528276372E-01 -0.70900587322E-01 -0.47541292545E-01  0.88421655759E-01  0.19960467720E-01 0.  0.
         14    1    1    2    0    0  0.42732164068E-01 -0.38941095939E-01 -0.27180922711E-01  0.63884656674E-01  0.00000000000E+00 0.  1.
     999901    1    1    2    0    0 -0.54260440441E-01  0.10984168326E+00  0.74722215256E-01  0.89162368757E+00  0.88000000000E+00 0. -1.
        -11    1    3    3    0    0 -0.55470664244E-03 -0.34227708783E-01 -0.31782448166E-01  0.46714332709E-01  0.51100000000E-03 0.  1.
         11    1    3    3    0    0  0.12082983015E-01 -0.36672878539E-01 -0.15758844379E-01  0.41707323050E-01  0.51100000000E-03 0. -1.
</event>
<event>
 8    1  0.1106168E+005  0.1043930E+01  0.7957747E-01            NaN
         13   -1    0    0    0    0  0.00000000000E+00  0.00000000000E+00  0.74505805969E-08  0.10566000000E+00  0.10566000000E+00 0.  1.
     999900   -1    0    0    0    0 -0.00000000000E+00 -0.00000000000E+00 -0.74505805969E-08  0.93827000000E+00  0.93827000000E+00 0.  1.
     999902    2    1    2    0    0 -0.17380788064E-01  0.16370289791E-01 -0.22145533638E-03  0.10200526630E+01  0.10197731650E+01 0.  0.
     999903    2    3    3    0    0  0.91954191237E-01 -0.31339080810E-01 -0.81374305010E-01  0.12830375954E+00  0.20059060904E-01 0.  0.
         14    1    1    2    0    0  0.17380788064E-01 -0.16370289791E-01  0.22145533638E-03  0.23877337038E-01  0.00000000000E+00 0.  1.
     999901    1    3    3    0    0 -0.10933497930E+00  0.47709370601E-01  0.81152849674E-01  0.89174890342E+00  0.88000000000E+00 0. -1.
        -11    1    4    4    0    0  0.18082145686E-01 -0.10708127577E-01 -0.27312205050E-01  0.34465136798E-01  0.51100000000E-03 0.  1.
         11    1    4    4    0    0  0.73872045551E-01 -0.20630953233E-01 -0.54062099960E-01  0.93838622743E-01  0.51100000000E-03 0. -1.
</event>
<event>
 8    1  0.1106168E+005  0.1043930E+01  0.7957747E-01            NaN
         13   -1    0    0    0    0  0.00000000000E+00  0.00000000000E+00  0.74505805969E-08  0.10566000000E+00  0.10566000000E+00 0. -1.
     999900   -1    0    0    0    0 -0.00000000000E+00 -0.00000000000E+00 -0.74505805969E-08  0.93827000000E+00  0.93827000000E+00 0. -1.
     999902    2    1    2    0    0 -0.52635773236E-02  0.12464774813E-01 -0.92268290024E-02  0.10275528748E+01  0.10274223573E+01 0.  0.
     999903    2    3    3    0    0  0.37335272580E-01  0.12714593014E+00  0.32125928473E-01  0.13812807191E+00  0.22074393295E-01 0.  0.
         14    1    1    2    0    0  0.52635773236E-02 -0.12464774813E-01  0.92268290024E-02  0.16377125231E-01  0.00000000000E+00 0. -1.
     999901    1    3    3    0    0 -0.42598849904E-01 -0.11468115532E+00 -0.41352757475E-01  0.88942480286E+00  0.88000000000E+00 0.  1.
        -11    1    4    4    0    0  0.22914990596E-01  0.65980041800E-01  0.27658469051E-01  0.75124661338E-01  0.51100000000E-03 0. -1.
         11    1    4    4    0    0  0.14420281984E-01  0.61165888336E-01  0.44674594220E-02  0.63003410567E-01  0.51100000000E-03 0.  1.
</event>
<event>
 8    1  0.1106168E+005  0.1043930E+01  0.7957747E-01            NaN
         13   -1    0    0    0    0  0.00000000000E+00  0.00000000000E+00  0.74505805969E-08  0.10566000000E+00  0.10566000000E+00 0.  1.
     999900   -1    0    0    0    0 -0.00000000000E+00 -0.00000000000E+00 -0.74505805969E-08  0.93827000000E+00  0.93827000000E+00 0. -1.
     999902    2    1    2    0    0  0.19141981848E-01 -0.16129386631E-02 -0.12727113352E-01  0.10208866397E+01  0.10206265402E+01 0.  0.
     999903    2    3    3    0    0 -0.79501712841E-01 -0.10043554226E+00 -0.45494623121E-02  0.12984042346E+00  0.20736862381E-01 0.  0.
         14    1    1    2    0    0 -0.19141981848E-01  0.16129386631E-02  0.12727113352E-01  0.23043360312E-01  0.00000000000E+00 0. -1.
     999901    1    3    3    0    0  0.98643694689E-01  0.98822603601E-01 -0.81776510394E-02  0.89104621623E+00  0.88000000000E+00 0. -1.
        -11    1    4    4    0    0 -0.44517851799E-01 -0.50980190563E-01  0.74195863771E-02  0.68089135269E-01  0.51100000000E-03 0.  1.
         11    1    4    4    0    0 -0.34983861042E-01 -0.49455351701E-01 -0.11969048689E-01  0.61751288188E-01  0.51100000000E-03 0. -1.
</event>
<event>
 8    1  0.1106168E+005  0.1043930E+01  0.7957747E-01            NaN
         13   -1    0    0    0    0  0.00000000000E+00  0.00000000000E+00  0.74505805969E-08  0.10566000000E+00  0.10566000000E+00 0.  1.
     999900   -1    0    0    0    0 -0.00000000000E+00 -0.00000000000E+00 -0.74505805969E-08  0.93827000000E+00  0.93827000000E+00 0. -1.
     999902    2    1    2    0    0  0.11487622759E-01 -0.19477855929E-02 -0.19393933199E-01  0.10213051466E+01  0.10210545130E+01 0.  0.
     999903    2    3    3    0    0 -0.64714168916E-01  0.50940398915E-02 -0.11436839588E+00  0.13289282742E+00  0.19144208033E-01 0.  0.
         14    1    1    2    0    0 -0.11487622759E-01  0.19477855929E-02  0.19393933199E-01  0.22624853376E-01  0.00000000000E+00 0. -1.
     999901    1    3    3    0    0  0.76201791675E-01 -0.70418254844E-02  0.94974462682E-01  0.88841231921E+00  0.88000000000E+00 0. -1.
        -11    1    4    4    0    0 -0.32556803652E-01  0.11668505482E-01 -0.52811555454E-01  0.63130190834E-01  0.51100000000E-03 0. -1.
         11    1    4    4    0    0 -0.32157365264E-01 -0.65744655903E-02 -0.61556840426E-01  0.69762636582E-01  0.51100000000E-03 0.  1.
</event>
<event>
 8    1  0.1106168E+005  0.1043930E+01  0.7957747E-01            NaN
         13   -1    0    0    0    0  0.00000000000E+00  0.00000000000E+00  0.74505805969E-08  0.10566000000E+00  0.10566000000E+00 0. -1.
     999900   -1    0    0    0    0 -0.00000000000E+00 -0.00000000000E+00 -0.74505805969E-08  0.93827000000E+00  0.93827000000E+00 0.  1.
     999902    2    1    2    0    0  0.18577114939E-01 -0.13385853192E-01  0.61683959173E-02  0.10202163041E+01  0.10199406688E+01 0.  0.
     999903    2    3    3    0    0  0.11454752682E+00  0.21870994551E-01 -0.58549134760E-01  0.13193609828E+00  0.19484777296E-01 0.  0.
         14    1    1    2    0    0 -0.18577114939E-01  0.13385853192E-01 -0.61683959173E-02  0.23713695902E-01  0.00000000000E+00 0. -1.
     999901    1    3    3    0    0 -0.95970411877E-01 -0.35256847743E-01  0.64717530677E-01  0.88828020582E+00  0.88000000000E+00 0. -1.
        -11    1    4    4    0    0  0.64168814885E-01  0.10049048732E-01 -0.43015987177E-01  0.77905432788E-01  0.51100000000E-03 0.  1.
         11    1    4    4    0    0  0.50378711931E-01  0.11821945819E-01 -0.15533147583E-01  0.54030665493E-01  0.51100000000E-03 0. -1.
</event>
<event>
 8    1  0.1106168E+005  0.1043930E+01  0.7957747E-01            NaN
         13   -1    0    0    0    0  0.00000000000E+00  0.00000000000E+00  0.74505805969E-08  0.10566000000E+00  0.10566000000E+00 0.  1.
     999900   -1    0    0    0    0 -0.00000000000E+00 -0.00000000000E+00 -0.74505805969E-08  0.93827000000E+00  0.93827000000E+00 0. -1.
     999902    2    1    2    0    0  0.22878696858E-01 -0.19032378386E-02 -0.75183736521E-02  0.10197725368E+01  0.10194863628E+01 0.  0.
     999903    2    3    3    0    0  0.52774640012E-01 -0.47864067170E-01 -0.10959674767E+00  0.13217681823E+00  0.19573773870E-01 0.  0.
         14    1    1    2    0    0 -0.22878696858E-01  0.19032378386E-02  0.75183736521E-02  0.24157463165E-01  0.00000000000E+00 0. -1.
     999901    1    3    3    0    0 -0.29895943154E-01  0.45960829331E-01  0.10207837401E+00  0.88759571861E+00  0.88000000000E+00 0.  1.
        -11    1    4    4    0    0  0.31460743040E-01 -0.25508410458E-01 -0.44823758693E-01  0.60414301462E-01  0.51100000000E-03 0.  1.
         11    1    4    4    0    0  0.21313896971E-01 -0.22355656712E-01 -0.64772988972E-01  0.71762516766E-01  0.51100000000E-03 0. -1.
</event>
<event>
 8    1  0.1106168E+005  0.1043930E+01  0.7957747E-01            NaN
         13   -1    0    0    0    0  0.00000000000E+00  0.00000000000E+00  0.74505805969E-08  0.10566000000E+00  0.10566000000E+00 0. -1.
     999900   -1    0    0    0    0 -0.00000000000E+00 -0.00000000000E+00 -0.74505805969E-08  0.93827000000E+00  0.93827000000E+00 0. -1.
     999902    2    1    2    0    0  0.16700333150E-01  0.48941264409E-02  0.25616576199E-01  0.10129612645E+01  0.10124877584E+01 0.  0.
     999903    2    3    3    0    0  0.58614479823E-01 -0.26668636362E-01 -0.10146821479E+00  0.12228537073E+00  0.22606190967E-01 0.  0.
         14    1    1    2    0    0 -0.16700333150E-01 -0.48941264409E-02 -0.25616576199E-01  0.30968735479E-01  0.00000000000E+00 0.  1.
     999901    1    3    3    0    0 -0.41914146673E-01  0.31562762803E-01  0.12708479099E+00  0.89067589380E+00  0.88000000000E+00 0.  1.
        -11    1    4    4    0    0  0.70372097042E-02  0.11924132654E-02 -0.24563293933E-01  0.25584383902E-01  0.51100000000E-03 0. -1.
         11    1    4    4    0    0  0.51577270119E-01 -0.27861049627E-01 -0.76904920860E-01  0.96700986824E-01  0.51100000000E-03 0.  1.
</event>
<event>
 8    1  0.1106168E+005  0.1043930E+01  0.7957747E-01            NaN
         13   -1    0    0    0    0  0.00000000000E+00  0.00000000000E+00  0.74505805969E-08  0.10566000000E+00  0.10566000000E+00 0. -1.
     999900   -1    0    0    0    0 -0.00000000000E+00 -0.00000000000E+00 -0.74505805969E-08  0.93827000000E+00  0.93827000000E+00 0. -1.
     999902    2    1    2    0    0 -0.14980066046E-01  0.11472508235E-01  0.13577302723E-01  0.10206842698E+01  0.10204195287E+01 0.  0.
     999903    2    3    3    0    0  0.47482786738E-02  0.59624578580E-02  0.13000468338E+00  0.13277948705E+00  0.25905162136E-01 0.  0.
         14    1    1    2    0    0  0.14980066046E-01 -0.11472508235E-01 -0.13577302723E-01  0.23245730214E-01  0.00000000000E+00 0.  1.
     999901    1    3    3    0    0 -0.19728344720E-01  0.55100503768E-02 -0.11642738066E+00  0.88790478274E+00  0.88000000000E+00 0. -1.
        -11    1    4    4    0    0  0.13336802393E-01  0.12843537862E-02  0.10613959169E+00  0.10698314778E+00  0.51100000000E-03 0. -1.
         11    1    4    4    0    0 -0.85885237194E-02  0.46781040718E-02  0.23865091690E-01  0.25796339270E-01  0.51100000000E-03 0.  1.
</event>
<event>
 8    1  0.1106168E+005  0.1043930E+01  0.7957747E-01            NaN
         13   -1    0    0    0    0  0.00000000000E+00  0.00000000000E+00  0.74505805969E-08  0.10566000000E+00  0.10566000000E+00 0. -1.
     999900   -1    0    0    0    0 -0.00000000000E+00 -0.00000000000E+00 -0.74505805969E-08  0.93827000000E+00  0.93827000000E+00 0. -1.
     999902    2    1    2    0    0  0.18600731001E-01 -0.15083296524E-01  0.26100902249E-02  0.10198404670E+01  0.10195559193E+01 0.  0.
     999903    2    3    3    0    0  0.89600024453E-01 -0.85938895304E-01 -0.39465569498E-01  0.13314335037E+00  0.27494771575E-01 0.  0.
         14    1    1    2    0    0 -0.18600731001E-01  0.15083296524E-01 -0.26100902249E-02  0.24089532972E-01  0.00000000000E+00 0.  1.
     999901    1    3    3    0    0 -0.70999293452E-01  0.70855598780E-01  0.42075659723E-01  0.88669711666E+00  0.88000000000E+00 0. -1.
        -11    1    4    4    0    0  0.18337227577E-01 -0.34499977616E-01 -0.87553650225E-02  0.40042726035E-01  0.51100000000E-03 0.  1.
         11    1    4    4    0    0  0.71262796876E-01 -0.51438917688E-01 -0.30710204475E-01  0.93100624335E-01  0.51100000000E-03 0. -1.
</event>
<event>
 8    1  0.1106168E+005  0.1043930E+01  0.7957747E-01            NaN
         13   -1    0    0    0    0  0.00000000000E+00  0.00000000000E+00  0.74505805969E-08  0.10566000000E+00  0.10566000000E+00 0.  1.
     999900   -1    0    0    0    0 -0.00000000000E+00 -0.00000000000E+00 -0.74505805969E-08  0.93827000000E+00  0.93827000000E+00 0.  1.
     999902    2    1    2    0    0 -0.44600490357E-02 -0.64571256819E-02  0.22241206880E-01  0.10203448820E+01  0.10200722623E+01 0.  0.
     999903    2    3    3    0    0 -0.84143333812E-01  0.64721838301E-01 -0.70521402241E-01  0.12904203083E+00  0.20237602819E-01 0.  0.
         14    1    1    2    0    0  0.44600490357E-02  0.64571256819E-02 -0.22241206880E-01  0.23585118040E-01  0.00000000000E+00 0. -1.
     999901    1    3    3    0    0  0.79683284776E-01 -0.71178963983E-01  0.92762609121E-01  0.89130285113E+00  0.88000000000E+00 0. -1.
        -11    1    4    4    0    0 -0.29219003920E-02  0.31829021766E-02 -0.90299676363E-02  0.10023462709E-01  0.51100000000E-03 0.  1.
         11    1    4    4    0    0 -0.81221433420E-01  0.61538936125E-01 -0.61491434605E-01  0.11901856812E+00  0.51100000000E-03 0. -1.
</event>
<event>
 8    1  0.1106168E+005  0.1043930E+01  0.7957747E-01            NaN
         13   -1    0    0    0    0  0.00000000000E+00  0.00000000000E+00  0.74505805969E-08  0.10566000000E+00  0.10566000000E+00 0.  1.
     999900   -1    0    0    0    0 -0.00000000000E+00 -0.00000000000E+00 -0.74505805969E-08  0.93827000000E+00  0.93827000000E+00 0.  1.
     999902    2    1    2    0    0  0.43806878195E-02 -0.69894598191E-02 -0.19097351994E-01  0.10231273120E+01  0.10229158053E+01 0.  0.
     999903    2    3    3    0    0  0.12874527231E+00  0.19068699403E-01 -0.24630126167E-01  0.13398379765E+00  0.20150793544E-01 0.  0.
         14    1    1    2    0    0 -0.43806878195E-02  0.69894598191E-02  0.19097351994E-01  0.20802687988E-01  0.00000000000E+00 0.  1.
     999901    1    3    3    0    0 -0.12436458449E+00 -0.26058159222E-01  0.55327741731E-02  0.88914351436E+00  0.88000000000E+00 0.  1.
        -11    1    4    4    0    0  0.20178910882E-01 -0.12075500851E-03 -0.10730640001E-01  0.22860682011E-01  0.51100000000E-03 0. -1.
         11    1    4    4    0    0  0.10856636142E+00  0.19189454411E-01 -0.13899486167E-01  0.11112311564E+00  0.51100000000E-03 0.  1.
</event>
<event>
 8    1  0.1106168E+005  0.1043930E+01  0.7957747E-01            NaN
         13   -1    0    0    0    0  0.00000000000E+00  0.00000000000E+00  0.74505805969E-08  0.10566000000E+00  0.10566000000E+00 0.  1.
     999900   -1    0    0    0    0 -0.00000000000E+00 -0.00000000000E+00 -0.74505805969E-08  0.93827000000E+00  0.93827000000E+00 0.  1.
     999902    2    1    2    0    0  0.16111850550E-01  0.93918535811E-02 -0.13910917027E-01  0.10206638818E+01  0.10203986708E+01 0.  0.
     999903    2    3    3    0    0  0.96603235460E-01 -0.86063941427E-01 -0.16053130124E-01  0.13184710605E+00  0.19666450400E-01 0.  0.
         14    1    1    2    0    0 -0.16111850550E-01 -0.93918535811E-02  0.13910917027E-01  0.23266118163E-01  0.00000000000E+00 0.  1.
     999901    1    3    3    0    0 -0.80491384911E-01  0.95455795008E-01  0.21422130972E-02  0.88881677579E+00  0.88000000000E+00 0. -1.
        -11    1    4    4    0    0  0.16472392140E-01 -0.10631742245E-01 -0.89765052601E-02  0.21568783315E-01  0.51100000000E-03 0.  1.
         11    1    4    4    0    0  0.80130843320E-01 -0.75432199182E-01 -0.70766248640E-02  0.11027832273E+00  0.51100000000E-03 0. -1.
</event>
<event>
 8    1  0.1106168E+005  0.1043930E+01  0.7957747E-01            NaN
         13   -1    0    0    0    0  0.00000000000E+00  0.00000000000E+00  0.74505805969E-08  0.10566000000E+00  0.10566000000E+00 0.  1.
     999900   -1    0    0    0    0 -0.00000000000E+00 -0.00000000000E+00 -0.74505805969E-08  0.93827000000E+00  0.93827000000E+00 0. -1.
     999902    2    1    2    0    0  0.21861250504E-01 -0.83544846085E-02 -0.18717185680E-02  0.10204520312E+01  0.10201819117E+01 0.  0.
     999903    2    3    3    0    0  0.68753205642E-01 -0.70412693708E-01  0.86711164225E-01  0.13259111652E+00  0.19406891974E-01 0.  0.
         14    1    1    2    0    0 -0.21861250504E-01  0.83544846085E-02  0.18717185680E-02  0.23477968759E-01  0.00000000000E+00 0.  1.
     999901    1    3    3    0    0 -0.46891955139E-01  0.62058209099E-01 -0.88582882793E-01  0.88786091473E+00  0.88000000000E+00 0. -1.
        -11    1    4    4    0    0  0.60070471381E-01 -0.55647294058E-01  0.62906482753E-01  0.10325971897E+00  0.51100000000E-03 0. -1.
         11    1    4    4    0    0  0.86827342610E-02 -0.14765399650E-01  0.23804681473E-01  0.29331397548E-01  0.51100000000E-03 0.  1.
</event>
<event>
 8    1  0.1106168E+005  0.1043930E+01  0.7957747E-01            NaN
         13   -1    0    0    0    0  0.00000000000E+00  0.00000000000E+00  0.74505805969E-08  0.10566000000E+00  0.10566000000E+00 0.  1.
     999900   -1    0    0    0    0 -0.00000000000E+00 -0.00000000000E+00 -0.74505805969E-08  0.93827000000E+00  0.93827000000E+00 0.  1.
     999902    2    1    2    0    0  0.16964518350E-01 -0.60098067690E-02  0.16226778685E-01  0.10196973566E+01  0.10194093771E+01 0.  0.
     999903    2    3    3    0    0 -0.12571953779E+00 -0.97182624227E-02  0.10911693612E-01  0.12818137656E+00  0.20286779750E-01 0.  0.
         14    1    1    2    0    0 -0.16964518350E-01  0.60098067690E-02 -0.16226778685E-01  0.24232643412E-01  0.00000000000E+00 0. -1.
     999901    1    3    3    0    0  0.14268405614E+00  0.37084556537E-02  0.53150850727E-02  0.89151598003E+00  0.88000000000E+00 0.  1.
        -11    1    4    4    0    0 -0.50777825805E-01  0.73484364432E-03 -0.44099899558E-02  0.50976825333E-01  0.51100000000E-03 0. -1.
         11    1    4    4    0    0 -0.74941711983E-01 -0.10453106067E-01  0.15321683568E-01  0.77204551225E-01  0.51100000000E-03 0.  1.
</event>
<event>
 8    1  0.1106168E+005  0.1043930E+01  0.7957747E-01            NaN
         13   -1    0    0    0    0  0.00000000000E+00  0.00000000000E+00  0.74505805969E-08  0.10566000000E+00  0.10566000000E+00 0. -1.
     999900   -1    0    0    0    0 -0.00000000000E+00 -0.00000000000E+00 -0.74505805969E-08  0.93827000000E+00  0.93827000000E+00 0. -1.
     999902    2    1    2    0    0 -0.15830375835E-01 -0.84320313241E-02 -0.16005796823E-01  0.10198907512E+01  0.10196074043E+01 0.  0.
     999903    2    3    3    0    0  0.91531229425E-01  0.64147303594E-01 -0.61717892298E-01  0.12922590412E+00  0.19934732171E-01 0.  0.
         14    1    1    2    0    0  0.15830375835E-01  0.84320313241E-02  0.16005796823E-01  0.24039248808E-01  0.00000000000E+00 0. -1.
     999901    1    3    3    0    0 -0.10736160526E+00 -0.72579334918E-01  0.45712095474E-01  0.89066484707E+00  0.88000000000E+00 0.  1.
        -11    1    4    4    0    0  0.76998257739E-01  0.56553846971E-01 -0.44331069889E-01  0.10532129025E+00  0.51100000000E-03 0.  1.
         11    1    4    4    0    0  0.14532971686E-01  0.75934566228E-02 -0.17386822408E-01  0.23904613864E-01  0.51100000000E-03 0. -1.
</event>
<event>
 8    1  0.1106168E+005  0.1043930E+01  0.7957747E-01            NaN
         13   -1    0    0    0    0  0.00000000000E+00  0.00000000000E+00  0.74505805969E-08  0.10566000000E+00  0.10566000000E+00 0.  1.
     999900   -1    0    0    0    0 -0.00000000000E+00 -0.00000000000E+00 -0.74505805969E-08  0.93827000000E+00  0.93827000000E+00 0. -1.
     999902    2    1    2    0    0  0.22846997947E-01  0.83594400887E-02 -0.69325219564E-03  0.10195918375E+01  0.10193013141E+01 0.  0.
     999903    2    3    3    0    0 -0.91139693486E-01  0.46571752470E-01 -0.74786754741E-01  0.12833261948E+00  0.20020756255E-01 0.  0.
         14    1    1    2    0    0 -0.22846997947E-01 -0.83594400887E-02  0.69325219564E-03  0.24338162469E-01  0.00000000000E+00 0.  1.
     999901    1    3    3    0    0  0.11398669143E+00 -0.38212312382E-01  0.74093502545E-01  0.89125921805E+00  0.88000000000E+00 0.  1.
        -11    1    4    4    0    0 -0.77186064141E-01  0.34381315908E-01 -0.53073961525E-01  0.99784116442E-01  0.51100000000E-03 0. -1.
         11    1    4    4    0    0 -0.13953629345E-01  0.12190436563E-01 -0.21712793216E-01  0.28548503038E-01  0.51100000000E-03 0.  1.
</event>
<event>
 8    1  0.1106168E+005  0.1043930E+01  0.7957747E-01            NaN
         13   -1    0    0    0    0  0.00000000000E+00  0.00000000000E+00  0.74505805969E-08  0.10566000000E+00  0.10566000000E+00 0. -1.
     999900   -1    0    0    0    0 -0.00000000000E+00 -0.00000000000E+00 -0.74505805969E-08  0.93827000000E+00  0.93827000000E+00 0. -1.
     999902    2    1    2    0    0 -0.58025121587E-02 -0.55908426120E-02 -0.22319702184E-01  0.10202003609E+01  0.10199243504E+01 0.  0.
     999903    2    3    3    0    0  0.11852797230E+00  0.53715984644E-04 -0.52092534409E-01  0.13094429428E+00  0.19593186564E-01 0.  0.
         14    1    1    2    0    0  0.58025121587E-02  0.55908426120E-02  0.22319702184E-01  0.23729639147E-01  0.00000000000E+00 0.  1.
     999901    1    3    3    0    0 -0.12433048446E+00 -0.56445585966E-02  0.29772832225E-01  0.88925606658E+00  0.88000000000E+00 0.  1.
        -11    1    4    4    0    0  0.10867491771E-02 -0.11054270026E-02  0.11448261334E-02  0.19936751259E-02  0.51100000000E-03 0. -1.
         11    1    4    4    0    0  0.11744122312E+00  0.11591429873E-02 -0.53237360543E-01  0.12895061915E+00  0.51100000000E-03 0.  1.
</event>
<event>
 7    1  0.1106168E+005  0.1043930E+01  0.7957747E-01            NaN
         13   -1    0    0    0    0  0.00000000000E+00  0.00000000000E+00  0.74505805969E-08  0.10566000000E+00  0.10566000000E+00 0.  1.
     999900   -1    0    0    0    0 -0.00000000000E+00 -0.00000000000E+00 -0.74505805969E-08  0.93827000000E+00  0.93827000000E+00 0. -1.
     999903    2    1    2    0    0  0.19492046173E-01  0.43757935276E-01 -0.13145648421E-02  0.51511857515E-01  0.18895677291E-01 0.  0.
         14    1    1    2    0    0 -0.26391711489E-01  0.54190609286E-01 -0.83413590543E-01  0.10291244656E+00  0.00000000000E+00 0. -1.
     999901    1    1    2    0    0  0.68996653164E-02 -0.97948544563E-01  0.84728155385E-01  0.88950569592E+00  0.88000000000E+00 0.  1.
        -11    1    3    3    0    0  0.42556805806E-02  0.31132966391E-01 -0.33924399074E-02  0.31609210415E-01  0.51100000000E-03 0. -1.
         11    1    3    3    0    0  0.15236365592E-01  0.12624968885E-01  0.20778750654E-02  0.19902647100E-01  0.51100000000E-03 0.  1.
</event>
<event>
 8    1  0.1106168E+005  0.1043930E+01  0.7957747E-01            NaN
         13   -1    0    0    0    0  0.00000000000E+00  0.00000000000E+00  0.74505805969E-08  0.10566000000E+00  0.10566000000E+00 0.  1.
     999900   -1    0    0    0    0 -0.00000000000E+00 -0.00000000000E+00 -0.74505805969E-08  0.93827000000E+00  0.93827000000E+00 0. -1.
     999902    2    1    2    0    0 -0.37032435565E-02 -0.18735225771E-01  0.15584258057E-01  0.10192806228E+01  0.10189825299E+01 0.  0.
     999903    2    3    3    0    0  0.86387778774E-01  0.48770677519E-01  0.81112769765E-01  0.12969227691E+00  0.19984443044E-01 0.  0.
         14    1    1    2    0    0  0.37032435565E-02  0.18735225771E-01 -0.15584258057E-01  0.24649377208E-01  0.00000000000E+00 0. -1.
     999901    1    3    3    0    0 -0.90091022331E-01 -0.67505903290E-01 -0.65528511708E-01  0.88958834588E+00  0.88000000000E+00 0. -1.
        -11    1    4    4    0    0  0.59553988474E-01  0.27864523547E-01  0.63388861291E-01  0.91331911578E-01  0.51100000000E-03 0. -1.
         11    1    4    4    0    0  0.26833790300E-01  0.20906153973E-01  0.17723908474E-01  0.38360365332E-01  0.51100000000E-03 0.  1.
</event>
<event>
 8    1  0.1106168E+005  0.1043930E+01  0.7957747E-01            NaN
         13   -1    0    0    0    0  0.00000000000E+00  0.00000000000E+00  0.74505805969E-08  0.10566000000E+00  0.10566000000E+00 0. -1.
     999900   -1    0    0    0    0 -0.00000000000E+00 -0.00000000000E+00 -0.74505805969E-08  0.93827000000E+00  0.93827000000E+00 0.  1.
     999902    2    1    2    0    0 -0.19279858557E-01  0.12776005545E-01 -0.62960683331E-02  0.10199596070E+01  0.10196779002E+01 0.  0.
     999903    2    3    3    0    0 -0.73225223760E-01 -0.10462962832E+00 -0.19016541340E-01  0.13043389309E+00  0.18495380641E-01 0.  0.
         14    1    1    2    0    0  0.19279858557E-01 -0.12776005545E-01  0.62960683331E-02  0.23970392991E-01  0.00000000000E+00 0. -1.
     999901    1    3    3    0    0  0.53945365203E-01  0.11740563386E+00  0.12720473007E-01  0.88952571392E+00  0.88000000000E+00 0. -1.
        -11    1    4    4    0    0 -0.49279208232E-01 -0.82891028020E-01 -0.17812666628E-01  0.98065871248E-01  0.51100000000E-03 0. -1.
         11    1    4    4    0    0 -0.23946015528E-01 -0.21738600299E-01 -0.12038747113E-02  0.32368021842E-01  0.51100000000E-03 0.  1.
</event>
<event>
 8    1  0.1106168E+005  0.1043930E+01  0.7957747E-01            NaN
         13   -1    0    0    0    0  0.00000000000E+00  0.00000000000E+00  0.74505805969E-08  0.10566000000E+00  0.10566000000E+00 0. -1.
     999900   -1    0    0    0    0 -0.00000000000E+00 -0.00000000000E+00 -0.74505805969E-08  0.93827000000E+00  0.93827000000E+00 0.  1.
     999902    2    1    2    0    0 -0.12552426450E-01  0.16507691065E-01  0.11340458151E-01  0.10202937299E+01  0.10200199125E+01 0.  0.
     999903    2    3    3    0    0 -0.12224563562E+00  0.22006673087E-02  0.47136528622E-01  0.13264591136E+00  0.20597259664E-01 0.  0.
         14    1    1    2    0    0  0.12552426450E-01 -0.16507691065E-01 -0.11340458151E-01  0.23636270119E-01  0.00000000000E+00 0.  1.
     999901    1    3    3    0    0  0.10969320917E+00  0.14307023756E-01 -0.35796070471E-01  0.88764781852E+00  0.88000000000E+00 0. -1.
        -11    1    4    4    0    0 -0.48101414195E-01 -0.48590207918E-02  0.98070524407E-02  0.49333513246E-01  0.51100000000E-03 0. -1.
         11    1    4    4    0    0 -0.74144221422E-01  0.70596881006E-02  0.37329476181E-01  0.83312398113E-01  0.51100000000E-03 0.  1.
</event>
<event>
 8    1  0.1106168E+005  0.1043930E+01  0.7957747E-01            NaN
         13   -1    0    0    0    0  0.00000000000E+00  0.00000000000E+00  0.74505805969E-08  0.10566000000E+00  0.10566000000E+00 0. -1.
     999900   -1    0    0    0    0 -0.00000000000E+00 -0.00000000000E+00 -0.74505805969E-08  0.93827000000E+00  0.93827000000E+00 0.  1.
     999902    2    1    2    0    0  0.39820258832E-02 -0.22798178076E-01 -0.76872373872E-02  0.10195433833E+01  0.10192516880E+01 0.  0.
     999903    2    3    3    0    0 -0.26557140817E-01  0.56705514459E-01 -0.11137828926E+00  0.12937187623E+00  0.20277128530E-01 0.  0.
         14    1    1    2    0    0 -0.39820258832E-02  0.22798178076E-01  0.76872373872E-02  0.24386616665E-01  0.00000000000E+00 0. -1.
     999901    1    3    3    0    0  0.30539166700E-01 -0.79503692535E-01  0.10369105187E+00  0.89017150711E+00  0.88000000000E+00 0. -1.
        -11    1    4    4    0    0 -0.55484381462E-02  0.35599356625E-01 -0.60682767182E-01  0.70574490518E-01  0.51100000000E-03 0.  1.
         11    1    4    4    0    0 -0.21008702671E-01  0.21106157834E-01 -0.50695522078E-01  0.58797385708E-01  0.51100000000E-03 0. -1.
</event>
<event>
 8    1  0.1106168E+005  0.1043930E+01  0.7957747E-01            NaN
         13   -1    0    0    0    0  0.00000000000E+00  0.00000000000E+00  0.74505805969E-08  0.10566000000E+00  0.10566000000E+00 0. -1.
     999900   -1    0    0    0    0 -0.00000000000E+00 -0.00000000000E+00 -0.74505805969E-08  0.93827000000E+00  0.93827000000E+00 0.  1.
     999902    2    1    2    0    0 -0.20057833963E-01  0.57739732784E-02 -0.99348536002E-02  0.10208138414E+01  0.10205520771E+01 0.  0.
     999903    2    3    3    0    0 -0.91431778636E-01 -0.76046234915E-01 -0.56377881381E-01  0.13292548062E+00  0.18652557441E-01 0.  0.
         14    1    1    2    0    0  0.20057833963E-01 -0.57739732784E-02  0.99348536002E-02  0.23116158564E-01  0.00000000000E+00 0.  1.
     999901    1    3    3    0    0  0.71373944673E-01  0.81820208193E-01  0.46443027780E-01  0.88788836082E+00  0.88000000000E+00 0. -1.
        -11    1    4    4    0    0 -0.80066413900E-01 -0.64572384603E-01 -0.55168899237E-01  0.11672228601E+00  0.51100000000E-03 0. -1.
         11    1    4    4    0    0 -0.11365364736E-01 -0.11473850311E-01 -0.12089821440E-02  0.16203194604E-01  0.51100000000E-03 0.  1.
</event>
<event>
 8    1  0.1106168E+005  0.1043930E+01  0.7957747E-01            NaN
         13   -1    0    0    0    0  0.00000000000E+00  0.00000000000E+00  0.74505805969E-08  0.10566000000E+00  0.10566000000E+00 0. -1.
     999900   -1    0    0    0    0 -0.00000000000E+00 -0.00000000000E+00 -0.74505805969E-08  0.93827000000E+00  0.93827000000E+00 0.  1.
     999902    2    1    2    0    0 -0.70904729122E-02 -0.20154375443E-01 -0.93079664149E-02  0.10206252388E+01  0.10203591359E+01 0.  0.
     999903    2    3    3    0    0  0.10407373835E+00 -0.67043157486E-01  0.39244701596E-01  0.13106725794E+00  0.17673469402E-01 0.  0.
         14    1    1    2    0    0  0.70904729122E-02  0.20154375443E-01  0.93079664149E-02  0.23304761196E-01  0.00000000000E+00 0. -1.
     999901    1    3    3    0    0 -0.11116421126E+00  0.46888782043E-01 -0.48552668010E-01  0.88955798086E+00  0.88000000000E+00 0. -1.
        -11    1    4    4    0    0  0.72191139787E-01 -0.53186896887E-01  0.34036169421E-01  0.95912087945E-01  0.51100000000E-03 0.  1.
         11    1    4    4    0    0  0.31882598564E-01 -0.13856260599E-01  0.52085321747E-02  0.35155169995E-01  0.51100000000E-03 0. -1.
</event>
<event>
 8    1  0.1106168E+005  0.1043930E+01  0.7957747E-01            NaN
         13   -1    0    0    0    0  0.00000000000E+00  0.00000000000E+00  0.74505805969E-08  0.10566000000E+00  0.10566000000E+00 0.  1.
     999900   -1    0    0    0    0 -0.00000000000E+00 -0.00000000000E+00 -0.74505805969E-08  0.93827000000E+00  0.93827000000E+00 0.  1.
     999902    2    1    2    0    0 -0.30098398777E-02 -0.21322792078E-01  0.82901029396E-02  0.10208551998E+01  0.10205943820E+01 0.  0.
     999903    2    3    3    0    0 -0.49077836402E-01  0.72308702260E-01  0.94428939581E-01  0.13051312159E+00  0.21901320226E-01 0.  0.
         14    1    1    2    0    0  0.30098398777E-02  0.21322792078E-01 -0.82901029396E-02  0.23074800213E-01  0.00000000000E+00 0. -1.
     999901    1    3    3    0    0  0.46067996524E-01 -0.93631494339E-01 -0.86138836641E-01  0.89034207820E+00  0.88000000000E+00 0.  1.
        -11    1    4    4    0    0 -0.14471304760E-01  0.11892463374E-01  0.10560488085E-01  0.21508937123E-01  0.51100000000E-03 0.  1.
         11    1    4    4    0    0 -0.34606531641E-01  0.60416238887E-01  0.83868451496E-01  0.10900418446E+00  0.51100000000E-03 0. -1.
</event>
<event>
 8    1  0.1106168E+005  0.1043930E+01  0.7957747E-01            NaN
         13   -1    0    0    0    0  0.00000000000E+00  0.00000000000E+00  0.74505805969E-08  0.10566000000E+00  0.10566000000E+00 0. -1.
     999900   -1    0    0    0    0 -0.00000000000E+00 -0.00000000000E+00 -0.74505805969E-08  0.93827000000E+00  0.93827000000E+00 0. -1.
     999902    2    1    2    0    0 -0.54384851963E-02  0.14025985225E-01 -0.18158017484E-01  0.10203499453E+01  0.10200774440E+01 0.  0.
     999903    2    3    3    0    0  0.95651592838E-01 -0.73407175638E-01  0.39229214365E-01  0.12840989353E+00  0.20305882124E-01 0.  0.
         14    1    1    2    0    0  0.54384851963E-02 -0.14025985225E-01  0.18158017484E-01  0.23580054744E-01  0.00000000000E+00 0. -1.
     999901    1    3    3    0    0 -0.10109007803E+00  0.87433160864E-01 -0.57387231848E-01  0.89194005173E+00  0.88000000000E+00 0. -1.
        -11    1    4    4    0    0  0.60490066699E-03 -0.11071078913E-02 -0.16925096893E-02  0.21719352541E-02  0.51100000000E-03 0. -1.
         11    1    4    4    0    0  0.95046692171E-01 -0.72300067747E-01  0.40921724054E-01  0.12623795828E+00  0.51100000000E-03 0.  1.
</event>
<event>
 8    1  0.1106168E+005  0.1043930E+01  0.7957747E-01            NaN
         13   -1    0    0    0    0  0.00000000000E+00  0.00000000000E+00  0.74505805969E-08  0.10566000000E+00  0.10566000000E+00 0.  1.
     999900   -1    0    0    0    0 -0.00000000000E+00 -0.00000000000E+00 -0.74505805969E-08  0.93827000000E+00  0.93827000000E+00 0. -1.
     999902    2    1    2    0    0 -0.14296797357E-02 -0.10121368634E-01 -0.20225398273E-01  0.10212682961E+01  0.10210168362E+01 0.  0.
     999903    2    3    3    0    0 -0.82519417481E-01 -0.84327521471E-01  0.53853230695E-01  0.13134147781E+00  0.20732298436E-01 0.  0.
         14    1    1    2    0    0  0.14296797357E-02  0.10121368634E-01  0.20225398273E-01  0.22661703874E-01  0.00000000000E+00 0.  1.
     999901    1    3    3    0    0  0.81089737745E-01  0.74206152838E-01 -0.74078628968E-01  0.88992681832E+00  0.88000000000E+00 0. -1.
        -11    1    4    4    0    0 -0.26369472186E-01 -0.28884363765E-01  0.28714407406E-01  0.48522508665E-01  0.51100000000E-03 0. -1.
         11    1    4    4    0    0 -0.56149945295E-01 -0.55443157706E-01  0.25138823289E-01  0.82818969146E-01  0.51100000000E-03 0.  1.
</event>
<event>
 8    1  0.1106168E+005  0.1043930E+01  0.7957747E-01            NaN
         13   -1    0    0    0    0  0.00000000000E+00  0.00000000000E+00  0.74505805969E-08  0.10566000000E+00  0.10566000000E+00 0.  1.
     999900   -1    0    0    0    0 -0.00000000000E+00 -0.00000000000E+00 -0.74505805969E-08  0.93827000000E+00  0.93827000000E+00 0.  1.
     999902    2    1    2    0    0  0.81166903913E-02  0.21717105361E-01  0.35308140373E-02  0.10204783481E+01  0.10202088409E+01 0.  0.
     999903    2    3    3    0    0  0.94316604672E-01 -0.78978431190E-01  0.34482661367E-01  0.13001328246E+00  0.24107782382E-01 0.  0.
         14    1    1    2    0    0 -0.81166903913E-02 -0.21717105361E-01 -0.35308140373E-02  0.23451651881E-01  0.00000000000E+00 0.  1.
     999901    1    3    3    0    0 -0.86199914280E-01  0.10069553655E+00 -0.30951847330E-01  0.89046506566E+00  0.88000000000E+00 0.  1.
        -11    1    4    4    0    0  0.71844715413E-01 -0.65278732777E-01  0.36272858020E-01  0.10362894111E+00  0.51100000000E-03 0. -1.
         11    1    4    4    0    0  0.22471889259E-01 -0.13699698413E-01 -0.17901966528E-02  0.26384341351E-01  0.51100000000E-03 0.  1.
</event>
<event>
 8    1  0.1106168E+005  0.1043930E+01  0.7957747E-01            NaN
         13   -1    0    0    0    0  0.00000000000E+00  0.00000000000E+00  0.74505805969E-08  0.10566000000E+00  0.10566000000E+00 0. -1.
     999900   -1    0    0    0    0 -0.00000000000E+00 -0.00000000000E+00 -0.74505805969E-08  0.93827000000E+00  0.93827000000E+00 0. -1.
     999902    2    1    2    0    0  0.41688890746E-03  0.22150301016E-01 -0.81713202957E-02  0.10203168658E+01  0.10200435905E+01 0.  0.
     999903    2    3    3    0    0  0.10230359837E+00  0.44203551361E-01 -0.68606294126E-01  0.13210538564E+00  0.18028564272E-01 0.  0.
         14    1    1    2    0    0 -0.41688890746E-03 -0.22150301016E-01  0.81713202957E-02  0.23613134202E-01  0.00000000000E+00 0. -1.
     999901    1    3    3    0    0 -0.10188670946E+00 -0.22053250345E-01  0.60434973830E-01  0.88821148015E+00  0.88000000000E+00 0. -1.
        -11    1    4    4    0    0  0.41631660125E-02  0.14200019807E-03 -0.69267764319E-02  0.80989794444E-02  0.51100000000E-03 0.  1.
         11    1    4    4    0    0  0.98140432359E-01  0.44061551162E-01 -0.61679517694E-01  0.12400640620E+00  0.51100000000E-03 0. -1.
</event>
<event>
 7    1  0.1106168E+005  0.1043930E+01  0.7957747E-01            NaN
         13   -1    0    0    0    0  0.00000000000E+00  0.00000000000E+00  0.74505805969E-08  0.10566000000E+00  0.10566000000E+00 0. -1.
     999900   -1    0    0    0    0 -0.00000000000E+00 -0.00000000000E+00 -0.74505805969E-08  0.93827000000E+00  0.93827000000E+00 0.  1.
     999902    2    1    2    0    0  0.13750198561E-01  0.17222109456E-01  0.67249999718E-02  0.10208888490E+01  0.10206288000E+01 0.  0.
         14    1    1    2    0    0 -0.13750198561E-01 -0.17222109456E-01 -0.67249999718E-02  0.23041150996E-01  0.00000000000E+00 0.  1.
     999901    1    3    3    0    0 -0.88105803941E-01  0.56598582442E-01 -0.59030616269E-01  0.88817264419E+00  0.88000000000E+00 0.  1.
        -11    1    3    3    0    0  0.77331135433E-01 -0.19647028793E-01  0.30419490506E-01  0.85391549766E-01  0.51100000000E-03 0. -1.
         11    1    3    3    0    0  0.24524867069E-01 -0.19729444193E-01  0.35336125735E-01  0.47324655053E-01  0.51100000000E-03 0.  1.
</event>
<event>
 8    1  0.1106168E+005  0.1043930E+01  0.7957747E-01            NaN
         13   -1    0    0    0    0  0.00000000000E+00  0.00000000000E+00  0.74505805969E-08  0.10566000000E+00  0.10566000000E+00 0. -1.
     999900   -1    0    0    0    0 -0.00000000000E+00 -0.00000000000E+00 -0.74505805969E-08  0.93827000000E+00  0.93827000000E+00 0. -1.
     999902    2    1    2    0    0  0.20292904919E-01  0.10559505580E-01 -0.65818207131E-02  0.10201261030E+01  0.10198483419E+01 0.  0.
     999903    2    3    3    0    0  0.12020771553E+00 -0.21018393522E-01 -0.47682762333E-01  0.13295677278E+00  0.22631612097E-01 0.  0.
         14    1    1    2    0    0 -0.20292904919E-01 -0.10559505580E-01  0.65818207131E-02  0.23803896993E-01  0.00000000000E+00 0. -1.
     999901    1    3    3    0    0 -0.99914810610E-01  0.31577899103E-01  0.41100941620E-01  0.88716933023E+00  0.88000000000E+00 0.  1.
        -11    1    4    4    0    0  0.97189211474E-01 -0.18824936819E-01 -0.47558502182E-01  0.10982801703E+00  0.51100000000E-03 0.  1.
         11    1    4    4    0    0  0.23018504054E-01 -0.21934567030E-02 -0.12426015053E-03  0.23128755755E-01  0.51100000000E-03 0. -1.
</event>
<event>
 8    1  0.1106168E+005  0.1043930E+01  0.7957747E-01            NaN
         13   -1    0    0    0    0  0.00000000000E+00  0.00000000000E+00  0.74505805969E-08  0.10566000000E+00  0.10566000000E+00 0. -1.
     999900   -1    0    0    0    0 -0.00000000000E+00 -0.00000000000E+00 -0.74505805969E-08  0.93827000000E+00  0.93827000000E+00 0.  1.
     999902    2    1    2    0    0 -0.58830320225E-02 -0.41574143511E-02 -0.22544493957E-01  0.10202625462E+01  0.10199879974E+01 0.  0.
     999903    2    3    3    0    0  0.79621687423E-01 -0.98807336469E-01 -0.26000678479E-01  0.13105975159E+00  0.19952953567E-01 0.  0.
         14    1    1    2    0    0  0.58830320225E-02  0.41574143511E-02  0.22544493957E-01  0.23667453763E-01  0.00000000000E+00 0. -1.
     999901    1    3    3    0    0 -0.85504719445E-01  0.94649922118E-01  0.34561845228E-02  0.88920279465E+00  0.88000000000E+00 0.  1.
        -11    1    4    4    0    0  0.64752687515E-01 -0.90899280861E-01 -0.22633851074E-01  0.11387775084E+00  0.51100000000E-03 0.  1.
         11    1    4    4    0    0  0.14868999908E-01 -0.79080556083E-02 -0.33668274058E-02  0.17182000743E-01  0.51100000000E-03 0. -1.
</event>
<event>
 8    1  0.1106168E+005  0.1043930E+01  0.7957747E-01            NaN
         13   -1    0    0    0    0  0.00000000000E+00  0.00000000000E+00  0.74505805969E-08  0.10566000000E+00  0.10566000000E+00 0. -1.
     999900   -1    0    0    0    0 -0.00000000000E+00 -0.00000000000E+00 -0.74505805969E-08  0.93827000000E+00  0.93827000000E+00 0. -1.
     999902    2    1    2    0    0 -0.81908516013E-02 -0.21684571821E-01 -0.42863533294E-02  0.10203570594E+01  0.10200847245E+01 0.  0.
     999903    2    3    3    0    0 -0.72083282126E-01  0.78776847067E-01  0.70000861535E-01  0.12923791489E+00  0.20013166532E-01 0.  0.
         14    1    1    2    0    0  0.81908516013E-02  0.21684571821E-01  0.42863533294E-02  0.23572940628E-01  0.00000000000E+00 0.  1.
     999901    1    3    3    0    0  0.63892430524E-01 -0.10046141889E+00 -0.74287214864E-01  0.89111914448E+00  0.88000000000E+00 0. -1.
        -11    1    4    4    0    0 -0.63785234874E-01  0.66600125131E-01  0.51652100564E-01  0.10569925955E+00  0.51100000000E-03 0. -1.
         11    1    4    4    0    0 -0.82980472517E-02  0.12176721936E-01  0.18348760971E-01  0.23538655346E-01  0.51100000000E-03 0.  1.
</event>
<event>
 8    1  0.1106168E+005  0.1043930E+01  0.7957747E-01            NaN
         13   -1    0    0    0    0  0.00000000000E+00  0.00000000000E+00  0.74505805969E-08  0.10566000000E+00  0.10566000000E+00 0.  1.
     999900   -1    0    0    0    0 -0.00000000000E+00 -0.00000000000E+00 -0.74505805969E-08  0.93827000000E+00  0.93827000000E+00 0. -1.
     999902    2    1    2    0    0  0.18617620666E-01  0.13137330032E-01 -0.84771611161E-02  0.10196181202E+01  0.10193282315E+01 0.  0.
     999903    2    3    3    0    0 -0.64736148725E-01 -0.10342876486E+00  0.29797555218E-01  0.12720540218E+00  0.20125647665E-01 0.  0.
         14    1    1    2    0    0 -0.18617620666E-01 -0.13137330032E-01  0.84771611161E-02  0.24311879817E-01  0.00000000000E+00 0.  1.
     999901    1    3    3    0    0  0.83353769391E-01  0.11656609489E+00 -0.38274716334E-01  0.89241271801E+00  0.88000000000E+00 0. -1.
        -11    1    4    4    0    0 -0.57960653414E-01 -0.88724157630E-01  0.18820286354E-01  0.10763771547E+00  0.51100000000E-03 0. -1.
         11    1    4    4    0    0 -0.67754953110E-02 -0.14704607229E-01  0.10977268865E-01  0.19567686710E-01  0.51100000000E-03 0.  1.
</event>
<event>
 8    1  0.1106168E+005  0.1043930E+01  0.7957747E-01            NaN
         13   -1    0    0    0    0  0.00000000000E+00  0.00000000000E+00  0.74505805969E-08  0.10566000000E+00  0.10566000000E+00 0. -1.
     999900   -1    0    0    0    0 -0.00000000000E+00 -0.00000000000E+00 -0.74505805969E-08  0.93827000000E+00  0.93827000000E+00 0.  1.
     999902    2    1    2    0    0  0.15070807289E-02 -0.18615279869E-01  0.14043482955E-01  0.10205629431E+01  0.10202953991E+01 0.  0.
     999903    2    3    3    0    0  0.85633888918E-01  0.89300232739E-01  0.34005342712E-01  0.12976467545E+00  0.19360092021E-01 0.  0.
         14    1    1    2    0    0 -0.15070807289E-02  0.18615279869E-01 -0.14043482955E-01  0.23367056949E-01  0.00000000000E+00 0.  1.
     999901    1    3    3    0    0 -0.84126808189E-01 -0.10791551261E+00 -0.19961859758E-01  0.89079826760E+00  0.88000000000E+00 0.  1.
        -11    1    4    4    0    0  0.39326129586E-01  0.43355353338E-01  0.62440346087E-02  0.58868329520E-01  0.51100000000E-03 0.  1.
         11    1    4    4    0    0  0.46307759332E-01  0.45944879401E-01  0.27761308104E-01  0.70896345930E-01  0.51100000000E-03 0. -1.
</event>
<event>
 8    1  0.1106168E+005  0.1043930E+01  0.7957747E-01            NaN
         13   -1    0    0    0    0  0.00000000000E+00  0.00000000000E+00  0.74505805969E-08  0.10566000000E+00  0.10566000000E+00 0. -1.
     999900   -1    0    0    0    0 -0.00000000000E+00 -0.00000000000E+00 -0.74505805969E-08  0.93827000000E+00  0.93827000000E+00 0. -1.
     999902    2    1    2    0    0  0.22002845992E-01 -0.25441183217E-02 -0.69792945237E-02  0.10207069872E+01  0.10204427693E+01 0.  0.
     999903    2    3    3    0    0  0.13942554892E-01 -0.10067177571E+00  0.80018257677E-01  0.13095276301E+00  0.20408412871E-01 0.  0.
         14    1    1    2    0    0 -0.22002845992E-01  0.25441183217E-02  0.69792945237E-02  0.23223012764E-01  0.00000000000E+00 0. -1.
     999901    1    3    3    0    0  0.80602910998E-02  0.98127657393E-01 -0.86997552201E-01  0.88975422423E+00  0.88000000000E+00 0. -1.
        -11    1    4    4    0    0  0.18265893542E-01 -0.59168135763E-01  0.47196931189E-01  0.77860918253E-01  0.51100000000E-03 0. -1.
         11    1    4    4    0    0 -0.43233386492E-02 -0.41503639952E-01  0.32821326488E-01  0.53091844758E-01  0.51100000000E-03 0.  1.
</event>
<event>
 8    1  0.1106168E+005  0.1043930E+01  0.7957747E-01            NaN
         13   -1    0    0    0    0  0.00000000000E+00  0.00000000000E+00  0.74505805969E-08  0.10566000000E+00  0.10566000000E+00 0. -1.
     999900   -1    0    0    0    0 -0.00000000000E+00 -0.00000000000E+00 -0.74505805969E-08  0.93827000000E+00  0.93827000000E+00 0.  1.
     999902    2    1    2    0    0  0.18899437531E-02  0.25371698536E-02  0.23680088362E-01  0.10200395060E+01  0.10197596963E+01 0.  0.
     999903    2    3    3    0    0 -0.96614250680E-01  0.58532275932E-01  0.65082116489E-01  0.13180943663E+00  0.19434632406E-01 0.  0.
         14    1    1    2    0    0 -0.18899437531E-02 -0.25371698536E-02 -0.23680088362E-01  0.23890493990E-01  0.00000000000E+00 0.  1.
     999901    1    3    3    0    0  0.98504194433E-01 -0.55995106079E-01 -0.41402028127E-01  0.88823006938E+00  0.88000000000E+00 0.  1.
        -11    1    4    4    0    0 -0.74502204847E-01  0.42254027740E-01  0.58021021957E-01  0.10345376502E+00  0.51100000000E-03 0.  1.
         11    1    4    4    0    0 -0.22112045833E-01  0.16278248192E-01  0.70610945319E-02  0.28355671604E-01  0.51100000000E-03 0. -1.
</event>
<event>
 7    1  0.1106168E+005  0.1043930E+01  0.7957747E-01            NaN
         13   -1    0    0    0    0  0.00000000000E+00  0.00000000000E+00  0.74505805969E-08  0.10566000000E+00  0.10566000000E+00 0. -1.
     999900   -1    0    0    0    0 -0.00000000000E+00 -0.00000000000E+00 -0.74505805969E-08  0.93827000000E+00  0.93827000000E+00 0.  1.
     999903    2    1    2    0    0  0.42442394659E-02  0.10616975671E+00 -0.16201086560E-01  0.10923341281E+00  0.19479026198E-01 0.  0.
         14    1    1    2    0    0 -0.54478053955E-02  0.94122516857E-02  0.45373395901E-01  0.46658483912E-01  0.00000000000E+00 0. -1.
     999901    1    1    2    0    0  0.12035659297E-02 -0.11558200839E+00 -0.29172309341E-01  0.88803810327E+00  0.88000000000E+00 0.  1.
        -11    1    3    3    0    0 -0.68009392519E-02  0.20999345603E-01 -0.48002121691E-02  0.22594876595E-01  0.51100000000E-03 0.  1.
         11    1    3    3    0    0  0.11045178718E-01  0.85170411102E-01 -0.11400874391E-01  0.86638536219E-01  0.51100000000E-03 0. -1.
</event>
<event>
 8    1  0.1106168E+005  0.1043930E+01  0.7957747E-01            NaN
         13   -1    0    0    0    0  0.00000000000E+00  0.00000000000E+00  0.74505805969E-08  0.10566000000E+00  0.10566000000E+00 0. -1.
     999900   -1    0    0    0    0 -0.00000000000E+00 -0.00000000000E+00 -0.74505805969E-08  0.93827000000E+00  0.93827000000E+00 0.  1.
     999902    2    1    2    0    0 -0.33427741882E-02  0.91564822091E-02 -0.21811254521E-01  0.10200397064E+01  0.10197599014E+01 0.  0.
     999903    2    3    3    0    0 -0.77068171608E-01 -0.10116919759E+00  0.13231024044E-01  0.12940220933E+00  0.19878686272E-01 0.  0.
         14    1    1    2    0    0  0.33427741882E-02 -0.91564822091E-02  0.21811254521E-01  0.23890293625E-01  0.00000000000E+00 0. -1.
     999901    1    3    3    0    0  0.73725397420E-01  0.11032567980E+00 -0.35042278565E-01  0.89063749704E+00  0.88000000000E+00 0. -1.
        -11    1    4    4    0    0 -0.47452430485E-01 -0.66389207573E-01  0.17690545394E-01  0.83501356626E-01  0.51100000000E-03 0.  1.
         11    1    4    4    0    0 -0.29615741123E-01 -0.34779990015E-01 -0.44595213496E-02  0.45900852708E-01  0.51100000000E-03 0. -1.
</event>
<event>
 8    1  0.1106168E+005  0.1043930E+01  0.7957747E-01            NaN
         13   -1    0    0    0    0  0.00000000000E+00  0.00000000000E+00  0.74505805969E-08  0.10566000000E+00  0.10566000000E+00 0.  1.
     999900   -1    0    0    0    0 -0.00000000000E+00 -0.00000000000E+00 -0.74505805969E-08  0.93827000000E+00  0.93827000000E+00 0.  1.
     999902    2    1    2    0    0 -0.19542364558E-01 -0.10760333704E-01  0.90232671962E-02  0.10198653341E+01  0.10195813805E+01 0.  0.
     999903    2    3    3    0    0  0.92941399837E-01 -0.68645091310E-02 -0.84988519422E-01  0.12772969939E+00  0.20164384018E-01 0.  0.
         14    1    1    2    0    0  0.19542364558E-01  0.10760333704E-01 -0.90232671962E-02  0.24064665899E-01  0.00000000000E+00 0. -1.
     999901    1    3    3    0    0 -0.11248376440E+00 -0.38958245732E-02  0.94011786618E-01  0.89213563471E+00  0.88000000000E+00 0. -1.
        -11    1    4    4    0    0  0.38391481704E-01  0.65938230474E-02 -0.30703053893E-01  0.49601643210E-01  0.51100000000E-03 0. -1.
         11    1    4    4    0    0  0.54549918134E-01 -0.13458332178E-01 -0.54285465529E-01  0.78128056178E-01  0.51100000000E-03 0.  1.
</event>
<event>
 8    1  0.1106168E+005  0.1043930E+01  0.7957747E-01            NaN
         13   -1    0    0    0    0  0.00000000000E+00  0.00000000000E+00  0.74505805969E-08  0.10566000000E+00  0.10566000000E+00 0. -1.
     999900   -1    0    0    0    0 -0.00000000000E+00 -0.00000000000E+00 -0.74505805969E-08  0.93827000000E+00  0.93827000000E+00 0.  1.
     999902    2    1    2    0    0  0.10835445234E-01  0.64992522182E-02  0.19880271882E-01  0.10203742711E+01  0.10201023384E+01 0.  0.
     999903    2    3    3    0    0 -0.11644520744E+00  0.32146189132E-01 -0.39330425348E-01  0.12887887765E+00  0.21679920105E-01 0.  0.
         14    1    1    2    0    0 -0.10835445234E-01 -0.64992522182E-02 -0.19880271882E-01  0.23555728877E-01  0.00000000000E+00 0.  1.
     999901    1    3    3    0    0  0.12728065267E+00 -0.25646936914E-01  0.59210697230E-01  0.89149539347E+00  0.88000000000E+00 0. -1.
        -11    1    4    4    0    0 -0.55601698278E-01  0.42581110129E-02 -0.16417193530E-01  0.58133172330E-01  0.51100000000E-03 0. -1.
         11    1    4    4    0    0 -0.60843509158E-01  0.27888078119E-01 -0.22913231818E-01  0.70745705320E-01  0.51100000000E-03 0.  1.
</event>
<event>
 8    1  0.1106168E+005  0.1043930E+01  0.7957747E-01            NaN
         13   -1    0    0    0    0  0.00000000000E+00  0.00000000000E+00  0.74505805969E-08  0.10566000000E+00  0.10566000000E+00 0. -1.
     999900   -1    0    0    0    0 -0.00000000000E+00 -0.00000000000E+00 -0.74505805969E-08  0.93827000000E+00  0.93827000000E+00 0. -1.
     999902    2    1    2    0    0 -0.16030307816E-01  0.86306506607E-02  0.15985482803E-01  0.10197020294E+01  0.10194141622E+01 0.  0.
     999903    2    3    3    0    0 -0.71739276838E-01  0.10302283557E+00 -0.33289094454E-01  0.13153461400E+00  0.20807748080E-01 0.  0.
         14    1    1    2    0    0  0.16030307816E-01 -0.86306506607E-02 -0.15985482803E-01  0.24227970611E-01  0.00000000000E+00 0.  1.
     999901    1    3    3    0    0  0.55708969022E-01 -0.94392184907E-01  0.49274577257E-01  0.88816741539E+00  0.88000000000E+00 0.  1.
        -11    1    4    4    0    0 -0.50124956334E-01  0.54262006644E-01 -0.20975662846E-01  0.76792683019E-01  0.51100000000E-03 0.  1.
         11    1    4    4    0    0 -0.21614320504E-01  0.48760828924E-01 -0.12313431608E-01  0.54741930977E-01  0.51100000000E-03 0. -1.
</event>
<event>
 8    1  0.1106168E+005  0.1043930E+01  0.7957747E-01            NaN
         13   -1    0    0    0    0  0.00000000000E+00  0.00000000000E+00  0.74505805969E-08  0.10566000000E+00  0.10566000000E+00 0. -1.
     999900   -1    0    0    0    0 -0.00000000000E+00 -0.00000000000E+00 -0.74505805969E-08  0.93827000000E+00  0.93827000000E+00 0. -1.
     999902    2    1    2    0    0 -0.15372341439E-01  0.95785660927E-02  0.14348414610E-01  0.10208229705E+01  0.10205614153E+01 0.  0.
     999903    2    3    3    0    0  0.10446849430E+00  0.61207626717E-01  0.45027873094E-01  0.13067207601E+00  0.19688631853E-01 0.  0.
         14    1    1    2    0    0  0.15372341439E-01 -0.95785660927E-02 -0.14348414610E-01  0.23107029483E-01  0.00000000000E+00 0. -1.
     999901    1    3    3    0    0 -0.11984083574E+00 -0.51629060625E-01 -0.30679458484E-01  0.89015089450E+00  0.88000000000E+00 0.  1.
        -11    1    4    4    0    0  0.25331825743E-01  0.82403492532E-02  0.16175001405E-01  0.31168839291E-01  0.51100000000E-03 0. -1.
         11    1    4    4    0    0  0.79136668559E-01  0.52967277464E-01  0.28852871688E-01  0.99503236722E-01  0.51100000000E-03 0.  1.
</event>
<event>
 8    1  0.1106168E+005  0.1043930E+01  0.7957747E-01            NaN
         13   -1    0    0    0    0  0.00000000000E+00  0.00000000000E+00  0.74505805969E-08  0.10566000000E+00  0.10566000000E+00 0.  1.
     999900   -1    0    0    0    0 -0.00000000000E+00 -0.00000000000E+00 -0.74505805969E-08  0.93827000000E+00  0.93827000000E+00 0. -1.
     999902    2    1    2    0    0  0.20023701442E-01  0.27038092767E-02  0.12772440489E-01  0.10200261417E+01  0.10197460151E+01 0.  0.
     999903    2    3    3    0    0  0.11989829884E+00  0.48958638945E-01  0.22277544454E-01  0.13311871056E+00  0.21254451775E-01 0.  0.
         14    1    1    2    0    0 -0.20023701442E-01 -0.27038092767E-02 -0.12772440489E-01  0.23903858268E-01  0.00000000000E+00 0. -1.
     999901    1    3    3    0    0 -0.99874597402E-01 -0.46254829669E-01 -0.95051039647E-02  0.88690743118E+00  0.88000000000E+00 0. -1.
        -11    1    4    4    0    0  0.55929311756E-01  0.33349818988E-01  0.67780797371E-02  0.65471381732E-01  0.51100000000E-03 0.  1.
         11    1    4    4    0    0  0.63968987088E-01  0.15608819958E-01  0.15499464716E-01  0.67647328824E-01  0.51100000000E-03 0. -1.
</event>
<event>
 8    1  0.1106168E+005  0.1043930E+01  0.7957747E-01            NaN
         13   -1    0    0    0    0  0.00000000000E+00  0.00000000000E+00  0.74505805969E-08  0.10566000000E+00  0.10566000000E+00 0.  1.
     999900   -1    0    0    0    0 -0.00000000000E+00 -0.00000000000E+00 -0.74505805969E-08  0.93827000000E+00  0.93827000000E+00 0.  1.
     999902    2    1    2    0    0 -0.17789680103E-01 -0.10522898371E-01  0.11951452598E-01  0.10200544617E+01  0.10197750063E+01 0.  0.
     999903    2    3    3    0    0  0.27389222604E-01  0.40420762752E-01 -0.11675241539E+00  0.12808973401E+00  0.19795097450E-01 0.  0.
         14    1    1    2    0    0  0.17789680103E-01  0.10522898371E-01 -0.11951452598E-01  0.23875538267E-01  0.00000000000E+00 0. -1.
     999901    1    3    3    0    0 -0.45178902707E-01 -0.50943661123E-01  0.12870386799E+00  0.89196472772E+00  0.88000000000E+00 0. -1.
        -11    1    4    4    0    0  0.13601963874E-01  0.35287852135E-01 -0.88151179554E-01  0.95922559950E-01  0.51100000000E-03 0.  1.
         11    1    4    4    0    0  0.13787258730E-01  0.51329106165E-02 -0.28601235841E-01  0.32167174065E-01  0.51100000000E-03 0. -1.
</event>
<event>
 8    1  0.1106168E+005  0.1043930E+01  0.7957747E-01            NaN
         13   -1    0    0    0    0  0.00000000000E+00  0.00000000000E+00  0.74505805969E-08  0.10566000000E+00  0.10566000000E+00 0. -1.
     999900   -1    0    0    0    0 -0.00000000000E+00 -0.00000000000E+00 -0.74505805969E-08  0.93827000000E+00  0.93827000000E+00 0. -1.
     999902    2    1    2    0    0 -0.20428902995E-01 -0.31440082407E-02  0.14395967678E-01  0.10187413369E+01  0.10184298909E+01 0.  0.
     999903    2    3    3    0    0 -0.16361954970E-01 -0.44847458152E-01  0.12073213487E+00  0.13135016142E+00  0.19940121421E-01 0.  0.
         14    1    1    2    0    0  0.20428902995E-01  0.31440082407E-02 -0.14395967678E-01  0.25188663140E-01  0.00000000000E+00 0. -1.
     999901    1    3    3    0    0 -0.40669480249E-02  0.41703449911E-01 -0.10633616719E+00  0.88739117544E+00  0.88000000000E+00 0. -1.
        -11    1    4    4    0    0 -0.13383232777E-01 -0.13600188992E-01  0.60323244629E-01  0.63271091533E-01  0.51100000000E-03 0.  1.
         11    1    4    4    0    0 -0.29787221931E-02 -0.31247269160E-01  0.60408890236E-01  0.68079069885E-01  0.51100000000E-03 0. -1.
</event>
<event>
 8    1  0.1106168E+005  0.1043930E+01  0.7957747E-01            NaN
         13   -1    0    0    0    0  0.00000000000E+00  0.00000000000E+00  0.74505805969E-08  0.10566000000E+00  0.10566000000E+00 0. -1.
     999900   -1    0    0    0    0 -0.00000000000E+00 -0.00000000000E+00 -0.74505805969E-08  0.93827000000E+00  0.93827000000E+00 0.  1.
     999902    2    1    2    0    0  0.71912142130E-02  0.57070720232E-03  0.20980500170E-01  0.10217439536E+01  0.10215030524E+01 0.  0.
     999903    2    3    3    0    0  0.20370059821E-01 -0.11756310894E+00  0.55961621430E-01  0.13306349394E+00  0.18389301951E-01 0.  0.
         14    1    1    2    0    0 -0.71912142130E-02 -0.57070720232E-03 -0.20980500170E-01  0.22186046424E-01  0.00000000000E+00 0.  1.
     999901    1    3    3    0    0 -0.13178845608E-01  0.11813381614E+00 -0.34981121260E-01  0.88868045963E+00  0.88000000000E+00 0. -1.
        -11    1    4    4    0    0  0.18179978886E-02 -0.37303464943E-01  0.25539664642E-01  0.45248085088E-01  0.51100000000E-03 0. -1.
         11    1    4    4    0    0  0.18552061932E-01 -0.80259643998E-01  0.30421956788E-01  0.87815408855E-01  0.51100000000E-03 0.  1.
</event>
<event>
 8    1  0.1106168E+005  0.1043930E+01  0.7957747E-01            NaN
         13   -1    0    0    0    0  0.00000000000E+00  0.00000000000E+00  0.74505805969E-08  0.10566000000E+00  0.10566000000E+00 0.  1.
     999900   -1    0    0    0    0 -0.00000000000E+00 -0.00000000000E+00 -0.74505805969E-08  0.93827000000E+00  0.93827000000E+00 0.  1.
     999902    2    1    2    0    0 -0.20493525357E-01 -0.11701216987E-01 -0.22835517101E-02  0.10202209792E+01  0.10199454538E+01 0.  0.
     999903    2    3    3    0    0 -0.11540717165E+00  0.13278159775E-01 -0.60936992786E-01  0.13282433974E+00  0.20829386497E-01 0.  0.
         14    1    1    2    0    0  0.20493525357E-01  0.11701216987E-01  0.22835517101E-02  0.23709020835E-01  0.00000000000E+00 0.  1.
     999901    1    3    3    0    0  0.94913646293E-01 -0.24979376762E-01  0.58653441076E-01  0.88739663943E+00  0.88000000000E+00 0. -1.
        -11    1    4    4    0    0 -0.55593168598E-01  0.79165572783E-02 -0.17900843950E-01  0.58940424235E-01  0.51100000000E-03 0. -1.
         11    1    4    4    0    0 -0.59814003052E-01  0.53616024967E-02 -0.43036148836E-01  0.73883915503E-01  0.51100000000E-03 0.  1.
</event>
<event>
 8    1  0.1106168E+005  0.1043930E+01  0.7957747E-01            NaN
         13   -1    0    0    0    0  0.00000000000E+00  0.00000000000E+00  0.74505805969E-08  0.10566000000E+00  0.10566000000E+00 0.  1.
     999900   -1    0    0    0    0 -0.00000000000E+00 -0.00000000000E+00 -0.74505805969E-08  0.93827000000E+00  0.93827000000E+00 0. -1.
     999902    2    1    2    0    0 -0.19311534641E-01  0.13185968336E-01  0.67016135760E-03  0.10205365341E+01  0.10202683780E+01 0.  0.
     999903    2    3    3    0    0 -0.74236412176E-01  0.60456306308E-01 -0.89788852434E-01  0.13293636498E+00  0.21072001507E-01 0.  0.
         14    1    1    2    0    0  0.19311534641E-01 -0.13185968336E-01 -0.67016135760E-03  0.23393465912E-01  0.00000000000E+00 0.  1.
     999901    1    3    3    0    0  0.54924877535E-01 -0.47270337972E-01  0.90459013792E-01  0.88760016911E+00  0.88000000000E+00 0.  1.
        -11    1    4    4    0    0 -0.42549725968E-01  0.21293778516E-01 -0.46105490615E-01  0.66256181367E-01  0.51100000000E-03 0. -1.
         11    1    4    4    0    0 -0.31686686207E-01  0.39162527791E-01 -0.43683361819E-01  0.66680183613E-01  0.51100000000E-03 0.  1.
</event>
<event>
 8    1  0.1106168E+005  0.1043930E+01  0.7957747E-01            NaN
         13   -1    0    0    0    0  0.00000000000E+00  0.00000000000E+00  0.74505805969E-08  0.10566000000E+00  0.10566000000E+00 0.  1.
     999900   -1    0    0    0    0 -0.00000000000E+00 -0.00000000000E+00 -0.74505805969E-08  0.93827000000E+00  0.93827000000E+00 0.  1.
     999902    2    1    2    0    0  0.12965322407E-01  0.17759534877E-01  0.86115018841E-02  0.10203152032E+01  0.10200418889E+01 0.  0.
     999903    2    3    3    0    0  0.88556913046E-01  0.90520899312E-01 -0.35421881916E-01  0.13298930836E+00  0.19876779386E-01 0.  0.
         14    1    1    2    0    0 -0.12965322407E-01 -0.17759534877E-01 -0.86115018841E-02  0.23614796821E-01  0.00000000000E+00 0.  1.
     999901    1    3    3    0    0 -0.75591590639E-01 -0.72761364435E-01  0.44033383800E-01  0.88732589482E+00  0.88000000000E+00 0.  1.
        -11    1    4    4    0    0  0.98114446643E-02  0.30404238261E-02 -0.49081218952E-02  0.11395587084E-01  0.51100000000E-03 0. -1.
         11    1    4    4    0    0  0.78745468382E-01  0.87480475486E-01 -0.30513760020E-01  0.12159372128E+00  0.51100000000E-03 0.  1.
</event>
<event>
 8    1  0.1106168E+005  0.1043930E+01  0.7957747E-01            NaN
         13   -1    0    0    0    0  0.00000000000E+00  0.00000000000E+00  0.74505805969E-08  0.10566000000E+00  0.10566000000E+00 0. -1.
     999900   -1    0    0    0    0 -0.00000000000E+00 -0.00000000000E+00 -0.74505805969E-08  0.93827000000E+00  0.93827000000E+00 0.  1.
     999902    2    1    2    0    0  0.83246028888E-02  0.21068073033E-01  0.67032937371E-02  0.10203059262E+01  0.10200323947E+01 0.  0.
     999903    2    3    3    0    0 -0.64763041627E-01 -0.99977012215E-01 -0.41678348690E-01  0.12770607200E+00  0.19547417849E-01 0.  0.
         14    1    1    2    0    0 -0.83246028888E-02 -0.21068073033E-01 -0.67032937371E-02  0.23624073770E-01  0.00000000000E+00 0. -1.
     999901    1    3    3    0    0  0.73087644516E-01  0.12104508525E+00  0.48381642427E-01  0.89259985423E+00  0.88000000000E+00 0. -1.
        -11    1    4    4    0    0 -0.34222637096E-01 -0.40276327919E-01 -0.25681599632E-01  0.58763740190E-01  0.51100000000E-03 0.  1.
         11    1    4    4    0    0 -0.30540404531E-01 -0.59700684296E-01 -0.15996749058E-01  0.68942331812E-01  0.51100000000E-03 0. -1.
</event>
<event>
 8    1  0.1106168E+005  0.1043930E+01  0.7957747E-01            NaN
         13   -1    0    0    0    0  0.00000000000E+00  0.00000000000E+00  0.74505805969E-08  0.10566000000E+00  0.10566000000E+00 0.  1.
     999900   -1    0    0    0    0 -0.00000000000E+00 -0.00000000000E+00 -0.74505805969E-08  0.93827000000E+00  0.93827000000E+00 0.  1.
     999902    2    1    2    0    0  0.75780701979E-02  0.80768846550E-02 -0.20727690521E-01  0.10204289284E+01  0.10201582708E+01 0.  0.
     999903    2    3    3    0    0  0.12844025327E-01  0.10532933721E+00  0.72667768708E-01  0.13014331037E+00  0.19935856120E-01 0.  0.
         14    1    1    2    0    0 -0.75780701979E-02 -0.80768846550E-02  0.20727690521E-01  0.23501071635E-01  0.00000000000E+00 0.  1.
     999901    1    3    3    0    0 -0.52659551289E-02 -0.97252452560E-01 -0.93395459229E-01  0.89028561800E+00  0.88000000000E+00 0. -1.
        -11    1    4    4    0    0  0.12671019404E-01  0.29399224644E-01  0.20521337928E-01  0.38029667021E-01  0.51100000000E-03 0. -1.
         11    1    4    4    0    0  0.17300592302E-03  0.75930112571E-01  0.52146430780E-01  0.92113643344E-01  0.51100000000E-03 0.  1.
</event>
<event>
 8    1  0.1106168E+005  0.1043930E+01  0.7957747E-01            NaN
         13   -1    0    0    0    0  0.00000000000E+00  0.00000000000E+00  0.74505805969E-08  0.10566000000E+00  0.10566000000E+00 0.  1.
     999900   -1    0    0    0    0 -0.00000000000E+00 -0.00000000000E+00 -0.74505805969E-08  0.93827000000E+00  0.93827000000E+00 0.  1.
     999902    2    1    2    0    0  0.22467870708E-01  0.46074652483E-02  0.30608642115E-02  0.10207912265E+01  0.10205289438E+01 0.  0.
     999903    2    3    3    0    0  0.10036480242E+00 -0.35818255992E-01  0.77599964193E-01  0.13329010066E+00  0.19709273570E-01 0.  0.
         14    1    1    2    0    0 -0.22467870708E-01 -0.46074652483E-02 -0.30608642115E-02  0.23138773518E-01  0.00000000000E+00 0. -1.
     999901    1    3    3    0    0 -0.77896931710E-01  0.40425721241E-01 -0.74539099982E-01  0.88750112582E+00  0.88000000000E+00 0.  1.
        -11    1    4    4    0    0  0.73789855830E-01 -0.16821956513E-01  0.55280536092E-01  0.93723635418E-01  0.51100000000E-03 0. -1.
         11    1    4    4    0    0  0.26574946589E-01 -0.18996299479E-01  0.22319428101E-01  0.39566465243E-01  0.51100000000E-03 0.  1.
</event>
<event>
 7    1  0.1106168E+005  0.1043930E+01  0.7957747E-01            NaN
         13   -1    0    0    0    0  0.00000000000E+00  0.00000000000E+00  0.74505805969E-08  0.10566000000E+00  0.10566000000E+00 0. -1.
     999900   -1    0    0    0    0 -0.00000000000E+00 -0.00000000000E+00 -0.74505805969E-08  0.93827000000E+00  0.93827000000E+00 0. -1.
     999903    2    1    2    0    0  0.62079147247E-01  0.84304996658E-01 -0.17591667143E-01  0.10805536517E+00  0.20133112158E-01 0.  0.
         14    1    1    2    0    0  0.12422250242E-01 -0.47134610197E-01 -0.16010859252E-01  0.51306251018E-01  0.00000000000E+00 0.  1.
     999901    1    1    2    0    0 -0.74501397489E-01 -0.37170386461E-01  0.33602526395E-01  0.88456838381E+00  0.88000000000E+00 0.  1.
        -11    1    3    3    0    0  0.43880212872E-01  0.42884038137E-01 -0.10873560401E-01  0.62313796590E-01  0.51100000000E-03 0. -1.
         11    1    3    3    0    0  0.18198934375E-01  0.41420958521E-01 -0.67181067425E-02  0.45741568582E-01  0.51100000000E-03 0.  1.
</event>
<event>
 8    1  0.1106168E+005  0.1043930E+01  0.7957747E-01            NaN
         13   -1    0    0    0    0  0.00000000000E+00  0.00000000000E+00  0.74505805969E-08  0.10566000000E+00  0.10566000000E+00 0.  1.
     999900   -1    0    0    0    0 -0.00000000000E+00 -0.00000000000E+00 -0.74505805969E-08  0.93827000000E+00  0.93827000000E+00 0.  1.
     999902    2    1    2    0    0  0.17003462274E-01 -0.12763888752E-01  0.11565163096E-01  0.10197269510E+01  0.10194396828E+01 0.  0.
     999903    2    3    3    0    0 -0.12553835244E+00  0.69187628289E-02 -0.10348658563E-01  0.12777079100E+00  0.20261616043E-01 0.  0.
         14    1    1    2    0    0 -0.17003462274E-01  0.12763888752E-01 -0.11565163096E-01  0.24203049040E-01  0.00000000000E+00 0. -1.
     999901    1    3    3    0    0  0.14254181472E+00 -0.19682651581E-01  0.21913821658E-01  0.89195615996E+00  0.88000000000E+00 0. -1.
        -11    1    4    4    0    0 -0.13126489908E-01 -0.44822697476E-04 -0.74564041609E-02  0.15105159066E-01  0.51100000000E-03 0. -1.
         11    1    4    4    0    0 -0.11241186254E+00  0.69635855264E-02 -0.28922544018E-02  0.11266563193E+00  0.51100000000E-03 0.  1.
</event>
<event>
 8    1  0.1106168E+005  0.1043930E+01  0.7957747E-01            NaN
         13   -1    0    0    0    0  0.00000000000E+00  0.00000000000E+00  0.74505805969E-08  0.10566000000E+00  0.10566000000E+00 0. -1.
     999900   -1    0    0    0    0 -0.00000000000E+00 -0.00000000000E+00 -0.74505805969E-08  0.93827000000E+00  0.93827000000E+00 0.  1.
     999902    2    1    2    0    0  0.19737615704E-01  0.13024529153E-01 -0.23795985126E-04  0.10202823278E+01  0.10200082431E+01 0.  0.
     999903    2    3    3    0    0 -0.55240681484E-01 -0.74658734719E-01  0.85873643869E-01  0.12860499269E+00  0.23227179602E-01 0.  0.
         14    1    1    2    0    0 -0.19737615704E-01 -0.13024529153E-01  0.23795985126E-04  0.23647672181E-01  0.00000000000E+00 0.  1.
     999901    1    3    3    0    0  0.74978297189E-01  0.87683263871E-01 -0.85897439854E-01  0.89167733513E+00  0.88000000000E+00 0.  1.
        -11    1    4    4    0    0 -0.10665224480E-01 -0.31196909262E-01  0.36128653832E-01  0.48913545255E-01  0.51100000000E-03 0. -1.
         11    1    4    4    0    0 -0.44575457004E-01 -0.43461825457E-01  0.49744990037E-01  0.79691447433E-01  0.51100000000E-03 0.  1.
</event>
<event>
 8    1  0.1106168E+005  0.1043930E+01  0.7957747E-01            NaN
         13   -1    0    0    0    0  0.00000000000E+00  0.00000000000E+00  0.74505805969E-08  0.10566000000E+00  0.10566000000E+00 0.  1.
     999900   -1    0    0    0    0 -0.00000000000E+00 -0.00000000000E+00 -0.74505805969E-08  0.93827000000E+00  0.93827000000E+00 0. -1.
     999902    2    1    2    0    0 -0.84040748895E-02  0.17358219640E-01  0.14642823479E-01  0.10197153651E+01  0.10194278186E+01 0.  0.
     999903    2    3    3    0    0  0.40659785697E-01  0.12033058790E+00  0.31310845322E-01  0.13219725600E+00  0.19054576923E-01 0.  0.
         14    1    1    2    0    0  0.84040748895E-02 -0.17358219640E-01 -0.14642823479E-01  0.24214634898E-01  0.00000000000E+00 0. -1.
     999901    1    3    3    0    0 -0.49063860587E-01 -0.10297236826E+00 -0.16668021842E-01  0.88751810911E+00  0.88000000000E+00 0. -1.
        -11    1    4    4    0    0  0.28536125524E-01  0.69075103010E-01  0.10116287339E-01  0.75420691500E-01  0.51100000000E-03 0. -1.
         11    1    4    4    0    0  0.12123660173E-01  0.51255484885E-01  0.21194557983E-01  0.56776564495E-01  0.51100000000E-03 0.  1.
</event>
<event>
 8    1  0.1106168E+005  0.1043930E+01  0.7957747E-01            NaN
         13   -1    0    0    0    0  0.00000000000E+00  0.00000000000E+00  0.74505805969E-08  0.10566000000E+00  0.10566000000E+00 0.  1.
     999900   -1    0    0    0    0 -0.00000000000E+00 -0.00000000000E+00 -0.74505805969E-08  0.93827000000E+00  0.93827000000E+00 0. -1.
     999902    2    1    2    0    0 -0.95366095728E-02  0.29234421803E-02  0.25267365789E-01  0.10167650739E+01  0.10164021263E+01 0.  0.
     999903    2    3    3    0    0 -0.15686074809E-01 -0.10820275150E+00  0.65110200544E-01  0.12886063178E+00  0.20293738786E-01 0.  0.
         14    1    1    2    0    0  0.95366095728E-02 -0.29234421803E-02 -0.25267365789E-01  0.27164926105E-01  0.00000000000E+00 0. -1.
     999901    1    3    3    0    0  0.61494652361E-02  0.11112619368E+00 -0.39842834754E-01  0.88790444211E+00  0.88000000000E+00 0. -1.
        -11    1    4    4    0    0 -0.13086853065E-01 -0.42497620544E-01  0.18030579494E-01  0.47986210445E-01  0.51100000000E-03 0.  1.
         11    1    4    4    0    0 -0.25992217434E-02 -0.65705130953E-01  0.47079621050E-01  0.80874421337E-01  0.51100000000E-03 0. -1.
</event>
<event>
 8    1  0.1106168E+005  0.1043930E+01  0.7957747E-01            NaN
         13   -1    0    0    0    0  0.00000000000E+00  0.00000000000E+00  0.74505805969E-08  0.10566000000E+00  0.10566000000E+00 0.  1.
     999900   -1    0    0    0    0 -0.00000000000E+00 -0.00000000000E+00 -0.74505805969E-08  0.93827000000E+00  0.93827000000E+00 0.  1.
     999902    2    1    2    0    0 -0.17894224390E-02  0.21394413051E-01  0.91050038721E-02  0.10206099649E+01  0.10203435090E+01 0.  0.
     999903    2    3    3    0    0 -0.73646460667E-01  0.79528954606E-01 -0.72652267610E-01  0.13200020221E+00  0.19926003272E-01 0.  0.
         14    1    1    2    0    0  0.17894224390E-02 -0.21394413051E-01 -0.91050038721E-02  0.23320035119E-01  0.00000000000E+00 0. -1.
     999901    1    3    3    0    0  0.71857038228E-01 -0.58134541555E-01  0.81757271482E-01  0.88860976267E+00  0.88000000000E+00 0. -1.
        -11    1    4    4    0    0 -0.31053753887E-01  0.21156970494E-01 -0.30039807520E-01  0.48110333483E-01  0.51100000000E-03 0. -1.
         11    1    4    4    0    0 -0.42592706780E-01  0.58371984112E-01 -0.42612460090E-01  0.83889868732E-01  0.51100000000E-03 0.  1.
</event>
<event>
 8    1  0.1106168E+005  0.1043930E+01  0.7957747E-01            NaN
         13   -1    0    0    0    0  0.00000000000E+00  0.00000000000E+00  0.74505805969E-08  0.10566000000E+00  0.10566000000E+00 0.  1.
     999900   -1    0    0    0    0 -0.00000000000E+00 -0.00000000000E+00 -0.74505805969E-08  0.93827000000E+00  0.93827000000E+00 0. -1.
     999902    2    1    2    0    0  0.62783738845E-02 -0.21042264062E-01  0.81411643239E-02  0.10205104908E+01  0.10202417304E+01 0.  0.
     999903    2    3    3    0    0 -0.60598324833E-03 -0.12554348571E+00  0.38114264480E-01  0.13379391462E+00  0.26202679509E-01 0.  0.
         14    1    1    2    0    0 -0.62783738845E-02  0.21042264062E-01 -0.81411643239E-02  0.23419509219E-01  0.00000000000E+00 0. -1.
     999901    1    3    3    0    0  0.68843571328E-02  0.10450122165E+00 -0.29973100156E-01  0.88671657616E+00  0.88000000000E+00 0.  1.
        -11    1    4    4    0    0  0.77353605821E-02 -0.60946290019E-01  0.77353439720E-02  0.61922392863E-01  0.51100000000E-03 0.  1.
         11    1    4    4    0    0 -0.83413438304E-02 -0.64597195691E-01  0.30378920508E-01  0.71871521761E-01  0.51100000000E-03 0. -1.
</event>
<event>
 8    1  0.1106168E+005  0.1043930E+01  0.7957747E-01            NaN
         13   -1    0    0    0    0  0.00000000000E+00  0.00000000000E+00  0.74505805969E-08  0.10566000000E+00  0.10566000000E+00 0. -1.
     999900   -1    0    0    0    0 -0.00000000000E+00 -0.00000000000E+00 -0.74505805969E-08  0.93827000000E+00  0.93827000000E+00 0.  1.
     999902    2    1    2    0    0  0.53966759157E-03  0.22795895404E-01  0.84715654947E-02  0.10196048790E+01  0.10193146707E+01 0.  0.
     999903    2    3    3    0    0  0.10417500335E-01  0.47765325848E-01 -0.11896150121E+00  0.13002057694E+00  0.19064652877E-01 0.  0.
         14    1    1    2    0    0 -0.53966759157E-03 -0.22795895404E-01 -0.84715654947E-02  0.24325120972E-01  0.00000000000E+00 0.  1.
     999901    1    3    3    0    0 -0.98778327432E-02 -0.24969430444E-01  0.12743306671E+00  0.88958430209E+00  0.88000000000E+00 0. -1.
        -11    1    4    4    0    0  0.12872645367E-01  0.25965942805E-01 -0.51713566554E-01  0.59283128049E-01  0.51100000000E-03 0.  1.
         11    1    4    4    0    0 -0.24551450324E-02  0.21799383043E-01 -0.67247934660E-01  0.70737448888E-01  0.51100000000E-03 0. -1.
</event>
<event>
 8    1  0.1106168E+005  0.1043930E+01  0.7957747E-01            NaN
         13   -1    0    0    0    0  0.00000000000E+00  0.00000000000E+00  0.74505805969E-08  0.10566000000E+00  0.10566000000E+00 0. -1.
     999900   -1    0    0    0    0 -0.00000000000E+00 -0.00000000000E+00 -0.74505805969E-08  0.93827000000E+00  0.93827000000E+00 0.  1.
     999902    2    1    2    0    0  0.11774676645E-01 -0.16322300426E-01 -0.13279959093E-01  0.10198173930E+01  0.10195322934E+01 0.  0.
     999903    2    3    3    0    0 -0.57046689430E-01 -0.17480275288E-01  0.11231890235E+00  0.12823857132E+00  0.16422866656E-01 0.  0.
         14    1    1    2    0    0 -0.11774676645E-01  0.16322300426E-01  0.13279959093E-01  0.24112606968E-01  0.00000000000E+00 0. -1.
     999901    1    3    3    0    0  0.68821366075E-01  0.11579748623E-02 -0.12559886144E+00  0.89157882171E+00  0.88000000000E+00 0.  1.
        -11    1    4    4    0    0 -0.23729615111E-02 -0.23953191807E-02  0.14540910783E-02  0.37072904087E-02  0.51100000000E-03 0.  1.
         11    1    4    4    0    0 -0.54673727919E-01 -0.15084956107E-01  0.11086481127E+00  0.12453128091E+00  0.51100000000E-03 0. -1.
</event>
<event>
 8    1  0.1106168E+005  0.1043930E+01  0.7957747E-01            NaN
         13   -1    0    0    0    0  0.00000000000E+00  0.00000000000E+00  0.74505805969E-08  0.10566000000E+00  0.10566000000E+00 0. -1.
     999900   -1    0    0    0    0 -0.00000000000E+00 -0.00000000000E+00 -0.74505805969E-08  0.93827000000E+00  0.93827000000E+00 0. -1.
     999902    2    1    2    0    0  0.21933236839E-01  0.53554441502E-02 -0.10964449217E-01  0.10188308604E+01  0.10185216519E+01 0.  0.
     999903    2    3    3    0    0 -0.67877818768E-01 -0.10023774009E+00  0.32627468118E-01  0.12691371096E+00  0.19685922256E-01 0.  0.
         14    1    1    2    0    0 -0.21933236839E-01 -0.53554441502E-02  0.10964449217E-01  0.25099139565E-01  0.00000000000E+00 0. -1.
     999901    1    3    3    0    0  0.89811055608E-01  0.10559318424E+00 -0.43591917335E-01  0.89191714947E+00  0.88000000000E+00 0.  1.
        -11    1    4    4    0    0 -0.19179501235E-01 -0.27290001499E-01  0.18272670340E-01  0.38036154534E-01  0.51100000000E-03 0. -1.
         11    1    4    4    0    0 -0.48698317533E-01 -0.72947738592E-01  0.14354797778E-01  0.88877556427E-01  0.51100000000E-03 0.  1.
</event>
<event>
 8    1  0.1106168E+005  0.1043930E+01  0.7957747E-01            NaN
         13   -1    0    0    0    0  0.00000000000E+00  0.00000000000E+00  0.74505805969E-08  0.10566000000E+00  0.10566000000E+00 0. -1.
     999900   -1    0    0    0    0 -0.00000000000E+00 -0.00000000000E+00 -0.74505805969E-08  0.93827000000E+00  0.93827000000E+00 0. -1.
     999902    2    1    2    0    0 -0.16181251978E-01 -0.14775348507E-01  0.18260951130E-02  0.10219418563E+01  0.10217052800E+01 0.  0.
     999903    2    3    3    0    0  0.24799600140E-01  0.80154255310E-01  0.98035670698E-01  0.13068019869E+00  0.20654219670E-01 0.  0.
         14    1    1    2    0    0  0.16181251978E-01  0.14775348507E-01 -0.18260951130E-02  0.21988143679E-01  0.00000000000E+00 0.  1.
     999901    1    3    3    0    0 -0.40980852118E-01 -0.94929603817E-01 -0.96209575585E-01  0.89126165763E+00  0.88000000000E+00 0. -1.
        -11    1    4    4    0    0  0.10953091182E-01  0.16323312666E-01  0.33584351779E-01  0.38917740791E-01  0.51100000000E-03 0.  1.
         11    1    4    4    0    0  0.13846508957E-01  0.63830942644E-01  0.64451318920E-01  0.91762457904E-01  0.51100000000E-03 0. -1.
</event>
<event>
 8    1  0.1106168E+005  0.1043930E+01  0.7957747E-01            NaN
         13   -1    0    0    0    0  0.00000000000E+00  0.00000000000E+00  0.74505805969E-08  0.10566000000E+00  0.10566000000E+00 0.  1.
     999900   -1    0    0    0    0 -0.00000000000E+00 -0.00000000000E+00 -0.74505805969E-08  0.93827000000E+00  0.93827000000E+00 0.  1.
     999902    2    1    2    0    0  0.20946724581E-01 -0.73707950681E-02 -0.96312388430E-02  0.10197255654E+01  0.10194382640E+01 0.  0.
     999903    2    3    3    0    0 -0.16200320782E-01  0.98228167451E-01 -0.80943547831E-01  0.12977248282E+00  0.19437491771E-01 0.  0.
         14    1    1    2    0    0 -0.20946724581E-01  0.73707950681E-02  0.96312388430E-02  0.24204434557E-01  0.00000000000E+00 0.  1.
     999901    1    3    3    0    0  0.37147045363E-01 -0.10559896252E+00  0.71312308988E-01  0.88995308263E+00  0.88000000000E+00 0. -1.
        -11    1    4    4    0    0  0.29109997784E-02  0.14370993423E-01 -0.17835306427E-01  0.23094558840E-01  0.51100000000E-03 0.  1.
         11    1    4    4    0    0 -0.19111320560E-01  0.83857174029E-01 -0.63108241403E-01  0.10667792398E+00  0.51100000000E-03 0. -1.
</event>
<event>
 8    1  0.1106168E+005  0.1043930E+01  0.7957747E-01            NaN
         13   -1    0    0    0    0  0.00000000000E+00  0.00000000000E+00  0.74505805969E-08  0.10566000000E+00  0.10566000000E+00 0. -1.
     999900   -1    0    0    0    0 -0.00000000000E+00 -0.00000000000E+00 -0.74505805969E-08  0.93827000000E+00  0.93827000000E+00 0. -1.
     999902    2    1    2    0    0  0.18565700931E-01  0.12424537536E-01  0.71194221974E-02  0.10204834532E+01  0.10202140647E+01 0.  0.
     999903    2    3    3    0    0  0.59173901738E-01 -0.11346882765E+00  0.15788368816E-01  0.13055462684E+00  0.20457578144E-01 0.  0.
         14    1    1    2    0    0 -0.18565700931E-01 -0.12424537536E-01 -0.71194221974E-02  0.23446546792E-01  0.00000000000E+00 0. -1.
     999901    1    3    3    0    0 -0.40608200808E-01  0.12589336519E+00 -0.86689466185E-02  0.88992882637E+00  0.88000000000E+00 0.  1.
        -11    1    4    4    0    0  0.45091162916E-01 -0.98996990450E-01  0.86345446510E-02  0.10912576952E+00  0.51100000000E-03 0. -1.
         11    1    4    4    0    0  0.14082738823E-01 -0.14471837200E-01  0.71538241649E-02  0.21428857316E-01  0.51100000000E-03 0.  1.
</event>
<event>
 8    1  0.1106168E+005  0.1043930E+01  0.7957747E-01            NaN
         13   -1    0    0    0    0  0.00000000000E+00  0.00000000000E+00  0.74505805969E-08  0.10566000000E+00  0.10566000000E+00 0. -1.
     999900   -1    0    0    0    0 -0.00000000000E+00 -0.00000000000E+00 -0.74505805969E-08  0.93827000000E+00  0.93827000000E+00 0.  1.
     999902    2    1    2    0    0  0.18570670406E-01  0.36976032254E-02 -0.15808586955E-01  0.10192631500E+01  0.10189646291E+01 0.  0.
     999903    2    3    3    0    0 -0.36143196223E-01  0.11366307584E+00 -0.47955008825E-01  0.13015156822E+00  0.20349997450E-01 0.  0.
         14    1    1    2    0    0 -0.18570670406E-01 -0.36976032254E-02  0.15808586955E-01  0.24666850031E-01  0.00000000000E+00 0. -1.
     999901    1    3    3    0    0  0.54713866628E-01 -0.10996547261E+00  0.32146421870E-01  0.88911158175E+00  0.88000000000E+00 0. -1.
        -11    1    4    4    0    0 -0.20217975927E-01  0.32513919382E-01 -0.14602754459E-01  0.40980764548E-01  0.51100000000E-03 0. -1.
         11    1    4    4    0    0 -0.15925220296E-01  0.81149156454E-01 -0.33352254366E-01  0.89170803669E-01  0.51100000000E-03 0.  1.
</event>
<event>
 8    1  0.1106168E+005  0.1043930E+01  0.7957747E-01            NaN
         13   -1    0    0    0    0  0.00000000000E+00  0.00000000000E+00  0.74505805969E-08  0.10566000000E+00  0.10566000000E+00 0.  1.
     999900   -1    0    0    0    0 -0.00000000000E+00 -0.00000000000E+00 -0.74505805969E-08  0.93827000000E+00  0.93827000000E+00 0.  1.
     999902    2    1    2    0    0  0.41529767914E-02 -0.22431403257E-01 -0.11052643757E-01  0.10185809171E+01  0.10182654412E+01 0.  0.
     999903    2    3    3    0    0 -0.58146310494E-01 -0.74603265304E-01  0.85074349282E-01  0.12962450471E+00  0.24864164949E-01 0.  0.
         14    1    1    2    0    0 -0.41529767914E-02  0.22431403257E-01  0.11052643757E-01  0.25349082870E-01  0.00000000000E+00 0.  1.
     999901    1    3    3    0    0  0.62299287285E-01  0.52171862047E-01 -0.96126993039E-01  0.88895641242E+00  0.88000000000E+00 0.  1.
        -11    1    4    4    0    0 -0.17435759510E-01 -0.26218541739E-01  0.44413251123E-01  0.54444610725E-01  0.51100000000E-03 0. -1.
         11    1    4    4    0    0 -0.40710550984E-01 -0.48384723564E-01  0.40661098159E-01  0.75179893989E-01  0.51100000000E-03 0.  1.
</event>
<event>
 8    1  0.1106168E+005  0.1043930E+01  0.7957747E-01            NaN
         13   -1    0    0    0    0  0.00000000000E+00  0.00000000000E+00  0.74505805969E-08  0.10566000000E+00  0.10566000000E+00 0. -1.
     999900   -1    0    0    0    0 -0.00000000000E+00 -0.00000000000E+00 -0.74505805969E-08  0.93827000000E+00  0.93827000000E+00 0. -1.
     999902    2    1    2    0    0 -0.10241363269E-01 -0.17006435689E-01  0.13033057370E-01  0.10201820535E+01  0.10199056120E+01 0.  0.
     999903    2    3    3    0    0  0.95562854498E-03 -0.15858398631E-01  0.12997176546E+00  0.13237500690E+00  0.19444294851E-01 0.  0.
         14    1    1    2    0    0  0.10241363269E-01  0.17006435689E-01 -0.13033057370E-01  0.23747946456E-01  0.00000000000E+00 0.  1.
     999901    1    3    3    0    0 -0.11196991814E-01 -0.11480370582E-02 -0.11693870809E+00  0.88780704664E+00  0.88000000000E+00 0. -1.
        -11    1    4    4    0    0  0.47866281355E-02 -0.24895907572E-02  0.83171960078E-02  0.99270711430E-02  0.51100000000E-03 0. -1.
         11    1    4    4    0    0 -0.38309995905E-02 -0.13368807874E-01  0.12165456945E+00  0.12244793576E+00  0.51100000000E-03 0.  1.
</event>
<event>
 8    1  0.1106168E+005  0.1043930E+01  0.7957747E-01            NaN
         13   -1    0    0    0    0  0.00000000000E+00  0.00000000000E+00  0.74505805969E-08  0.10566000000E+00  0.10566000000E+00 0.  1.
     999900   -1    0    0    0    0 -0.00000000000E+00 -0.00000000000E+00 -0.74505805969E-08  0.93827000000E+00  0.93827000000E+00 0.  1.
     999902    2    1    2    0    0  0.21729584974E-01 -0.16811125804E-02 -0.36446997944E-02  0.10218328319E+01  0.10215938779E+01 0.  0.
     999903    2    3    3    0    0  0.98116091242E-01  0.71772422324E-01  0.50427746149E-01  0.13382711706E+00  0.24262969977E-01 0.  0.
         14    1    1    2    0    0 -0.21729584974E-01  0.16811125804E-02  0.36446997944E-02  0.22097168127E-01  0.00000000000E+00 0. -1.
     999901    1    3    3    0    0 -0.76386506269E-01 -0.73453534905E-01 -0.54072445944E-01  0.88800571481E+00  0.88000000000E+00 0.  1.
        -11    1    4    4    0    0  0.51999419241E-01  0.44709075152E-01  0.16625778494E-01  0.70565704375E-01  0.51100000000E-03 0. -1.
         11    1    4    4    0    0  0.46116672001E-01  0.27063347172E-01  0.33801967656E-01  0.63261412686E-01  0.51100000000E-03 0.  1.
</event>
<event>
 8    1  0.1106168E+005  0.1043930E+01  0.7957747E-01            NaN
         13   -1    0    0    0    0  0.00000000000E+00  0.00000000000E+00  0.74505805969E-08  0.10566000000E+00  0.10566000000E+00 0. -1.
     999900   -1    0    0    0    0 -0.00000000000E+00 -0.00000000000E+00 -0.74505805969E-08  0.93827000000E+00  0.93827000000E+00 0.  1.
     999902    2    1    2    0    0  0.35364151045E-02  0.11801362138E-01  0.17647503992E-01  0.10224076215E+01  0.10221810660E+01 0.  0.
     999903    2    3    3    0    0  0.56953467663E-01  0.44065496937E-01  0.11374692217E+00  0.13497905868E+00  0.97733555847E-02 0.  0.
         14    1    1    2    0    0 -0.35364151045E-02 -0.11801362138E-01 -0.17647503992E-01  0.21522378521E-01  0.00000000000E+00 0.  1.
     999901    1    3    3    0    0 -0.53417052558E-01 -0.32264134799E-01 -0.96099418179E-01  0.88742856280E+00  0.88000000000E+00 0. -1.
        -11    1    4    4    0    0  0.41960802398E-02  0.18107671265E-02  0.11743023750E-01  0.12611331998E-01  0.51100000000E-03 0. -1.
         11    1    4    4    0    0  0.52757387423E-01  0.42254729810E-01  0.10200389842E+00  0.12236772668E+00  0.51100000000E-03 0.  1.
</event>
<event>
 8    1  0.1106168E+005  0.1043930E+01  0.7957747E-01            NaN
         13   -1    0    0    0    0  0.00000000000E+00  0.00000000000E+00  0.74505805969E-08  0.10566000000E+00  0.10566000000E+00 0. -1.
     999900   -1    0    0    0    0 -0.00000000000E+00 -0.00000000000E+00 -0.74505805969E-08  0.93827000000E+00  0.93827000000E+00 0. -1.
     999902    2    1    2    0    0 -0.39199009392E-02  0.20667399006E-01 -0.10616896537E-01  0.10203667766E+01  0.10200946688E+01 0.  0.
     999903    2    3    3    0    0 -0.66283550722E-02  0.81755484712E-02  0.12764048763E+00  0.12948042788E+00  0.19034506493E-01 0.  0.
         14    1    1    2    0    0  0.39199009392E-02 -0.20667399006E-01  0.10616896537E-01  0.23563223403E-01  0.00000000000E+00 0.  1.
     999901    1    3    3    0    0  0.27084541330E-02  0.12491850535E-01 -0.13825738417E+00  0.89088634872E+00  0.88000000000E+00 0. -1.
        -11    1    4    4    0    0  0.41011750079E-02  0.34471326293E-03  0.77401791245E-01  0.77512817473E-01  0.51100000000E-03 0. -1.
         11    1    4    4    0    0 -0.10729530080E-01  0.78308352082E-02  0.50238696387E-01  0.51967610407E-01  0.51100000000E-03 0.  1.
</event>
<event>
 8    1  0.1106168E+005  0.1043930E+01  0.7957747E-01            NaN
         13   -1    0    0    0    0  0.00000000000E+00  0.00000000000E+00  0.74505805969E-08  0.10566000000E+00  0.10566000000E+00 0. -1.
     999900   -1    0    0    0    0 -0.00000000000E+00 -0.00000000000E+00 -0.74505805969E-08  0.93827000000E+00  0.93827000000E+00 0.  1.
     999902    2    1    2    0    0 -0.22435427769E-02 -0.29127226664E-03 -0.24276349200E-01  0.10195484608E+01  0.10192568883E+01 0.  0.
     999903    2    3    3    0    0  0.64147910625E-01  0.88007891853E-01  0.64538243424E-01  0.12820531736E+00  0.20274986321E-01 0.  0.
         14    1    1    2    0    0  0.22435427769E-02  0.29127226664E-03  0.24276349200E-01  0.24381539209E-01  0.00000000000E+00 0. -1.
     999901    1    3    3    0    0 -0.66391453402E-01 -0.88299164120E-01 -0.88814592624E-01  0.89134314343E+00  0.88000000000E+00 0.  1.
        -11    1    4    4    0    0  0.49217413918E-01  0.63640409855E-01  0.37139646549E-01  0.88611907022E-01  0.51100000000E-03 0. -1.
         11    1    4    4    0    0  0.14930496708E-01  0.24367481998E-01  0.27398596875E-01  0.39593410343E-01  0.51100000000E-03 0.  1.
</event>
<event>
 8    1  0.1106168E+005  0.1043930E+01  0.7957747E-01            NaN
         13   -1    0    0    0    0  0.00000000000E+00  0.00000000000E+00  0.74505805969E-08  0.10566000000E+00  0.10566000000E+00 0.  1.
     999900   -1    0    0    0    0 -0.00000000000E+00 -0.00000000000E+00 -0.74505805969E-08  0.93827000000E+00  0.93827000000E+00 0. -1.
     999902    2    1    2    0    0 -0.85747408449E-02 -0.58282656549E-02 -0.21622244384E-01  0.10199505022E+01  0.10196685788E+01 0.  0.
     999903    2    3    3    0    0  0.72542567572E-01 -0.71480975611E-01  0.75802489875E-01  0.12844510410E+00  0.19498033543E-01 0.  0.
         14    1    1    2    0    0  0.85747408449E-02  0.58282656549E-02  0.21622244384E-01  0.23979497770E-01  0.00000000000E+00 0.  1.
     999901    1    3    3    0    0 -0.81117308416E-01  0.65652709956E-01 -0.97424734259E-01  0.89150539813E+00  0.88000000000E+00 0. -1.
        -11    1    4    4    0    0  0.63303985508E-01 -0.51435391047E-01  0.58052510022E-01  0.10011667730E+00  0.51100000000E-03 0.  1.
         11    1    4    4    0    0  0.92385820635E-02 -0.20045584563E-01  0.17749979853E-01  0.28328426798E-01  0.51100000000E-03 0. -1.
</event>
<event>
 8    1  0.1106168E+005  0.1043930E+01  0.7957747E-01            NaN
         13   -1    0    0    0    0  0.00000000000E+00  0.00000000000E+00  0.74505805969E-08  0.10566000000E+00  0.10566000000E+00 0. -1.
     999900   -1    0    0    0    0 -0.00000000000E+00 -0.00000000000E+00 -0.74505805969E-08  0.93827000000E+00  0.93827000000E+00 0.  1.
     999902    2    1    2    0    0 -0.21416724319E-01 -0.67078388150E-02 -0.78488703820E-02  0.10201544674E+01  0.10198773757E+01 0.  0.
     999903    2    3    3    0    0  0.10600384508E+00 -0.60675496570E-01  0.34250141583E-01  0.12834684447E+00  0.19532261286E-01 0.  0.
         14    1    1    2    0    0  0.21416724319E-01  0.67078388150E-02  0.78488703820E-02  0.23775532557E-01  0.00000000000E+00 0. -1.
     999901    1    3    3    0    0 -0.12742056940E+00  0.53967657755E-01 -0.42099011965E-01  0.89180762298E+00  0.88000000000E+00 0.  1.
        -11    1    4    4    0    0  0.44262309695E-01 -0.33993964829E-01  0.91669759947E-02  0.56560023640E-01  0.51100000000E-03 0. -1.
         11    1    4    4    0    0  0.61741535383E-01 -0.26681531741E-01  0.25083165588E-01  0.71786820827E-01  0.51100000000E-03 0.  1.
</event>
<event>
 8    1  0.1106168E+005  0.1043930E+01  0.7957747E-01            NaN
         13   -1    0    0    0    0  0.00000000000E+00  0.00000000000E+00  0.74505805969E-08  0.10566000000E+00  0.10566000000E+00 0. -1.
     999900   -1    0    0    0    0 -0.00000000000E+00 -0.00000000000E+00 -0.74505805969E-08  0.93827000000E+00  0.93827000000E+00 0. -1.
     999902    2    1    2    0    0  0.15341417230E-01  0.80169555042E-02  0.16429807149E-01  0.10200643506E+01  0.10197851294E+01 0.  0.
     999903    2    3    3    0    0  0.38794702638E-01 -0.10093060331E+00 -0.67614191248E-01  0.12906321658E+00  0.19839843189E-01 0.  0.
         14    1    1    2    0    0 -0.15341417230E-01 -0.80169555042E-02 -0.16429807149E-01  0.23865649397E-01  0.00000000000E+00 0.  1.
     999901    1    3    3    0    0 -0.23453285407E-01  0.10894755882E+00  0.84043998397E-01  0.89100113403E+00  0.88000000000E+00 0.  1.
        -11    1    4    4    0    0  0.16344464204E-01 -0.48802396917E-01 -0.20893656296E-01  0.55548370357E-01  0.51100000000E-03 0. -1.
         11    1    4    4    0    0  0.22450238433E-01 -0.52128206394E-01 -0.46720534952E-01  0.73514846220E-01  0.51100000000E-03 0.  1.
</event>
<event>
 8    1  0.1106168E+005  0.1043930E+01  0.7957747E-01            NaN
         13   -1    0    0    0    0  0.00000000000E+00  0.00000000000E+00  0.74505805969E-08  0.10566000000E+00  0.10566000000E+00 0. -1.
     999900   -1    0    0    0    0 -0.00000000000E+00 -0.00000000000E+00 -0.74505805969E-08  0.93827000000E+00  0.93827000000E+00 0. -1.
     999902    2    1    2    0    0 -0.70424338673E-02  0.13228599088E-01  0.20184800055E-01  0.10187900346E+01  0.10184798067E+01 0.  0.
     999903    2    3    3    0    0  0.16316030992E-01  0.60599469182E-01  0.11455195718E+00  0.13217017377E+00  0.20206321019E-01 0.  0.
         14    1    1    2    0    0  0.70424338673E-02 -0.13228599088E-01 -0.20184800055E-01  0.25139965431E-01  0.00000000000E+00 0.  1.
     999901    1    3    3    0    0 -0.23358464859E-01 -0.47370870093E-01 -0.94367157124E-01  0.88661986080E+00  0.88000000000E+00 0. -1.
        -11    1    4    4    0    0  0.12705713172E-01  0.57606070535E-01  0.93185766549E-01  0.11028935904E+00  0.51100000000E-03 0.  1.
         11    1    4    4    0    0  0.36103178200E-02  0.29933986468E-02  0.21366190630E-01  0.21880814730E-01  0.51100000000E-03 0. -1.
</event>
<event>
 8    1  0.1106168E+005  0.1043930E+01  0.7957747E-01            NaN
         13   -1    0    0    0    0  0.00000000000E+00  0.00000000000E+00  0.74505805969E-08  0.10566000000E+00  0.10566000000E+00 0.  1.
     999900   -1    0    0    0    0 -0.00000000000E+00 -0.00000000000E+00 -0.74505805969E-08  0.93827000000E+00  0.93827000000E+00 0.  1.
     999902    2    1    2    0    0 -0.10616436850E-01 -0.97103495305E-02 -0.17693317171E-01  0.10211253274E+01  0.10208706486E+01 0.  0.
     999903    2    3    3    0    0 -0.82240927700E-01 -0.99157385296E-01  0.24421411878E-01  0.13269722661E+00  0.20405669388E-01 0.  0.
         14    1    1    2    0    0  0.10616436850E-01  0.97103495305E-02  0.17693317171E-01  0.22804672589E-01  0.00000000000E+00 0.  1.
     999901    1    3    3    0    0  0.71624490851E-01  0.89447035765E-01 -0.42114729048E-01  0.88842810080E+00  0.88000000000E+00 0. -1.
        -11    1    4    4    0    0 -0.73508975321E-01 -0.89127281162E-01  0.15247240388E-01  0.11653317622E+00  0.51100000000E-03 0. -1.
         11    1    4    4    0    0 -0.87319523796E-02 -0.10030104133E-01  0.91741714892E-02  0.16164050383E-01  0.51100000000E-03 0.  1.
</event>
<event>
 8    1  0.1106168E+005  0.1043930E+01  0.7957747E-01            NaN
         13   -1    0    0    0    0  0.00000000000E+00  0.00000000000E+00  0.74505805969E-08  0.10566000000E+00  0.10566000000E+00 0. -1.
     999900   -1    0    0    0    0 -0.00000000000E+00 -0.00000000000E+00 -0.74505805969E-08  0.93827000000E+00  0.93827000000E+00 0.  1.
     999902    2    1    2    0    0 -0.81860014310E-02 -0.68780681182E-02  0.24030458822E-01  0.10176282626E+01  0.10172883069E+01 0.  0.
     999903    2    3    3    0    0  0.86647876925E-01  0.70571981108E-01 -0.53918177983E-01  0.12573815466E+00  0.20363067742E-01 0.  0.
         14    1    1    2    0    0  0.81860014310E-02  0.68780681182E-02 -0.24030458822E-01  0.26301737427E-01  0.00000000000E+00 0.  1.
     999901    1    3    3    0    0 -0.94833878356E-01 -0.77450049226E-01  0.77948636805E-01  0.89189010791E+00  0.88000000000E+00 0. -1.
        -11    1    4    4    0    0  0.36604422560E-01  0.42873148241E-01 -0.25739814863E-01  0.61974105732E-01  0.51100000000E-03 0. -1.
         11    1    4    4    0    0  0.50043454364E-01  0.27698832867E-01 -0.28178363119E-01  0.63764048930E-01  0.51100000000E-03 0.  1.
</event>
<event>
 8    1  0.1106168E+005  0.1043930E+01  0.7957747E-01            NaN
         13   -1    0    0    0    0  0.00000000000E+00  0.00000000000E+00  0.74505805969E-08  0.10566000000E+00  0.10566000000E+00 0.  1.
     999900   -1    0    0    0    0 -0.00000000000E+00 -0.00000000000E+00 -0.74505805969E-08  0.93827000000E+00  0.93827000000E+00 0. -1.
     999902    2    1    2    0    0  0.77818854062E-03  0.23539015220E-01  0.23766479299E-02  0.10202585136E+01  0.10199838701E+01 0.  0.
     999903    2    3    3    0    0  0.73485528057E-01 -0.60356795814E-02 -0.10529215934E+00  0.13022840629E+00  0.20891307368E-01 0.  0.
         14    1    1    2    0    0 -0.77818854062E-03 -0.23539015220E-01 -0.23766479299E-02  0.23671486440E-01  0.00000000000E+00 0. -1.
     999901    1    3    3    0    0 -0.72707339516E-01  0.29574694801E-01  0.10766880727E+00  0.89003010727E+00  0.88000000000E+00 0.  1.
        -11    1    4    4    0    0  0.41885744740E-01 -0.13246114395E-01 -0.54970545913E-01  0.70369717905E-01  0.51100000000E-03 0. -1.
         11    1    4    4    0    0  0.31599783317E-01  0.72104348136E-02 -0.50321613428E-01  0.59858688383E-01  0.51100000000E-03 0.  1.
</event>
<event>
 8    1  0.1106168E+005  0.1043930E+01  0.7957747E-01            NaN
         13   -1    0    0    0    0  0.00000000000E+00  0.00000000000E+00  0.74505805969E-08  0.10566000000E+00  0.10566000000E+00 0.  1.
     999900   -1    0    0    0    0 -0.00000000000E+00 -0.00000000000E+00 -0.74505805969E-08  0.93827000000E+00  0.93827000000E+00 0.  1.
     999902    2    1    2    0    0 -0.58799804015E-02  0.71895815094E-02  0.22521808795E-01  0.10195682241E+01  0.10192771299E+01 0.  0.
     999903    2    3    3    0    0  0.23412378185E-01  0.30609284592E-01  0.12541277304E+00  0.13278015741E+00  0.20423976205E-01 0.  0.
         14    1    1    2    0    0  0.58799804015E-02 -0.71895815094E-02 -0.22521808795E-01  0.24361775863E-01  0.00000000000E+00 0. -1.
     999901    1    3    3    0    0 -0.29292358587E-01 -0.23419703082E-01 -0.10289096425E+00  0.88678806673E+00  0.88000000000E+00 0.  1.
        -11    1    4    4    0    0  0.17193896634E-01  0.10552046512E-01  0.83428162968E-01  0.85834114804E-01  0.51100000000E-03 0. -1.
         11    1    4    4    0    0  0.62184815512E-02  0.20057238079E-01  0.41984610076E-01  0.46946042606E-01  0.51100000000E-03 0.  1.
</event>
<event>
 8    1  0.1106168E+005  0.1043930E+01  0.7957747E-01            NaN
         13   -1    0    0    0    0  0.00000000000E+00  0.00000000000E+00  0.74505805969E-08  0.10566000000E+00  0.10566000000E+00 0.  1.
     999900   -1    0    0    0    0 -0.00000000000E+00 -0.00000000000E+00 -0.74505805969E-08  0.93827000000E+00  0.93827000000E+00 0.  1.
     999902    2    1    2    0    0  0.14044956387E-01 -0.19564088387E-01 -0.86130737373E-03  0.10198311161E+01  0.10195463448E+01 0.  0.
     999903    2    3    3    0    0  0.10192638050E-01 -0.46368657208E-01  0.12060079559E+00  0.13107559983E+00  0.19552972451E-01 0.  0.
         14    1    1    2    0    0 -0.14044956387E-01  0.19564088387E-01  0.86130737373E-03  0.24098883890E-01  0.00000000000E+00 0.  1.
     999901    1    3    3    0    0  0.38523183366E-02  0.26804568821E-01 -0.12146210296E+00  0.88875551628E+00  0.88000000000E+00 0.  1.
        -11    1    4    4    0    0  0.69738022414E-02 -0.25158874284E-01  0.40805963045E-01  0.48445749184E-01  0.51100000000E-03 0.  1.
         11    1    4    4    0    0  0.32188358087E-02 -0.21209782924E-01  0.79794832545E-01  0.82629850644E-01  0.51100000000E-03 0. -1.
</event>
<event>
 8    1  0.1106168E+005  0.1043930E+01  0.7957747E-01            NaN
         13   -1    0    0    0    0  0.00000000000E+00  0.00000000000E+00  0.74505805969E-08  0.10566000000E+00  0.10566000000E+00 0. -1.
     999900   -1    0    0    0    0 -0.00000000000E+00 -0.00000000000E+00 -0.74505805969E-08  0.93827000000E+00  0.93827000000E+00 0.  1.
     999902    2    1    2    0    0  0.13656264695E-01  0.11905826418E-01 -0.16179768785E-01  0.10196395248E+01  0.10193501525E+01 0.  0.
     999903    2    3    3    0    0  0.39625754366E-01 -0.33173195676E-01 -0.11976571478E+00  0.13203793576E+00  0.20482400328E-01 0.  0.
         14    1    1    2    0    0 -0.13656264695E-01 -0.11905826418E-01  0.16179768785E-01  0.24290475213E-01  0.00000000000E+00 0.  1.
     999901    1    3    3    0    0 -0.25969489671E-01  0.45079022094E-01  0.10358594600E+00  0.88760158902E+00  0.88000000000E+00 0. -1.
        -11    1    4    4    0    0  0.26011780984E-01 -0.22920095961E-01 -0.54603787186E-01  0.64682132346E-01  0.51100000000E-03 0. -1.
         11    1    4    4    0    0  0.13613973382E-01 -0.10253099715E-01 -0.65161927597E-01  0.67355803419E-01  0.51100000000E-03 0.  1.
</event>
<event>
 8    1  0.1106168E+005  0.1043930E+01  0.7957747E-01            NaN
         13   -1    0    0    0    0  0.00000000000E+00  0.00000000000E+00  0.74505805969E-08  0.10566000000E+00  0.10566000000E+00 0.  1.
     999900   -1    0    0    0    0 -0.00000000000E+00 -0.00000000000E+00 -0.74505805969E-08  0.93827000000E+00  0.93827000000E+00 0.  1.
     999902    2    1    2    0    0 -0.12063420046E-01  0.95842357678E-03  0.19912652806E-01  0.10206285318E+01  0.10203625049E+01 0.  0.
     999903    2    3    3    0    0  0.23151781211E-01  0.10065503477E+00 -0.74775433116E-01  0.12925579365E+00  0.21172005041E-01 0.  0.
         14    1    1    2    0    0  0.12063420046E-01 -0.95842357678E-03 -0.19912652806E-01  0.23301468209E-01  0.00000000000E+00 0. -1.
     999901    1    3    3    0    0 -0.35215201257E-01 -0.99696611191E-01  0.94688085921E-01  0.89137273814E+00  0.88000000000E+00 0. -1.
        -11    1    4    4    0    0  0.20045150162E-01  0.94304278513E-01 -0.61944386575E-01  0.11459700319E+00  0.51100000000E-03 0.  1.
         11    1    4    4    0    0  0.31066310497E-02  0.63507562552E-02 -0.12831046540E-01  0.14658790462E-01  0.51100000000E-03 0. -1.
</event>
<event>
 8    1  0.1106168E+005  0.1043930E+01  0.7957747E-01            NaN
         13   -1    0    0    0    0  0.00000000000E+00  0.00000000000E+00  0.74505805969E-08  0.10566000000E+00  0.10566000000E+00 0. -1.
     999900   -1    0    0    0    0 -0.00000000000E+00 -0.00000000000E+00 -0.74505805969E-08  0.93827000000E+00  0.93827000000E+00 0.  1.
     999902    2    1    2    0    0 -0.17604171777E-01  0.97288386613E-02 -0.76003901847E-02  0.10224283001E+01  0.10222021844E+01 0.  0.
     999903    2    3    3    0    0  0.88224679088E-02 -0.70267250938E-01  0.10844181424E+00  0.13082102402E+00  0.18417132124E-01 0.  0.
         14    1    1    2    0    0  0.17604171777E-01 -0.97288386613E-02  0.76003901847E-02  0.21501699854E-01  0.00000000000E+00 0.  1.
     999901    1    3    3    0    0 -0.26426639686E-01  0.79996089599E-01 -0.11604220442E+00  0.89160727613E+00  0.88000000000E+00 0.  1.
        -11    1    4    4    0    0  0.10536806994E-01 -0.30719249819E-01  0.60309297579E-01  0.68499409535E-01  0.51100000000E-03 0.  1.
         11    1    4    4    0    0 -0.17143390854E-02 -0.39548001119E-01  0.48132516659E-01  0.62321614484E-01  0.51100000000E-03 0. -1.
</event>
<event>
 8    1  0.1106168E+005  0.1043930E+01  0.7957747E-01            NaN
         13   -1    0    0    0    0  0.00000000000E+00  0.00000000000E+00  0.74505805969E-08  0.10566000000E+00  0.10566000000E+00 0. -1.
     999900   -1    0    0    0    0 -0.00000000000E+00 -0.00000000000E+00 -0.74505805969E-08  0.93827000000E+00  0.93827000000E+00 0. -1.
     999902    2    1    2    0    0 -0.58594438306E-02 -0.20401784558E-01  0.53435792507E-02  0.10220411961E+01  0.10218067757E+01 0.  0.
     999903    2    3    3    0    0  0.51474930734E-01  0.24355510333E-01  0.11730251018E+00  0.13197083478E+00  0.20336247446E-01 0.  0.
         14    1    1    2    0    0  0.58594438306E-02  0.20401784558E-01 -0.53435792507E-02  0.21888803859E-01  0.00000000000E+00 0.  1.
     999901    1    3    3    0    0 -0.57334374564E-01 -0.44757294891E-01 -0.11195893093E+00  0.89007036136E+00  0.88000000000E+00 0. -1.
        -11    1    4    4    0    0  0.26301512712E-01  0.21913526168E-01  0.55765662034E-01  0.65437316443E-01  0.51100000000E-03 0. -1.
         11    1    4    4    0    0  0.25173418022E-01  0.24419841652E-02  0.61536848150E-01  0.66533518340E-01  0.51100000000E-03 0.  1.
</event>
<event>
 8    1  0.1106168E+005  0.1043930E+01  0.7957747E-01            NaN
         13   -1    0    0    0    0  0.00000000000E+00  0.00000000000E+00  0.74505805969E-08  0.10566000000E+00  0.10566000000E+00 0.  1.
     999900   -1    0    0    0    0 -0.00000000000E+00 -0.00000000000E+00 -0.74505805969E-08  0.93827000000E+00  0.93827000000E+00 0.  1.
     999902    2    1    2    0    0  0.34417537790E-02  0.12326961880E-01  0.19664359019E-01  0.10204675476E+01  0.10201977891E+01 0.  0.
     999903    2    3    3    0    0 -0.52608265181E-01 -0.97872542428E-01  0.63434228393E-01  0.13074773952E+00  0.26914790196E-01 0.  0.
         14    1    1    2    0    0 -0.34417537790E-02 -0.12326961880E-01 -0.19664359019E-01  0.23462452427E-01  0.00000000000E+00 0. -1.
     999901    1    3    3    0    0  0.56050018960E-01  0.11019950431E+00 -0.43769869374E-01  0.88971980805E+00  0.88000000000E+00 0. -1.
        -11    1    4    4    0    0 -0.44454884758E-02 -0.10530107004E-01 -0.17779595181E-02  0.11578764285E-01  0.51100000000E-03 0. -1.
         11    1    4    4    0    0 -0.48162776705E-01 -0.87342435424E-01  0.65212187911E-01  0.11916897524E+00  0.51100000000E-03 0.  1.
</event>
<event>
 8    1  0.1106168E+005  0.1043930E+01  0.7957747E-01            NaN
         13   -1    0    0    0    0  0.00000000000E+00  0.00000000000E+00  0.74505805969E-08  0.10566000000E+00  0.10566000000E+00 0. -1.
     999900   -1    0    0    0    0 -0.00000000000E+00 -0.00000000000E+00 -0.74505805969E-08  0.93827000000E+00  0.93827000000E+00 0.  1.
     999902    2    1    2    0    0  0.16152885795E-01 -0.17837006687E-01 -0.97164560722E-03  0.10198464242E+01  0.10195620189E+01 0.  0.
     999903    2    3    3    0    0  0.83113086255E-01 -0.49830301447E-01  0.87818449638E-01  0.13227055683E+00  0.19813532228E-01 0.  0.
         14    1    1    2    0    0 -0.16152885795E-01  0.17837006687E-01  0.97164560722E-03  0.24083575778E-01  0.00000000000E+00 0.  1.
     999901    1    3    3    0    0 -0.66960200460E-01  0.31993294760E-01 -0.88790095245E-01  0.88757586739E+00  0.88000000000E+00 0.  1.
        -11    1    4    4    0    0  0.54469284079E-01 -0.30009229398E-01  0.68164781894E-01  0.92272180904E-01  0.51100000000E-03 0.  1.
         11    1    4    4    0    0  0.28643802176E-01 -0.19821072049E-01  0.19653667744E-01  0.39998375930E-01  0.51100000000E-03 0. -1.
</event>
<event>
 8    1  0.1106168E+005  0.1043930E+01  0.7957747E-01            NaN
         13   -1    0    0    0    0  0.00000000000E+00  0.00000000000E+00  0.74505805969E-08  0.10566000000E+00  0.10566000000E+00 0. -1.
     999900   -1    0    0    0    0 -0.00000000000E+00 -0.00000000000E+00 -0.74505805969E-08  0.93827000000E+00  0.93827000000E+00 0. -1.
     999902    2    1    2    0    0  0.29062157512E-02  0.23468597165E-01 -0.66807785156E-02  0.10193565602E+01  0.10190603235E+01 0.  0.
     999903    2    3    3    0    0 -0.49982593640E-01 -0.24768330170E-01  0.11376635733E+00  0.12827208616E+00  0.19980344867E-01 0.  0.
         14    1    1    2    0    0 -0.29062157512E-02 -0.23468597165E-01  0.66807785156E-02  0.24573439818E-01  0.00000000000E+00 0.  1.
     999901    1    3    3    0    0  0.52888809391E-01  0.48236927335E-01 -0.12044713584E+00  0.89108447403E+00  0.88000000000E+00 0.  1.
        -11    1    4    4    0    0 -0.19878093059E-01 -0.15159448611E-01  0.32001863005E-01  0.40611917249E-01  0.51100000000E-03 0. -1.
         11    1    4    4    0    0 -0.30104500581E-01 -0.96088815585E-02  0.81764494322E-01  0.87660168907E-01  0.51100000000E-03 0.  1.
</event>
<event>
 8    1  0.1106168E+005  0.1043930E+01  0.7957747E-01            NaN
         13   -1    0    0    0    0  0.00000000000E+00  0.00000000000E+00  0.74505805969E-08  0.10566000000E+00  0.10566000000E+00 0. -1.
     999900   -1    0    0    0    0 -0.00000000000E+00 -0.00000000000E+00 -0.74505805969E-08  0.93827000000E+00  0.93827000000E+00 0. -1.
     999902    2    1    2    0    0  0.56671093275E-02 -0.23181921373E-01  0.18277440032E-02  0.10199955425E+01  0.10197146898E+01 0.  0.
     999903    2    3    3    0    0 -0.48761692657E-02  0.12523804540E+00  0.10075491774E-01  0.12746673480E+00  0.20926249193E-01 0.  0.
         14    1    1    2    0    0 -0.56671093275E-02  0.23181921373E-01 -0.18277440032E-02  0.23934457479E-01  0.00000000000E+00 0.  1.
     999901    1    3    3    0    0  0.10543278593E-01 -0.14841996677E+00 -0.82477477704E-02  0.89252880772E+00  0.88000000000E+00 0.  1.
        -11    1    4    4    0    0 -0.50729199619E-02  0.10143195911E+00 -0.12862493551E-03  0.10156010295E+00  0.51100000000E-03 0.  1.
         11    1    4    4    0    0  0.19675069621E-03  0.23806086285E-01  0.10204116709E-01  0.25906631851E-01  0.51100000000E-03 0. -1.
</event>
<event>
 8    1  0.1106168E+005  0.1043930E+01  0.7957747E-01            NaN
         13   -1    0    0    0    0  0.00000000000E+00  0.00000000000E+00  0.74505805969E-08  0.10566000000E+00  0.10566000000E+00 0. -1.
     999900   -1    0    0    0    0 -0.00000000000E+00 -0.00000000000E+00 -0.74505805969E-08  0.93827000000E+00  0.93827000000E+00 0. -1.
     999902    2    1    2    0    0 -0.11831626841E-01 -0.85919055866E-02  0.19664075132E-01  0.10194252232E+01  0.10191306597E+01 0.  0.
     999903    2    3    3    0    0 -0.46900976851E-01  0.26309773428E-01  0.11930162919E+00  0.13242148663E+00  0.20264885584E-01 0.  0.
         14    1    1    2    0    0  0.11831626841E-01  0.85919055866E-02 -0.19664075132E-01  0.24504776801E-01  0.00000000000E+00 0.  1.
     999901    1    3    3    0    0  0.35069350011E-01 -0.34901679015E-01 -0.99637554053E-01  0.88700373657E+00  0.88000000000E+00 0. -1.
        -11    1    4    4    0    0 -0.25470762732E-01  0.21183218912E-01  0.88879494198E-01  0.94854172958E-01  0.51100000000E-03 0.  1.
         11    1    4    4    0    0 -0.21430214119E-01  0.51265545160E-02  0.30422134987E-01  0.37567313673E-01  0.51100000000E-03 0. -1.
</event>
<event>
 8    1  0.1106168E+005  0.1043930E+01  0.7957747E-01            NaN
         13   -1    0    0    0    0  0.00000000000E+00  0.00000000000E+00  0.74505805969E-08  0.10566000000E+00  0.10566000000E+00 0. -1.
     999900   -1    0    0    0    0 -0.00000000000E+00 -0.00000000000E+00 -0.74505805969E-08  0.93827000000E+00  0.93827000000E+00 0.  1.
     999902    2    1    2    0    0 -0.16891386636E-01 -0.76536227601E-02  0.14252958135E-01  0.10205410347E+01  0.10202729829E+01 0.  0.
     999903    2    3    3    0    0  0.28311277693E-01  0.11631761942E+00 -0.43274493483E-01  0.12884514624E+00  0.19926687901E-01 0.  0.
         14    1    1    2    0    0  0.16891386636E-01  0.76536227601E-02 -0.14252958135E-01  0.23388965335E-01  0.00000000000E+00 0. -1.
     999901    1    3    3    0    0 -0.45202664328E-01 -0.12397124218E+00  0.57527451618E-01  0.89169588843E+00  0.88000000000E+00 0. -1.
        -11    1    4    4    0    0  0.25279334811E-01  0.62310255439E-01 -0.22793347013E-01  0.71002890719E-01  0.51100000000E-03 0.  1.
         11    1    4    4    0    0  0.30319428819E-02  0.54007363980E-01 -0.20481146469E-01  0.57842255518E-01  0.51100000000E-03 0. -1.
</event>
<event>
 8    1  0.1106168E+005  0.1043930E+01  0.7957747E-01            NaN
         13   -1    0    0    0    0  0.00000000000E+00  0.00000000000E+00  0.74505805969E-08  0.10566000000E+00  0.10566000000E+00 0. -1.
     999900   -1    0    0    0    0 -0.00000000000E+00 -0.00000000000E+00 -0.74505805969E-08  0.93827000000E+00  0.93827000000E+00 0. -1.
     999902    2    1    2    0    0  0.26868674155E-02  0.21855514372E-01  0.73286503061E-02  0.10207224176E+01  0.10204585547E+01 0.  0.
     999903    2    3    3    0    0 -0.12382330844E+00  0.37730698393E-01 -0.65505891188E-02  0.13142523480E+00  0.21768436120E-01 0.  0.
         14    1    1    2    0    0 -0.26868674155E-02 -0.21855514372E-01 -0.73286503061E-02  0.23207582387E-01  0.00000000000E+00 0.  1.
     999901    1    3    3    0    0  0.12651017586E+00 -0.15875184021E-01  0.13879239425E-01  0.88929718281E+00  0.88000000000E+00 0.  1.
        -11    1    4    4    0    0 -0.41117878836E-01  0.20613303378E-02 -0.30756793107E-02  0.41287406880E-01  0.51100000000E-03 0. -1.
         11    1    4    4    0    0 -0.82705429606E-01  0.35669368055E-01 -0.34749098080E-02  0.90137827924E-01  0.51100000000E-03 0.  1.
</event>
<event>
 8    1  0.1106168E+005  0.1043930E+01  0.7957747E-01            NaN
         13   -1    0    0    0    0  0.00000000000E+00  0.00000000000E+00  0.74505805969E-08  0.10566000000E+00  0.10566000000E+00 0. -1.
     999900   -1    0    0    0    0 -0.00000000000E+00 -0.00000000000E+00 -0.74505805969E-08  0.93827000000E+00  0.93827000000E+00 0. -1.
     999902    2    1    2    0    0 -0.12092822101E-01 -0.17776170236E-01 -0.74479761978E-02  0.10211769579E+01  0.10209234440E+01 0.  0.
     999903    2    3    3    0    0  0.12610123116E+00 -0.24986523498E-01  0.69489687558E-02  0.13024662530E+00  0.19749642493E-01 0.  0.
         14    1    1    2    0    0  0.12092822101E-01  0.17776170236E-01  0.74479761978E-02  0.22753042084E-01  0.00000000000E+00 0.  1.
     999901    1    3    3    0    0 -0.13819405326E+00  0.72103532614E-02 -0.14396944954E-01  0.89093033262E+00  0.88000000000E+00 0.  1.
        -11    1    4    4    0    0  0.80097902378E-01 -0.78727692643E-02  0.97878906867E-02  0.81078470548E-01  0.51100000000E-03 0.  1.
         11    1    4    4    0    0  0.46003328782E-01 -0.17113754233E-01 -0.28389219309E-02  0.49168154752E-01  0.51100000000E-03 0. -1.
</event>
<event>
 8    1  0.1106168E+005  0.1043930E+01  0.7957747E-01            NaN
         13   -1    0    0    0    0  0.00000000000E+00  0.00000000000E+00  0.74505805969E-08  0.10566000000E+00  0.10566000000E+00 0. -1.
     999900   -1    0    0    0    0 -0.00000000000E+00 -0.00000000000E+00 -0.74505805969E-08  0.93827000000E+00  0.93827000000E+00 0. -1.
     999902    2    1    2    0    0  0.69689940365E-02 -0.22817037361E-01 -0.16639105603E-02  0.10200144680E+01  0.10197340645E+01 0.  0.
     999903    2    3    3    0    0  0.49870324290E-01 -0.64577133177E-01 -0.10182018493E+00  0.13231197898E+00  0.21951181012E-01 0.  0.
         14    1    1    2    0    0 -0.69689940365E-02  0.22817037361E-01  0.16639105603E-02  0.23915531986E-01  0.00000000000E+00 0.  1.
     999901    1    3    3    0    0 -0.42901330253E-01  0.41760095816E-01  0.10015627437E+00  0.88770248903E+00  0.88000000000E+00 0.  1.
        -11    1    4    4    0    0  0.30636133202E-01 -0.52833964356E-01 -0.82343273565E-01  0.10252158928E+00  0.51100000000E-03 0.  1.
         11    1    4    4    0    0  0.19234191088E-01 -0.11743168821E-01 -0.19476911368E-01  0.29790389696E-01  0.51100000000E-03 0. -1.
</event>
<event>
 8    1  0.1106168E+005  0.1043930E+01  0.7957747E-01            NaN
         13   -1    0    0    0    0  0.00000000000E+00  0.00000000000E+00  0.74505805969E-08  0.10566000000E+00  0.10566000000E+00 0.  1.
     999900   -1    0    0    0    0 -0.00000000000E+00 -0.00000000000E+00 -0.74505805969E-08  0.93827000000E+00  0.93827000000E+00 0.  1.
     999902    2    1    2    0    0  0.72533993629E-02 -0.10791192873E-01 -0.17216610832E-01  0.10223551690E+01  0.10221274960E+01 0.  0.
     999903    2    3    3    0    0 -0.93698068093E-01 -0.89210417821E-01  0.19234331129E-01  0.13237233497E+00  0.20362931015E-01 0.  0.
         14    1    1    2    0    0 -0.72533993629E-02  0.10791192873E-01  0.17216610832E-01  0.21574831041E-01  0.00000000000E+00 0.  1.
     999901    1    3    3    0    0  0.10095146746E+00  0.78419224948E-01 -0.36450941961E-01  0.88998283399E+00  0.88000000000E+00 0. -1.
        -11    1    4    4    0    0 -0.76614239958E-01 -0.62682947210E-01  0.10012292402E-01  0.99495732348E-01  0.51100000000E-03 0. -1.
         11    1    4    4    0    0 -0.17083828135E-01 -0.26527470611E-01  0.92220387266E-02  0.32876602623E-01  0.51100000000E-03 0.  1.
</event>
<event>
 8    1  0.1106168E+005  0.1043930E+01  0.7957747E-01            NaN
         13   -1    0    0    0    0  0.00000000000E+00  0.00000000000E+00  0.74505805969E-08  0.10566000000E+00  0.10566000000E+00 0. -1.
     999900   -1    0    0    0    0 -0.00000000000E+00 -0.00000000000E+00 -0.74505805969E-08  0.93827000000E+00  0.93827000000E+00 0.  1.
     999902    2    1    2    0    0  0.17442840587E-02  0.89506833375E-02  0.21293384034E-01  0.10207661173E+01  0.10205032586E+01 0.  0.
     999903    2    3    3    0    0 -0.35920722985E-01 -0.11016339882E+00  0.58222040198E-01  0.13117601899E+00  0.19775470037E-01 0.  0.
         14    1    1    2    0    0 -0.17442840587E-02 -0.89506833375E-02 -0.21293384034E-01  0.23163882721E-01  0.00000000000E+00 0.  1.
     999901    1    3    3    0    0  0.37665007044E-01  0.11911408215E+00 -0.36928656164E-01  0.88959009829E+00  0.88000000000E+00 0. -1.
        -11    1    4    4    0    0 -0.28784701581E-01 -0.82118633255E-01  0.33965948371E-01  0.93412931346E-01  0.51100000000E-03 0. -1.
         11    1    4    4    0    0 -0.71360214038E-02 -0.28044765562E-01  0.24256091828E-01  0.37763087647E-01  0.51100000000E-03 0.  1.
</event>
<event>
 8    1  0.1106168E+005  0.1043930E+01  0.7957747E-01            NaN
         13   -1    0    0    0    0  0.00000000000E+00  0.00000000000E+00  0.74505805969E-08  0.10566000000E+00  0.10566000000E+00 0. -1.
     999900   -1    0    0    0    0 -0.00000000000E+00 -0.00000000000E+00 -0.74505805969E-08  0.93827000000E+00  0.93827000000E+00 0.  1.
     999902    2    1    2    0    0 -0.10369752573E-01  0.99422085578E-02 -0.10085057601E-01  0.10263775738E+01  0.10262274778E+01 0.  0.
     999903    2    3    3    0    0 -0.53438020170E-01  0.94307967737E-01 -0.83539415706E-01  0.13825145677E+00  0.19621838428E-01 0.  0.
         14    1    1    2    0    0  0.10369752573E-01 -0.99422085578E-02  0.10085057601E-01  0.17552426221E-01  0.00000000000E+00 0.  1.
     999901    1    3    3    0    0  0.43068267597E-01 -0.84365759179E-01  0.73454358105E-01  0.88812611701E+00  0.88000000000E+00 0. -1.
        -11    1    4    4    0    0 -0.95023057575E-02  0.14162554854E-01 -0.22930780891E-01  0.28582400319E-01  0.51100000000E-03 0.  1.
         11    1    4    4    0    0 -0.43935714412E-01  0.80145412882E-01 -0.60608634815E-01  0.10966905645E+00  0.51100000000E-03 0. -1.
</event>
<event>
 8    1  0.1106168E+005  0.1043930E+01  0.7957747E-01            NaN
         13   -1    0    0    0    0  0.00000000000E+00  0.00000000000E+00  0.74505805969E-08  0.10566000000E+00  0.10566000000E+00 0.  1.
     999900   -1    0    0    0    0 -0.00000000000E+00 -0.00000000000E+00 -0.74505805969E-08  0.93827000000E+00  0.93827000000E+00 0.  1.
     999902    2    1    2    0    0  0.12675811625E-01 -0.15006043725E-01  0.12349241952E-01  0.10207273854E+01  0.10204636368E+01 0.  0.
     999903    2    3    3    0    0 -0.64164761170E-01 -0.40819563103E-01 -0.10294188993E+00  0.12951312578E+00  0.19830878437E-01 0.  0.
         14    1    1    2    0    0 -0.12675811625E-01  0.15006043725E-01 -0.12349241952E-01  0.23202614625E-01  0.00000000000E+00 0. -1.
     999901    1    3    3    0    0  0.76840572794E-01  0.25813519378E-01  0.11529113188E+00  0.89121425959E+00  0.88000000000E+00 0. -1.
        -11    1    4    4    0    0 -0.30044961972E-02 -0.56583882326E-02 -0.27865892411E-02  0.70050378577E-02  0.51100000000E-03 0.  1.
         11    1    4    4    0    0 -0.61160264972E-01 -0.35161174871E-01 -0.10015530069E+00  0.12250808792E+00  0.51100000000E-03 0. -1.
</event>
<event>
 8    1  0.1106168E+005  0.1043930E+01  0.7957747E-01            NaN
         13   -1    0    0    0    0  0.00000000000E+00  0.00000000000E+00  0.74505805969E-08  0.10566000000E+00  0.10566000000E+00 0. -1.
     999900   -1    0    0    0    0 -0.00000000000E+00 -0.00000000000E+00 -0.74505805969E-08  0.93827000000E+00  0.93827000000E+00 0.  1.
     999902    2    1    2    0    0 -0.16365959925E-01 -0.40283171065E-02 -0.16853868995E-01  0.10200946296E+01  0.10198161248E+01 0.  0.
     999903    2    3    3    0    0 -0.96678435073E-01 -0.85815161848E-02  0.85004461085E-01  0.13057456534E+00  0.20089710794E-01 0.  0.
         14    1    1    2    0    0  0.16365959925E-01  0.40283171065E-02  0.16853868995E-01  0.23835370421E-01  0.00000000000E+00 0. -1.
     999901    1    3    3    0    0  0.80312475148E-01  0.45531990783E-02 -0.10185833008E+00  0.88952006424E+00  0.88000000000E+00 0.  1.
        -11    1    4    4    0    0 -0.30854430622E-01  0.59623053245E-02  0.22602500770E-01  0.38712777423E-01  0.51100000000E-03 0.  1.
         11    1    4    4    0    0 -0.65824004452E-01 -0.14543821509E-01  0.62401960316E-01  0.91861787912E-01  0.51100000000E-03 0. -1.
</event>
<event>
 8    1  0.1106168E+005  0.1043930E+01  0.7957747E-01            NaN
         13   -1    0    0    0    0  0.00000000000E+00  0.00000000000E+00  0.74505805969E-08  0.10566000000E+00  0.10566000000E+00 0.  1.
     999900   -1    0    0    0    0 -0.00000000000E+00 -0.00000000000E+00 -0.74505805969E-08  0.93827000000E+00  0.93827000000E+00 0.  1.
     999902    2    1    2    0    0  0.18749950259E-01  0.13140370955E-01  0.86143811502E-02  0.10194670168E+01  0.10191734695E+01 0.  0.
     999903    2    3    3    0    0  0.11707338579E-01  0.79957039090E-01 -0.10005547961E+00  0.13024083403E+00  0.20527687926E-01 0.  0.
         14    1    1    2    0    0 -0.18749950259E-01 -0.13140370955E-01 -0.86143811502E-02  0.24462983182E-01  0.00000000000E+00 0.  1.
     999901    1    3    3    0    0  0.70426116803E-02 -0.66816668134E-01  0.10866986076E+00  0.88922618279E+00  0.88000000000E+00 0. -1.
        -11    1    4    4    0    0  0.60070042023E-02  0.67975323697E-01 -0.72000222937E-01  0.99201925159E-01  0.51100000000E-03 0. -1.
         11    1    4    4    0    0  0.57003343767E-02  0.11981715392E-01 -0.28055256675E-01  0.31038908870E-01  0.51100000000E-03 0.  1.
</event>
<event>
 8    1  0.1106168E+005  0.1043930E+01  0.7957747E-01            NaN
         13   -1    0    0    0    0  0.00000000000E+00  0.00000000000E+00  0.74505805969E-08  0.10566000000E+00  0.10566000000E+00 0.  1.
     999900   -1    0    0    0    0 -0.00000000000E+00 -0.00000000000E+00 -0.74505805969E-08  0.93827000000E+00  0.93827000000E+00 0.  1.
     999902    2    1    2    0    0 -0.15979687716E-01  0.19428240064E-02  0.19413081590E-01  0.10187111039E+01  0.10183989005E+01 0.  0.
     999903    2    3    3    0    0  0.10867477159E+00  0.34079163195E-01  0.56189699613E-01  0.12858527112E+00  0.20131921479E-01 0.  0.
         14    1    1    2    0    0  0.15979687716E-01 -0.19428240064E-02 -0.19413081590E-01  0.25218896119E-01  0.00000000000E+00 0. -1.
     999901    1    3    3    0    0 -0.12465445930E+00 -0.32136339188E-01 -0.36776618023E-01  0.89012583276E+00  0.88000000000E+00 0. -1.
        -11    1    4    4    0    0  0.70540877189E-01  0.13019085038E-01  0.30009285683E-01  0.77758152486E-01  0.51100000000E-03 0. -1.
         11    1    4    4    0    0  0.38133894398E-01  0.21060078157E-01  0.26180413930E-01  0.50827118632E-01  0.51100000000E-03 0.  1.
</event>
<event>
 8    1  0.1106168E+005  0.1043930E+01  0.7957747E-01            NaN
         13   -1    0    0    0    0  0.00000000000E+00  0.00000000000E+00  0.74505805969E-08  0.10566000000E+00  0.10566000000E+00 0.  1.
     999900   -1    0    0    0    0 -0.00000000000E+00 -0.00000000000E+00 -0.74505805969E-08  0.93827000000E+00  0.93827000000E+00 0.  1.
     999902    2    1    2    0    0  0.19681033219E-01 -0.10968696045E-01  0.35656486695E-02  0.10211183974E+01  0.10208635621E+01 0.  0.
     999903    2    3    3    0    0 -0.83347876029E-01 -0.78848967374E-01 -0.58316227321E-01  0.13035914042E+00  0.20704951735E-01 0.  0.
         14    1    1    2    0    0 -0.19681033219E-01  0.10968696045E-01 -0.35656486695E-02  0.22811602573E-01  0.00000000000E+00 0. -1.
     999901    1    3    3    0    0  0.10302890925E+00  0.67880271329E-01  0.61881875990E-01  0.89075925701E+00  0.88000000000E+00 0. -1.
        -11    1    4    4    0    0 -0.75547279740E-03 -0.67683797604E-02 -0.49560623759E-02  0.84383279743E-02  0.51100000000E-03 0. -1.
         11    1    4    4    0    0 -0.82592403232E-01 -0.72080587614E-01 -0.53360164945E-01  0.12192081244E+00  0.51100000000E-03 0.  1.
</event>
<event>
 8    1  0.1106168E+005  0.1043930E+01  0.7957747E-01            NaN
         13   -1    0    0    0    0  0.00000000000E+00  0.00000000000E+00  0.74505805969E-08  0.10566000000E+00  0.10566000000E+00 0. -1.
     999900   -1    0    0    0    0 -0.00000000000E+00 -0.00000000000E+00 -0.74505805969E-08  0.93827000000E+00  0.93827000000E+00 0. -1.
     999902    2    1    2    0    0 -0.15739880626E-01  0.15371171514E-01 -0.82900726261E-02  0.10204195330E+01  0.10201486564E+01 0.  0.
     999903    2    3    3    0    0  0.62474918546E-01  0.83182551749E-01  0.76046125848E-01  0.13034732664E+00  0.19620396127E-01 0.  0.
         14    1    1    2    0    0  0.15739880626E-01 -0.15371171514E-01  0.82900726261E-02  0.23510467030E-01  0.00000000000E+00 0. -1.
     999901    1    3    3    0    0 -0.78214799172E-01 -0.67811380235E-01 -0.84336198474E-01  0.89007220632E+00  0.88000000000E+00 0. -1.
        -11    1    4    4    0    0  0.27614874536E-01  0.21460161640E-01  0.25133578606E-01  0.43070613274E-01  0.51100000000E-03 0. -1.
         11    1    4    4    0    0  0.34860044010E-01  0.61722390109E-01  0.50912547242E-01  0.87276713371E-01  0.51100000000E-03 0.  1.
</event>
<event>
 8    1  0.1106168E+005  0.1043930E+01  0.7957747E-01            NaN
         13   -1    0    0    0    0  0.00000000000E+00  0.00000000000E+00  0.74505805969E-08  0.10566000000E+00  0.10566000000E+00 0.  1.
     999900   -1    0    0    0    0 -0.00000000000E+00 -0.00000000000E+00 -0.74505805969E-08  0.93827000000E+00  0.93827000000E+00 0. -1.
     999902    2    1    2    0    0 -0.13872688091E-01  0.19173121767E-01  0.18054444453E-02  0.10201956430E+01  0.10199195215E+01 0.  0.
     999903    2    3    3    0    0  0.52122400705E-01  0.67530483228E-02  0.11731062166E+00  0.13011078415E+00  0.20116805943E-01 0.  0.
         14    1    1    2    0    0  0.13872688091E-01 -0.19173121767E-01 -0.18054444453E-02  0.23734357013E-01  0.00000000000E+00 0. -1.
     999901    1    3    3    0    0 -0.65995088796E-01  0.12420073445E-01 -0.11550517721E+00  0.89008485884E+00  0.88000000000E+00 0. -1.
        -11    1    4    4    0    0  0.25581387745E-01  0.41680243134E-02  0.34786676359E-01  0.43383796500E-01  0.51100000000E-03 0.  1.
         11    1    4    4    0    0  0.26541012960E-01  0.25850240094E-02  0.82523945299E-01  0.86726987649E-01  0.51100000000E-03 0. -1.
</event>
<event>
 8    1  0.1106168E+005  0.1043930E+01  0.7957747E-01            NaN
         13   -1    0    0    0    0  0.00000000000E+00  0.00000000000E+00  0.74505805969E-08  0.10566000000E+00  0.10566000000E+00 0.  1.
     999900   -1    0    0    0    0 -0.00000000000E+00 -0.00000000000E+00 -0.74505805969E-08  0.93827000000E+00  0.93827000000E+00 0. -1.
     999902    2    1    2    0    0 -0.10404919210E-01  0.88119811542E-02 -0.19914336378E-01  0.10197950844E+01  0.10195094507E+01 0.  0.
     999903    2    3    3    0    0  0.44307382252E-01  0.23233555962E-01  0.11564194289E+00  0.12761969664E+00  0.20267850686E-01 0.  0.
         14    1    1    2    0    0  0.10404919210E-01 -0.88119811542E-02  0.19914336378E-01  0.24134915558E-01  0.00000000000E+00 0.  1.
     999901    1    3    3    0    0 -0.54712301462E-01 -0.14421574808E-01 -0.13555627926E+00  0.89217538780E+00  0.88000000000E+00 0. -1.
        -11    1    4    4    0    0  0.16575530390E-01  0.18651876187E-01  0.42860787180E-01  0.49597871846E-01  0.51100000000E-03 0.  1.
         11    1    4    4    0    0  0.27731851863E-01  0.45816797750E-02  0.72781155706E-01  0.78021824794E-01  0.51100000000E-03 0. -1.
</event>
<event>
 8    1  0.1106168E+005  0.1043930E+01  0.7957747E-01            NaN
         13   -1    0    0    0    0  0.00000000000E+00  0.00000000000E+00  0.74505805969E-08  0.10566000000E+00  0.10566000000E+00 0. -1.
     999900   -1    0    0    0    0 -0.00000000000E+00 -0.00000000000E+00 -0.74505805969E-08  0.93827000000E+00  0.93827000000E+00 0. -1.
     999902    2    1    2    0    0 -0.15357942531E-01 -0.24435769519E-02  0.19461964347E-01  0.10190180446E+01  0.10187134875E+01 0.  0.
     999903    2    3    3    0    0 -0.33102762107E-01  0.92909216148E-01  0.84337855610E-01  0.13131543950E+00  0.20073750491E-01 0.  0.
         14    1    1    2    0    0  0.15357942531E-01  0.24435769519E-02 -0.19461964347E-01  0.24911955430E-01  0.00000000000E+00 0.  1.
     999901    1    3    3    0    0  0.17744819576E-01 -0.95352793100E-01 -0.64875891263E-01  0.88770260507E+00  0.88000000000E+00 0. -1.
        -11    1    4    4    0    0  0.51989622023E-04  0.15131064420E-01  0.19920997720E-01  0.25021172726E-01  0.51100000000E-03 0. -1.
         11    1    4    4    0    0 -0.33154751729E-01  0.77778151728E-01  0.64416857890E-01  0.10629426678E+00  0.51100000000E-03 0.  1.
</event>
<event>
 8    1  0.1106168E+005  0.1043930E+01  0.7957747E-01            NaN
         13   -1    0    0    0    0  0.00000000000E+00  0.00000000000E+00  0.74505805969E-08  0.10566000000E+00  0.10566000000E+00 0. -1.
     999900   -1    0    0    0    0 -0.00000000000E+00 -0.00000000000E+00 -0.74505805969E-08  0.93827000000E+00  0.93827000000E+00 0. -1.
     999902    2    1    2    0    0 -0.58441912850E-02 -0.12322364184E-01  0.19304013096E-01  0.10202944304E+01  0.10200206294E+01 0.  0.
     999903    2    3    3    0    0  0.63323129378E-01 -0.11214902063E+00  0.20798206625E-01  0.13195231596E+00  0.19789561594E-01 0.  0.
         14    1    1    2    0    0  0.58441912850E-02  0.12322364184E-01 -0.19304013096E-01  0.23635569646E-01  0.00000000000E+00 0.  1.
     999901    1    3    3    0    0 -0.69167320663E-01  0.99826656442E-01 -0.14941935284E-02  0.88834211439E+00  0.88000000000E+00 0.  1.
        -11    1    4    4    0    0  0.49687247146E-01 -0.73059867637E-01  0.19749742434E-01  0.90536623724E-01  0.51100000000E-03 0.  1.
         11    1    4    4    0    0  0.13635882232E-01 -0.39089152989E-01  0.10484641904E-02  0.41415692240E-01  0.51100000000E-03 0. -1.
</event>
<event>
 8    1  0.1106168E+005  0.1043930E+01  0.7957747E-01            NaN
         13   -1    0    0    0    0  0.00000000000E+00  0.00000000000E+00  0.74505805969E-08  0.10566000000E+00  0.10566000000E+00 0. -1.
     999900   -1    0    0    0    0 -0.00000000000E+00 -0.00000000000E+00 -0.74505805969E-08  0.93827000000E+00  0.93827000000E+00 0.  1.
     999902    2    1    2    0    0 -0.21639715289E-01  0.97441928902E-02 -0.34630535218E-02  0.10199462698E+01  0.10196642457E+01 0.  0.
     999903    2    3    3    0    0  0.49621691025E-02  0.10918696488E+00 -0.70075376879E-01  0.13144543879E+00  0.20516542375E-01 0.  0.
         14    1    1    2    0    0  0.21639715289E-01 -0.97441928902E-02  0.34630535218E-02  0.23983730164E-01  0.00000000000E+00 0.  1.
     999901    1    3    3    0    0 -0.26601884392E-01 -0.99442771990E-01  0.66612323357E-01  0.88850083105E+00  0.88000000000E+00 0.  1.
        -11    1    4    4    0    0  0.20795729448E-02  0.36431039842E-01 -0.12356731208E-01  0.38529147599E-01  0.51100000000E-03 0.  1.
         11    1    4    4    0    0  0.28825961577E-02  0.72755925038E-01 -0.57718645671E-01  0.92916291187E-01  0.51100000000E-03 0. -1.
</event>
<event>
 8    1  0.1106168E+005  0.1043930E+01  0.7957747E-01            NaN
         13   -1    0    0    0    0  0.00000000000E+00  0.00000000000E+00  0.74505805969E-08  0.10566000000E+00  0.10566000000E+00 0.  1.
     999900   -1    0    0    0    0 -0.00000000000E+00 -0.00000000000E+00 -0.74505805969E-08  0.93827000000E+00  0.93827000000E+00 0.  1.
     999902    2    1    2    0    0  0.16718912566E-01 -0.14172684471E-01 -0.69062524500E-02  0.10209499359E+01  0.10206912796E+01 0.  0.
     999903    2    3    3    0    0 -0.19328452342E-01 -0.56033524507E-01  0.11495359029E+00  0.13083670507E+00  0.19762857432E-01 0.  0.
         14    1    1    2    0    0 -0.16718912566E-01  0.14172684471E-01  0.69062524500E-02  0.22980064086E-01  0.00000000000E+00 0. -1.
     999901    1    3    3    0    0  0.36047364908E-01  0.41860840036E-01 -0.12185984274E+00  0.89011323084E+00  0.88000000000E+00 0. -1.
        -11    1    4    4    0    0 -0.21286692333E-01 -0.32658614881E-01  0.69717038976E-01  0.79877625409E-01  0.51100000000E-03 0. -1.
         11    1    4    4    0    0  0.19582399912E-02 -0.23374909626E-01  0.45236551319E-01  0.50959079663E-01  0.51100000000E-03 0.  1.
</event>
<event>
 8    1  0.1106168E+005  0.1043930E+01  0.7957747E-01            NaN
         13   -1    0    0    0    0  0.00000000000E+00  0.00000000000E+00  0.74505805969E-08  0.10566000000E+00  0.10566000000E+00 0.  1.
     999900   -1    0    0    0    0 -0.00000000000E+00 -0.00000000000E+00 -0.74505805969E-08  0.93827000000E+00  0.93827000000E+00 0.  1.
     999902    2    1    2    0    0  0.21284831787E-01  0.73997848660E-02  0.71660861940E-02  0.10202835696E+01  0.10200095140E+01 0.  0.
     999903    2    3    3    0    0 -0.21641778144E-01  0.12379138363E+00 -0.29993345289E-01  0.13080590182E+00  0.20442846323E-01 0.  0.
         14    1    1    2    0    0 -0.21284831787E-01 -0.73997848660E-02 -0.71660861940E-02  0.23646430420E-01  0.00000000000E+00 0. -1.
     999901    1    3    3    0    0  0.42926609932E-01 -0.11639159876E+00  0.37159431483E-01  0.88947766776E+00  0.88000000000E+00 0.  1.
        -11    1    4    4    0    0 -0.34234988604E-02  0.73129771899E-01 -0.13074138727E-01  0.74369873651E-01  0.51100000000E-03 0.  1.
         11    1    4    4    0    0 -0.18218279284E-01  0.50661611732E-01 -0.16919206561E-01  0.56436028165E-01  0.51100000000E-03 0. -1.
</event>
<event>
 8    1  0.1106168E+005  0.1043930E+01  0.7957747E-01            NaN
         13   -1    0    0    0    0  0.00000000000E+00  0.00000000000E+00  0.74505805969E-08  0.10566000000E+00  0.10566000000E+00 0. -1.
     999900   -1    0    0    0    0 -0.00000000000E+00 -0.00000000000E+00 -0.74505805969E-08  0.93827000000E+00  0.93827000000E+00 0.  1.
     999902    2    1    2    0    0  0.90459116341E-02  0.10141081096E-01  0.19362952876E-01  0.10202742610E+01  0.10199999871E+01 0.  0.
     999903    2    3    3    0    0 -0.94965289897E-01 -0.31072212725E-01  0.82346368455E-01  0.13095779525E+00  0.19624756061E-01 0.  0.
         14    1    1    2    0    0 -0.90459116341E-02 -0.10141081096E-01 -0.19362952876E-01  0.23655738990E-01  0.00000000000E+00 0. -1.
     999901    1    3    3    0    0  0.10401120153E+00  0.41213293822E-01 -0.62983415579E-01  0.88931646576E+00  0.88000000000E+00 0.  1.
        -11    1    4    4    0    0 -0.72645300203E-01 -0.29836658832E-01  0.71054594651E-01  0.10590836791E+00  0.51100000000E-03 0. -1.
         11    1    4    4    0    0 -0.22319989694E-01 -0.12355538936E-02  0.11291773804E-01  0.25049427339E-01  0.51100000000E-03 0.  1.
</event>
<event>
 7    1  0.1106168E+005  0.1043930E+01  0.7957747E-01            NaN
         13   -1    0    0    0    0  0.00000000000E+00  0.00000000000E+00  0.74505805969E-08  0.10566000000E+00  0.10566000000E+00 0. -1.
     999900   -1    0    0    0    0 -0.00000000000E+00 -0.00000000000E+00 -0.74505805969E-08  0.93827000000E+00  0.93827000000E+00 0.  1.
     999903    2    1    2    0    0  0.35803021396E-01 -0.66533054758E-01  0.88603847506E-01  0.11810793379E+00  0.19756986474E-01 0.  0.
         14    1    1    2    0    0 -0.81835497502E-03  0.38073945088E-01  0.94233756407E-02  0.39231301379E-01  0.00000000000E+00 0.  1.
     999901    1    1    2    0    0 -0.34984666420E-01  0.28459109671E-01 -0.98027223147E-01  0.88659076483E+00  0.88000000000E+00 0.  1.
        -11    1    3    3    0    0  0.61991055928E-02 -0.12929620585E-02  0.56904826197E-02  0.85289726509E-02  0.51100000000E-03 0. -1.
         11    1    3    3    0    0  0.29603915803E-01 -0.65240092700E-01  0.82913364886E-01  0.10957896114E+00  0.51100000000E-03 0.  1.
</event>
<event>
 8    1  0.1106168E+005  0.1043930E+01  0.7957747E-01            NaN
         13   -1    0    0    0    0  0.00000000000E+00  0.00000000000E+00  0.74505805969E-08  0.10566000000E+00  0.10566000000E+00 0. -1.
     999900   -1    0    0    0    0 -0.00000000000E+00 -0.00000000000E+00 -0.74505805969E-08  0.93827000000E+00  0.93827000000E+00 0.  1.
     999902    2    1    2    0    0 -0.88466638716E-02  0.30451241782E-02 -0.18855152984E-01  0.10228811749E+01  0.10226645809E+01 0.  0.
     999903    2    3    3    0    0  0.67129791993E-01  0.68507839583E-01 -0.91646179612E-01  0.13419882306E+00  0.20262497798E-01 0.  0.
         14    1    1    2    0    0  0.88466638716E-02 -0.30451241782E-02  0.18855152984E-01  0.21048825074E-01  0.00000000000E+00 0. -1.
     999901    1    3    3    0    0 -0.75976455864E-01 -0.65462715405E-01  0.72791026627E-01  0.88868235186E+00  0.88000000000E+00 0. -1.
        -11    1    4    4    0    0  0.28210380962E-01  0.17210818565E-01 -0.38225208941E-01  0.50531827488E-01  0.51100000000E-03 0. -1.
         11    1    4    4    0    0  0.38919411030E-01  0.51297021018E-01 -0.53420970671E-01  0.83666995576E-01  0.51100000000E-03 0.  1.
</event>
<event>
 8    1  0.1106168E+005  0.1043930E+01  0.7957747E-01            NaN
         13   -1    0    0    0    0  0.00000000000E+00  0.00000000000E+00  0.74505805969E-08  0.10566000000E+00  0.10566000000E+00 0.  1.
     999900   -1    0    0    0    0 -0.00000000000E+00 -0.00000000000E+00 -0.74505805969E-08  0.93827000000E+00  0.93827000000E+00 0. -1.
     999902    2    1    2    0    0 -0.87891512862E-02  0.21448413608E-01 -0.11047642129E-01  0.10182524997E+01  0.10179286906E+01 0.  0.
     999903    2    3    3    0    0 -0.11778098754E+00  0.15267532850E-01  0.47879225400E-01  0.12955131289E+00  0.19638326365E-01 0.  0.
         14    1    1    2    0    0  0.87891512862E-02 -0.21448413608E-01  0.11047642129E-01  0.25677500331E-01  0.00000000000E+00 0.  1.
     999901    1    3    3    0    0  0.10899183625E+00  0.61808807583E-02 -0.58926867529E-01  0.88870118677E+00  0.88000000000E+00 0. -1.
        -11    1    4    4    0    0 -0.73550665286E-01  0.18511482480E-01  0.26767426130E-01  0.80430911783E-01  0.51100000000E-03 0.  1.
         11    1    4    4    0    0 -0.44230322255E-01 -0.32439496297E-02  0.21111799270E-01  0.49120401112E-01  0.51100000000E-03 0. -1.
</event>
<event>
 8    1  0.1171635E+005  0.1043930E+01  0.7957747E-01            NaN
         13   -1    0    0    0    0  0.00000000000E+00  0.00000000000E+00  0.74505805969E-08  0.10566000000E+00  0.10566000000E+00 0. -1.
     999900   -1    0    0    0    0 -0.00000000000E+00 -0.00000000000E+00 -0.74505805969E-08  0.93827000000E+00  0.93827000000E+00 0.  1.
     999902    2    1    2    0    0 -0.21381187821E-01 -0.17216336052E-01 -0.25948045181E-03  0.10164777733E+01  0.10161070017E+01 0.  0.
     999903    2    3    3    0    0 -0.12261905031E+00  0.72686193413E-02 -0.38355496011E-01  0.12951671203E+00  0.14668684147E-01 0.  0.
         14    1    1    2    0    0  0.21381187821E-01  0.17216336052E-01  0.25948045181E-03  0.27452226682E-01  0.00000000000E+00 0.  1.
     999901    1    3    3    0    0  0.10123786249E+00 -0.24484955393E-01  0.38096015559E-01  0.88696106129E+00  0.88000000000E+00 0.  1.
        -11    1    4    4    0    0 -0.44686892808E-01  0.14377012751E-02 -0.67652666333E-02  0.45221845688E-01  0.51100000000E-03 0. -1.
         11    1    4    4    0    0 -0.77932157502E-01  0.58309180662E-02 -0.31590229378E-01  0.84294866341E-01  0.51100000000E-03 0.  1.
</event>
<event>
 8    1  0.1106168E+005  0.1043930E+01  0.7957747E-01            NaN
         13   -1    0    0    0    0  0.00000000000E+00  0.00000000000E+00  0.74505805969E-08  0.10566000000E+00  0.10566000000E+00 0.  1.
     999900   -1    0    0    0    0 -0.00000000000E+00 -0.00000000000E+00 -0.74505805969E-08  0.93827000000E+00  0.93827000000E+00 0.  1.
     999902    2    1    2    0    0 -0.14227751932E-01  0.17390773610E-01  0.53539940979E-02  0.10208316627E+01  0.10205703065E+01 0.  0.
     999903    2    3    3    0    0  0.92285747944E-01 -0.19995010776E-01 -0.85593722247E-01  0.12897163468E+00  0.19772140349E-01 0.  0.
         14    1    1    2    0    0  0.14227751932E-01 -0.17390773610E-01 -0.53539940979E-02  0.23098337269E-01  0.00000000000E+00 0. -1.
     999901    1    3    3    0    0 -0.10651349988E+00  0.37385784386E-01  0.90947716345E-01  0.89186002805E+00  0.88000000000E+00 0. -1.
        -11    1    4    4    0    0  0.36274678379E-01 -0.16552883119E-01 -0.41957512270E-01  0.57883885391E-01  0.51100000000E-03 0. -1.
         11    1    4    4    0    0  0.56011069564E-01 -0.34421276576E-02 -0.43636209977E-01  0.71087749287E-01  0.51100000000E-03 0.  1.
</event>
<event>
 8    1  0.1106168E+005  0.1043930E+01  0.7957747E-01            NaN
         13   -1    0    0    0    0  0.00000000000E+00  0.00000000000E+00  0.74505805969E-08  0.10566000000E+00  0.10566000000E+00 0.  1.
     999900   -1    0    0    0    0 -0.00000000000E+00 -0.00000000000E+00 -0.74505805969E-08  0.93827000000E+00  0.93827000000E+00 0.  1.
     999902    2    1    2    0    0 -0.93911238462E-02  0.14878327028E-01  0.18028791426E-01  0.10187388281E+01  0.10184273193E+01 0.  0.
     999903    2    3    3    0    0  0.33721695269E-01 -0.12040223627E+00 -0.85575777609E-02  0.12696173654E+00  0.20302688883E-01 0.  0.
         14    1    1    2    0    0  0.93911238462E-02 -0.14878327028E-01 -0.18028791426E-01  0.25191171917E-01  0.00000000000E+00 0. -1.
     999901    1    3    3    0    0 -0.43112819116E-01  0.13528056330E+00  0.26586369187E-01  0.89177709155E+00  0.88000000000E+00 0.  1.
        -11    1    4    4    0    0  0.32193008448E-01 -0.80732925078E-01 -0.41437432231E-02  0.87015094745E-01  0.51100000000E-03 0. -1.
         11    1    4    4    0    0  0.15286868211E-02 -0.39669311196E-01 -0.44138345378E-02  0.39946641793E-01  0.51100000000E-03 0.  1.
</event>
<event>
 8    1  0.1106168E+005  0.1043930E+01  0.7957747E-01            NaN
         13   -1    0    0    0    0  0.00000000000E+00  0.00000000000E+00  0.74505805969E-08  0.10566000000E+00  0.10566000000E+00 0.  1.
     999900   -1    0    0    0    0 -0.00000000000E+00 -0.00000000000E+00 -0.74505805969E-08  0.93827000000E+00  0.93827000000E+00 0. -1.
     999902    2    1    2    0    0 -0.15544509311E-01  0.92016723107E-02  0.37825857275E-02  0.10254743641E+01  0.10253082760E+01 0.  0.
     999903    2    3    3    0    0 -0.52209903568E-01 -0.47019569028E-01  0.11521794743E+00  0.13591097737E+00  0.16121552562E-01 0.  0.
         14    1    1    2    0    0  0.15544509311E-01 -0.92016723107E-02 -0.37825857275E-02  0.18455635936E-01  0.00000000000E+00 0. -1.
     999901    1    3    3    0    0  0.36665394257E-01  0.56221241339E-01 -0.11143536170E+00  0.88956338670E+00  0.88000000000E+00 0. -1.
        -11    1    4    4    0    0 -0.36143035056E-01 -0.23349407832E-01  0.76429362220E-01  0.87711016182E-01  0.51100000000E-03 0.  1.
         11    1    4    4    0    0 -0.16066868511E-01 -0.23670161196E-01  0.38788585209E-01  0.48199961185E-01  0.51100000000E-03 0. -1.
</event>
<event>
 8    1  0.1106168E+005  0.1043930E+01  0.7957747E-01            NaN
         13   -1    0    0    0    0  0.00000000000E+00  0.00000000000E+00  0.74505805969E-08  0.10566000000E+00  0.10566000000E+00 0.  1.
     999900   -1    0    0    0    0 -0.00000000000E+00 -0.00000000000E+00 -0.74505805969E-08  0.93827000000E+00  0.93827000000E+00 0.  1.
     999902    2    1    2    0    0  0.21603587936E-01  0.18903238073E-02  0.11645420773E-01  0.10193148794E+01  0.10190176246E+01 0.  0.
     999903    2    3    3    0    0  0.87123182365E-01  0.77111292915E-01  0.59656297819E-01  0.13237854814E+00  0.20702795390E-01 0.  0.
         14    1    1    2    0    0 -0.21603587936E-01 -0.18903238073E-02 -0.11645420773E-01  0.24615120573E-01  0.00000000000E+00 0.  1.
     999901    1    3    3    0    0 -0.65519594429E-01 -0.75220969107E-01 -0.48010877046E-01  0.88693633129E+00  0.88000000000E+00 0.  1.
        -11    1    4    4    0    0  0.38211036152E-01  0.24063848232E-01  0.30810583226E-01  0.54669051897E-01  0.51100000000E-03 0.  1.
         11    1    4    4    0    0  0.48912146213E-01  0.53047444682E-01  0.28845714593E-01  0.77709496240E-01  0.51100000000E-03 0. -1.
</event>
<event>
 8    1  0.1106168E+005  0.1043930E+01  0.7957747E-01            NaN
         13   -1    0    0    0    0  0.00000000000E+00  0.00000000000E+00  0.74505805969E-08  0.10566000000E+00  0.10566000000E+00 0. -1.
     999900   -1    0    0    0    0 -0.00000000000E+00 -0.00000000000E+00 -0.74505805969E-08  0.93827000000E+00  0.93827000000E+00 0. -1.
     999902    2    1    2    0    0  0.18064750743E-01  0.14826513479E-01  0.65749411148E-02  0.10196526325E+01  0.10193635762E+01 0.  0.
     999903    2    3    3    0    0  0.98504711052E-01  0.60696580363E-01  0.62520171154E-01  0.13302727814E+00  0.20005798207E-01 0.  0.
         14    1    1    2    0    0 -0.18064750743E-01 -0.14826513479E-01 -0.65749411148E-02  0.24277367486E-01  0.00000000000E+00 0.  1.
     999901    1    3    3    0    0 -0.80439960309E-01 -0.45870066884E-01 -0.55945230039E-01  0.88662535437E+00  0.88000000000E+00 0.  1.
        -11    1    4    4    0    0  0.78707800502E-01  0.46319612714E-01  0.57866791854E-01  0.10811684005E+00  0.51100000000E-03 0.  1.
         11    1    4    4    0    0  0.19796910549E-01  0.14376967649E-01  0.46533792995E-02  0.24910438093E-01  0.51100000000E-03 0. -1.
</event>
<event>
 8    1  0.1106168E+005  0.1043930E+01  0.7957747E-01            NaN
         13   -1    0    0    0    0  0.00000000000E+00  0.00000000000E+00  0.74505805969E-08  0.10566000000E+00  0.10566000000E+00 0.  1.
     999900   -1    0    0    0    0 -0.00000000000E+00 -0.00000000000E+00 -0.74505805969E-08  0.93827000000E+00  0.93827000000E+00 0. -1.
     999902    2    1    2    0    0  0.11313497869E-01 -0.66346231644E-02 -0.20132629972E-01  0.10199021776E+01  0.10196191032E+01 0.  0.
     999903    2    3    3    0    0 -0.27533019867E-01  0.39829752566E-01 -0.12128553447E+00  0.13203963182E+00  0.19488640963E-01 0.  0.
         14    1    1    2    0    0 -0.11313497869E-01  0.66346231644E-02  0.20132629972E-01  0.24027822377E-01  0.00000000000E+00 0.  1.
     999901    1    3    3    0    0  0.38846517737E-01 -0.46464375731E-01  0.10115290450E+00  0.88786254580E+00  0.88000000000E+00 0.  1.
        -11    1    4    4    0    0 -0.16163183715E-01  0.15877687035E-01 -0.34375443599E-01  0.41173798672E-01  0.51100000000E-03 0. -1.
         11    1    4    4    0    0 -0.11369836153E-01  0.23952065531E-01 -0.86910090872E-01  0.90865833148E-01  0.51100000000E-03 0.  1.
</event>
<event>
 8    1  0.1106168E+005  0.1043930E+01  0.7957747E-01            NaN
         13   -1    0    0    0    0  0.00000000000E+00  0.00000000000E+00  0.74505805969E-08  0.10566000000E+00  0.10566000000E+00 0. -1.
     999900   -1    0    0    0    0 -0.00000000000E+00 -0.00000000000E+00 -0.74505805969E-08  0.93827000000E+00  0.93827000000E+00 0.  1.
     999902    2    1    2    0    0  0.17800988058E-01 -0.96045875149E-02  0.11472506421E-01  0.10206761470E+01  0.10204112187E+01 0.  0.
     999903    2    3    3    0    0 -0.56444534700E-01  0.83769942882E-01 -0.75987268979E-01  0.12833069094E+00  0.22165567067E-01 0.  0.
         14    1    1    2    0    0 -0.17800988058E-01  0.96045875149E-02 -0.11472506421E-01  0.23253853030E-01  0.00000000000E+00 0.  1.
     999901    1    3    3    0    0  0.74245522759E-01 -0.93374530397E-01  0.87459775399E-01  0.89234545603E+00  0.88000000000E+00 0. -1.
        -11    1    4    4    0    0 -0.30070482106E-01  0.53744304794E-01 -0.33943405052E-01  0.70321405414E-01  0.51100000000E-03 0.  1.
         11    1    4    4    0    0 -0.26374052594E-01  0.30025638088E-01 -0.42043863927E-01  0.58009285530E-01  0.51100000000E-03 0. -1.
</event>
<event>
 8    1  0.1106168E+005  0.1043930E+01  0.7957747E-01            NaN
         13   -1    0    0    0    0  0.00000000000E+00  0.00000000000E+00  0.74505805969E-08  0.10566000000E+00  0.10566000000E+00 0. -1.
     999900   -1    0    0    0    0 -0.00000000000E+00 -0.00000000000E+00 -0.74505805969E-08  0.93827000000E+00  0.93827000000E+00 0.  1.
     999902    2    1    2    0    0  0.23141792281E-01  0.93123410296E-05 -0.13896552416E-01  0.10169363562E+01  0.10165780323E+01 0.  0.
     999903    2    3    3    0    0 -0.55987395996E-01  0.10675074987E+00 -0.33600407033E-01  0.12674345305E+00  0.20114781402E-01 0.  0.
         14    1    1    2    0    0 -0.23141792281E-01 -0.93123410296E-05  0.13896552416E-01  0.26993643803E-01  0.00000000000E+00 0. -1.
     999901    1    3    3    0    0  0.79129188277E-01 -0.10674143753E+00  0.19703854616E-01  0.89019290314E+00  0.88000000000E+00 0. -1.
        -11    1    4    4    0    0 -0.50607117704E-01  0.10426767899E+00 -0.29750720261E-01  0.11965866338E+00  0.51100000000E-03 0.  1.
         11    1    4    4    0    0 -0.53802782921E-02  0.24830708784E-02 -0.38496867720E-02  0.70847896744E-02  0.51100000000E-03 0. -1.
</event>
<event>
 8    1  0.1106168E+005  0.1043930E+01  0.7957747E-01            NaN
         13   -1    0    0    0    0  0.00000000000E+00  0.00000000000E+00  0.74505805969E-08  0.10566000000E+00  0.10566000000E+00 0.  1.
     999900   -1    0    0    0    0 -0.00000000000E+00 -0.00000000000E+00 -0.74505805969E-08  0.93827000000E+00  0.93827000000E+00 0. -1.
     999902    2    1    2    0    0  0.17074172030E-01  0.72481646290E-02 -0.13235080513E-01  0.10211433680E+01  0.10208890965E+01 0.  0.
     999903    2    3    3    0    0 -0.11555185990E+00 -0.46852178283E-01  0.24001738358E-01  0.12878520442E+00  0.21498523171E-01 0.  0.
         14    1    1    2    0    0 -0.17074172030E-01 -0.72481646290E-02  0.13235080513E-01  0.22786631985E-01  0.00000000000E+00 0. -1.
     999901    1    3    3    0    0  0.13262603193E+00  0.54100342912E-01 -0.37236818871E-01  0.89235816359E+00  0.88000000000E+00 0.  1.
        -11    1    4    4    0    0 -0.33141596201E-01 -0.10586431040E-01  0.16282815181E-01  0.38416521343E-01  0.51100000000E-03 0.  1.
         11    1    4    4    0    0 -0.82410263697E-01 -0.36265747243E-01  0.77189231776E-02  0.90368683081E-01  0.51100000000E-03 0. -1.
</event>
<event>
 8    1  0.1106168E+005  0.1043930E+01  0.7957747E-01            NaN
         13   -1    0    0    0    0  0.00000000000E+00  0.00000000000E+00  0.74505805969E-08  0.10566000000E+00  0.10566000000E+00 0.  1.
     999900   -1    0    0    0    0 -0.00000000000E+00 -0.00000000000E+00 -0.74505805969E-08  0.93827000000E+00  0.93827000000E+00 0. -1.
     999902    2    1    2    0    0 -0.21021399749E-01 -0.10392364370E-01  0.72499998101E-02  0.10193848787E+01  0.10190893326E+01 0.  0.
     999903    2    3    3    0    0 -0.30833783935E-01  0.38259532286E-01  0.11975034019E+00  0.13083571484E+00  0.19061119044E-01 0.  0.
         14    1    1    2    0    0  0.21021399749E-01  0.10392364370E-01 -0.72499998101E-02  0.24545121345E-01  0.00000000000E+00 0.  1.
     999901    1    3    3    0    0  0.98123841855E-02 -0.48651896655E-01 -0.11250034038E+00  0.88854916382E+00  0.88000000000E+00 0. -1.
        -11    1    4    4    0    0 -0.11488790630E-01  0.11783017081E-01  0.64656521745E-01  0.66720002449E-01  0.51100000000E-03 0.  1.
         11    1    4    4    0    0 -0.19344993304E-01  0.26476515204E-01  0.55093818446E-01  0.64115712390E-01  0.51100000000E-03 0. -1.
</event>
<event>
 8    1  0.1106168E+005  0.1043930E+01  0.7957747E-01            NaN
         13   -1    0    0    0    0  0.00000000000E+00  0.00000000000E+00  0.74505805969E-08  0.10566000000E+00  0.10566000000E+00 0. -1.
     999900   -1    0    0    0    0 -0.00000000000E+00 -0.00000000000E+00 -0.74505805969E-08  0.93827000000E+00  0.93827000000E+00 0.  1.
     999902    2    1    2    0    0  0.10932316922E-01  0.20725391071E-01  0.56683724576E-03  0.10204911713E+01  0.10202219621E+01 0.  0.
     999903    2    3    3    0    0  0.52017529562E-01  0.98714278550E-01  0.70039339298E-01  0.13336283228E+00  0.20731710356E-01 0.  0.
         14    1    1    2    0    0 -0.10932316922E-01 -0.20725391071E-01 -0.56683724576E-03  0.23438828742E-01  0.00000000000E+00 0. -1.
     999901    1    3    3    0    0 -0.41085212640E-01 -0.77988887479E-01 -0.69472502052E-01  0.88712833897E+00  0.88000000000E+00 0.  1.
        -11    1    4    4    0    0  0.31082882147E-01  0.77941330670E-01  0.49572972562E-01  0.97461465815E-01  0.51100000000E-03 0.  1.
         11    1    4    4    0    0  0.20934647415E-01  0.20772947880E-01  0.20466366736E-01  0.35901366469E-01  0.51100000000E-03 0. -1.
</event>
<event>
 7    1  0.1106168E+005  0.1043930E+01  0.7957747E-01            NaN
         13   -1    0    0    0    0  0.00000000000E+00  0.00000000000E+00  0.74505805969E-08  0.10566000000E+00  0.10566000000E+00 0.  1.
     999900   -1    0    0    0    0 -0.00000000000E+00 -0.00000000000E+00 -0.74505805969E-08  0.93827000000E+00  0.93827000000E+00 0.  1.
     999903    2    1    2    0    0 -0.97672149765E-01 -0.11453626653E-01  0.54416669804E-01  0.11414357938E+00  0.19913521965E-01 0.  0.
         14    1    1    2    0    0 -0.16756869220E-01 -0.35718956645E-01  0.98746733098E-04  0.39454356930E-01  0.00000000000E+00 0. -1.
     999901    1    1    2    0    0  0.11442901898E+00  0.47172583298E-01 -0.54515416537E-01  0.89033206369E+00  0.88000000000E+00 0.  1.
        -11    1    3    3    0    0 -0.45406611811E-01 -0.93947234317E-02  0.15311842542E-01  0.48833747220E-01  0.51100000000E-03 0.  1.
         11    1    3    3    0    0 -0.52265537954E-01 -0.20589032217E-02  0.39104827262E-01  0.65309832156E-01  0.51100000000E-03 0. -1.
</event>
<event>
 8    1  0.1106168E+005  0.1043930E+01  0.7957747E-01            NaN
         13   -1    0    0    0    0  0.00000000000E+00  0.00000000000E+00  0.74505805969E-08  0.10566000000E+00  0.10566000000E+00 0. -1.
     999900   -1    0    0    0    0 -0.00000000000E+00 -0.00000000000E+00 -0.74505805969E-08  0.93827000000E+00  0.93827000000E+00 0.  1.
     999902    2    1    2    0    0  0.13082061278E-01 -0.12174792690E-01 -0.14110233253E-01  0.10211601825E+01  0.10209062904E+01 0.  0.
     999903    2    3    3    0    0 -0.10067422406E+00  0.68695813510E-01 -0.40153543571E-01  0.12977990376E+00  0.19393353882E-01 0.  0.
         14    1    1    2    0    0 -0.13082061278E-01  0.12174792690E-01  0.14110233253E-01  0.22769817452E-01  0.00000000000E+00 0. -1.
     999901    1    3    3    0    0  0.11375628534E+00 -0.80870606200E-01  0.26043310318E-01  0.89138027879E+00  0.88000000000E+00 0. -1.
        -11    1    4    4    0    0 -0.93665759874E-01  0.56908083062E-01 -0.37214695281E-01  0.11574540663E+00  0.51100000000E-03 0.  1.
         11    1    4    4    0    0 -0.70084641854E-02  0.11787730448E-01 -0.29388482894E-02  0.14034497127E-01  0.51100000000E-03 0. -1.
</event>
<event>
 8    1  0.1106168E+005  0.1043930E+01  0.7957747E-01            NaN
         13   -1    0    0    0    0  0.00000000000E+00  0.00000000000E+00  0.74505805969E-08  0.10566000000E+00  0.10566000000E+00 0.  1.
     999900   -1    0    0    0    0 -0.00000000000E+00 -0.00000000000E+00 -0.74505805969E-08  0.93827000000E+00  0.93827000000E+00 0. -1.
     999902    2    1    2    0    0 -0.89063999320E-02 -0.11841902994E-01  0.20841191048E-01  0.10183583385E+01  0.10180372271E+01 0.  0.
     999903    2    3    3    0    0 -0.44074958416E-01 -0.26773185295E-01  0.11977008231E+00  0.13199120453E+00  0.20430370724E-01 0.  0.
         14    1    1    2    0    0  0.89063999320E-02  0.11841902994E-01 -0.20841191048E-01  0.25571661475E-01  0.00000000000E+00 0. -1.
     999901    1    3    3    0    0  0.35168558484E-01  0.14931282301E-01 -0.98928891258E-01  0.88636713399E+00  0.88000000000E+00 0. -1.
        -11    1    4    4    0    0 -0.38189094850E-01 -0.24660982041E-01  0.11618966550E+00  0.12476726530E+00  0.51100000000E-03 0. -1.
         11    1    4    4    0    0 -0.58858635661E-02 -0.21122032543E-02  0.35804168064E-02  0.72239392310E-02  0.51100000000E-03 0.  1.
</event>
<event>
 8    1  0.1106168E+005  0.1043930E+01  0.7957747E-01            NaN
         13   -1    0    0    0    0  0.00000000000E+00  0.00000000000E+00  0.74505805969E-08  0.10566000000E+00  0.10566000000E+00 0.  1.
     999900   -1    0    0    0    0 -0.00000000000E+00 -0.00000000000E+00 -0.74505805969E-08  0.93827000000E+00  0.93827000000E+00 0.  1.
     999902    2    1    2    0    0  0.24432447338E-02  0.15063396784E-02  0.21018953061E-01  0.10227159742E+01  0.10224959310E+01 0.  0.
     999903    2    3    3    0    0 -0.12951056079E+00  0.18471199075E-01  0.34847394059E-02  0.13254348420E+00  0.21010979127E-01 0.  0.
         14    1    1    2    0    0 -0.24432447338E-02 -0.15063396784E-02 -0.21018953061E-01  0.21214025828E-01  0.00000000000E+00 0. -1.
     999901    1    3    3    0    0  0.13195380553E+00 -0.16964859396E-01  0.17534213655E-01  0.89017248997E+00  0.88000000000E+00 0.  1.
        -11    1    4    4    0    0 -0.79599045889E-01  0.12391573857E-01 -0.80307439460E-02  0.80958712801E-01  0.51100000000E-03 0. -1.
         11    1    4    4    0    0 -0.49911514904E-01  0.60796252174E-02  0.11515483352E-01  0.51584771403E-01  0.51100000000E-03 0.  1.
</event>
<event>
 8    1  0.1106168E+005  0.1043930E+01  0.7957747E-01            NaN
         13   -1    0    0    0    0  0.00000000000E+00  0.00000000000E+00  0.74505805969E-08  0.10566000000E+00  0.10566000000E+00 0.  1.
     999900   -1    0    0    0    0 -0.00000000000E+00 -0.00000000000E+00 -0.74505805969E-08  0.93827000000E+00  0.93827000000E+00 0.  1.
     999902    2    1    2    0    0 -0.16988099257E-02  0.29919766351E-02 -0.23175526029E-01  0.10205004698E+01  0.10202314766E+01 0.  0.
     999903    2    3    3    0    0 -0.68305318074E-02  0.12660685429E+00 -0.30265450746E-01  0.13181760195E+00  0.19594156231E-01 0.  0.
         14    1    1    2    0    0  0.16988099257E-02 -0.29919766351E-02  0.23175526029E-01  0.23429530214E-01  0.00000000000E+00 0.  1.
     999901    1    3    3    0    0  0.51317218817E-02 -0.12361487765E+00  0.70899247171E-02  0.88868286783E+00  0.88000000000E+00 0. -1.
        -11    1    4    4    0    0  0.49820777626E-02  0.50010701231E-01 -0.17791282173E-01  0.53316809533E-01  0.51100000000E-03 0. -1.
         11    1    4    4    0    0 -0.11812609570E-01  0.76596153057E-01 -0.12474168573E-01  0.78500792420E-01  0.51100000000E-03 0.  1.
</event>
<event>
 8    1  0.1106168E+005  0.1043930E+01  0.7957747E-01            NaN
         13   -1    0    0    0    0  0.00000000000E+00  0.00000000000E+00  0.74505805969E-08  0.10566000000E+00  0.10566000000E+00 0.  1.
     999900   -1    0    0    0    0 -0.00000000000E+00 -0.00000000000E+00 -0.74505805969E-08  0.93827000000E+00  0.93827000000E+00 0.  1.
     999902    2    1    2    0    0  0.14167416631E-01  0.18712373119E-01 -0.35830255558E-03  0.10204566751E+01  0.10201866637E+01 0.  0.
     999903    2    3    3    0    0  0.12918740364E+00  0.20084926229E-01 -0.13948783896E-01  0.13286657685E+00  0.19135546772E-01 0.  0.
         14    1    1    2    0    0 -0.14167416631E-01 -0.18712373119E-01  0.35830255558E-03  0.23473324913E-01  0.00000000000E+00 0.  1.
     999901    1    3    3    0    0 -0.11501998701E+00 -0.13725531102E-02  0.13590481341E-01  0.88759009824E+00  0.88000000000E+00 0. -1.
        -11    1    4    4    0    0  0.68979949834E-01  0.96453479941E-02 -0.16947632552E-01  0.71685072276E-01  0.51100000000E-03 0.  1.
         11    1    4    4    0    0  0.60207453803E-01  0.10439578235E-01  0.29988486551E-02  0.61181504570E-01  0.51100000000E-03 0. -1.
</event>
<event>
 8    1  0.1106168E+005  0.1043930E+01  0.7957747E-01            NaN
         13   -1    0    0    0    0  0.00000000000E+00  0.00000000000E+00  0.74505805969E-08  0.10566000000E+00  0.10566000000E+00 0.  1.
     999900   -1    0    0    0    0 -0.00000000000E+00 -0.00000000000E+00 -0.74505805969E-08  0.93827000000E+00  0.93827000000E+00 0.  1.
     999902    2    1    2    0    0  0.18975287143E-01 -0.38541566678E-02 -0.13725784002E-01  0.10201957801E+01  0.10199196619E+01 0.  0.
     999903    2    3    3    0    0  0.58164934067E-01 -0.11044000243E+00 -0.37898992180E-01  0.13256933003E+00  0.23624986034E-01 0.  0.
         14    1    1    2    0    0 -0.18975287143E-01  0.38541566678E-02  0.13725784002E-01  0.23734219858E-01  0.00000000000E+00 0. -1.
     999901    1    3    3    0    0 -0.39189646924E-01  0.10658584576E+00  0.24173208178E-01  0.88762645011E+00  0.88000000000E+00 0. -1.
        -11    1    4    4    0    0  0.46222517000E-01 -0.82722538922E-01 -0.18112829861E-01  0.96477330240E-01  0.51100000000E-03 0.  1.
         11    1    4    4    0    0  0.11942417067E-01 -0.27717463507E-01 -0.19786162319E-01  0.36091999792E-01  0.51100000000E-03 0. -1.
</event>
<event>
 8    1  0.1106168E+005  0.1043930E+01  0.7957747E-01            NaN
         13   -1    0    0    0    0  0.00000000000E+00  0.00000000000E+00  0.74505805969E-08  0.10566000000E+00  0.10566000000E+00 0.  1.
     999900   -1    0    0    0    0 -0.00000000000E+00 -0.00000000000E+00 -0.74505805969E-08  0.93827000000E+00  0.93827000000E+00 0. -1.
     999902    2    1    2    0    0 -0.56686786446E-02  0.14160438167E-01  0.17792121181E-01  0.10204947380E+01  0.10202256118E+01 0.  0.
     999903    2    3    3    0    0 -0.44504721004E-01  0.11533381312E+00 -0.41470702090E-01  0.13186862308E+00  0.19671196717E-01 0.  0.
         14    1    1    2    0    0  0.56686786446E-02 -0.14160438167E-01 -0.17792121181E-01  0.23435261952E-01  0.00000000000E+00 0. -1.
     999901    1    3    3    0    0  0.38836042360E-01 -0.10117337495E+00  0.59262823271E-01  0.88862611497E+00  0.88000000000E+00 0. -1.
        -11    1    4    4    0    0 -0.31910515774E-01  0.71886240959E-01 -0.35300513117E-01  0.86210788208E-01  0.51100000000E-03 0.  1.
         11    1    4    4    0    0 -0.12594205231E-01  0.43447572160E-01 -0.61701889731E-02  0.45657834869E-01  0.51100000000E-03 0. -1.
</event>
<event>
 8    1  0.1106168E+005  0.1043930E+01  0.7957747E-01            NaN
         13   -1    0    0    0    0  0.00000000000E+00  0.00000000000E+00  0.74505805969E-08  0.10566000000E+00  0.10566000000E+00 0. -1.
     999900   -1    0    0    0    0 -0.00000000000E+00 -0.00000000000E+00 -0.74505805969E-08  0.93827000000E+00  0.93827000000E+00 0. -1.
     999902    2    1    2    0    0 -0.14899637495E-01  0.51732352227E-02 -0.17536019915E-01  0.10203445478E+01  0.10200719204E+01 0.  0.
     999903    2    3    3    0    0 -0.33331699363E-02 -0.11972424982E+00 -0.48830887028E-01  0.13089947720E+00  0.20129867982E-01 0.  0.
         14    1    1    2    0    0  0.14899637495E-01 -0.51732352227E-02  0.17536019915E-01  0.23585452181E-01  0.00000000000E+00 0. -1.
     999901    1    3    3    0    0 -0.11566467558E-01  0.12489748505E+00  0.31294867113E-01  0.88944507062E+00  0.88000000000E+00 0. -1.
        -11    1    4    4    0    0 -0.60212486074E-02 -0.75792834112E-01 -0.40338126921E-01  0.86071102828E-01  0.51100000000E-03 0. -1.
         11    1    4    4    0    0  0.26880786711E-02 -0.43931415713E-01 -0.84927601068E-02  0.44828374370E-01  0.51100000000E-03 0.  1.
</event>
<event>
 8    1  0.1106168E+005  0.1043930E+01  0.7957747E-01            NaN
         13   -1    0    0    0    0  0.00000000000E+00  0.00000000000E+00  0.74505805969E-08  0.10566000000E+00  0.10566000000E+00 0. -1.
     999900   -1    0    0    0    0 -0.00000000000E+00 -0.00000000000E+00 -0.74505805969E-08  0.93827000000E+00  0.93827000000E+00 0. -1.
     999902    2    1    2    0    0 -0.16004968548E-02 -0.23457040001E-01  0.41249831484E-02  0.10200593108E+01  0.10197799703E+01 0.  0.
     999903    2    3    3    0    0  0.10411219037E+00  0.59844445861E-01  0.42493056687E-01  0.12900015518E+00  0.20363552893E-01 0.  0.
         14    1    1    2    0    0  0.16004968548E-02  0.23457040001E-01 -0.41249831484E-02  0.23870689176E-01  0.00000000000E+00 0.  1.
     999901    1    3    3    0    0 -0.10571268722E+00 -0.83301485862E-01 -0.38368073538E-01  0.89105915564E+00  0.88000000000E+00 0. -1.
        -11    1    4    4    0    0  0.50123423579E-01  0.26000368206E-01  0.95615352356E-02  0.57271815190E-01  0.51100000000E-03 0. -1.
         11    1    4    4    0    0  0.53988766791E-01  0.33844077655E-01  0.32931521451E-01  0.71728339992E-01  0.51100000000E-03 0.  1.
</event>
<event>
 8    1  0.1106168E+005  0.1043930E+01  0.7957747E-01            NaN
         13   -1    0    0    0    0  0.00000000000E+00  0.00000000000E+00  0.74505805969E-08  0.10566000000E+00  0.10566000000E+00 0. -1.
     999900   -1    0    0    0    0 -0.00000000000E+00 -0.00000000000E+00 -0.74505805969E-08  0.93827000000E+00  0.93827000000E+00 0. -1.
     999902    2    1    2    0    0  0.94565008911E-02 -0.12113103067E-01  0.18034966611E-01  0.10202358510E+01  0.10199606752E+01 0.  0.
     999903    2    3    3    0    0 -0.10083017633E+00 -0.24713705161E-01  0.77755976284E-01  0.13125411592E+00  0.20103716522E-01 0.  0.
         14    1    1    2    0    0 -0.94565008911E-02  0.12113103067E-01 -0.18034966611E-01  0.23694148975E-01  0.00000000000E+00 0.  1.
     999901    1    3    3    0    0  0.11028667722E+00  0.12600602095E-01 -0.59721009673E-01  0.88898173510E+00  0.88000000000E+00 0. -1.
        -11    1    4    4    0    0 -0.16399349716E-01 -0.10565756297E-01  0.20253590860E-01  0.28125485613E-01  0.51100000000E-03 0. -1.
         11    1    4    4    0    0 -0.84430826612E-01 -0.14147948865E-01  0.57502385424E-01  0.10312863031E+00  0.51100000000E-03 0.  1.
</event>
<event>
 8    1  0.1106168E+005  0.1043930E+01  0.7957747E-01            NaN
         13   -1    0    0    0    0  0.00000000000E+00  0.00000000000E+00  0.74505805969E-08  0.10566000000E+00  0.10566000000E+00 0.  1.
     999900   -1    0    0    0    0 -0.00000000000E+00 -0.00000000000E+00 -0.74505805969E-08  0.93827000000E+00  0.93827000000E+00 0. -1.
     999902    2    1    2    0    0  0.24584883371E-01  0.42871599363E-02  0.18227256222E-02  0.10189076388E+01  0.10186003426E+01 0.  0.
     999903    2    3    3    0    0  0.12799326464E+00 -0.70760703739E-02 -0.26725171987E-01  0.13232013677E+00  0.19027275506E-01 0.  0.
         14    1    1    2    0    0 -0.24584883371E-01 -0.42871599363E-02 -0.18227256222E-02  0.25022361187E-01  0.00000000000E+00 0. -1.
     999901    1    3    3    0    0 -0.10340838127E+00  0.11363230310E-01  0.28547897610E-01  0.88658750204E+00  0.88000000000E+00 0.  1.
        -11    1    4    4    0    0  0.61229235156E-01  0.60862625825E-02 -0.11911630411E-01  0.62675432907E-01  0.51100000000E-03 0. -1.
         11    1    4    4    0    0  0.66764029480E-01 -0.13162332956E-01 -0.14813541576E-01  0.69644703864E-01  0.51100000000E-03 0.  1.
</event>
<event>
 8    1  0.1106168E+005  0.1043930E+01  0.7957747E-01            NaN
         13   -1    0    0    0    0  0.00000000000E+00  0.00000000000E+00  0.74505805969E-08  0.10566000000E+00  0.10566000000E+00 0.  1.
     999900   -1    0    0    0    0 -0.00000000000E+00 -0.00000000000E+00 -0.74505805969E-08  0.93827000000E+00  0.93827000000E+00 0. -1.
     999902    2    1    2    0    0 -0.15538424667E-01 -0.17549617554E-01  0.47495027961E-02  0.10200136981E+01  0.10197332764E+01 0.  0.
     999903    2    3    3    0    0 -0.23659481565E-01 -0.77989624653E-01  0.10251898767E+00  0.13250154714E+00  0.20108817474E-01 0.  0.
         14    1    1    2    0    0  0.15538424667E-01  0.17549617554E-01 -0.47495027961E-02  0.23916301850E-01  0.00000000000E+00 0.  1.
     999901    1    3    3    0    0  0.81210568983E-02  0.60440007099E-01 -0.97769484870E-01  0.88751215101E+00  0.88000000000E+00 0.  1.
        -11    1    4    4    0    0 -0.98608856110E-03 -0.66926556522E-02  0.19978617659E-01  0.21099059100E-01  0.51100000000E-03 0. -1.
         11    1    4    4    0    0 -0.22673393004E-01 -0.71296969000E-01  0.82540370007E-01  0.11140248804E+00  0.51100000000E-03 0.  1.
</event>
<event>
 8    1  0.1106168E+005  0.1043930E+01  0.7957747E-01            NaN
         13   -1    0    0    0    0  0.00000000000E+00  0.00000000000E+00  0.74505805969E-08  0.10566000000E+00  0.10566000000E+00 0.  1.
     999900   -1    0    0    0    0 -0.00000000000E+00 -0.00000000000E+00 -0.74505805969E-08  0.93827000000E+00  0.93827000000E+00 0. -1.
     999902    2    1    2    0    0  0.40473758454E-02 -0.13472279578E-01 -0.20330342456E-01  0.10192074113E+01  0.10189075232E+01 0.  0.
     999903    2    3    3    0    0  0.44114690781E-01  0.11358612232E+00  0.33039961307E-01  0.12758102286E+00  0.18367504551E-01 0.  0.
         14    1    1    2    0    0 -0.40473758454E-02  0.13472279578E-01  0.20330342456E-01  0.24722588712E-01  0.00000000000E+00 0.  1.
     999901    1    3    3    0    0 -0.40067314936E-01 -0.12705840190E+00 -0.53370303762E-01  0.89162638843E+00  0.88000000000E+00 0. -1.
        -11    1    4    4    0    0  0.63669368875E-02  0.37387759602E-01  0.14058369322E-01  0.40450974307E-01  0.51100000000E-03 0.  1.
         11    1    4    4    0    0  0.37747753894E-01  0.76198362721E-01  0.18981591985E-01  0.87130048552E-01  0.51100000000E-03 0. -1.
</event>
<event>
 8    1  0.1106168E+005  0.1043930E+01  0.7957747E-01            NaN
         13   -1    0    0    0    0  0.00000000000E+00  0.00000000000E+00  0.74505805969E-08  0.10566000000E+00  0.10566000000E+00 0.  1.
     999900   -1    0    0    0    0 -0.00000000000E+00 -0.00000000000E+00 -0.74505805969E-08  0.93827000000E+00  0.93827000000E+00 0. -1.
     999902    2    1    2    0    0 -0.62149906279E-02 -0.37286837996E-02  0.22405743759E-01  0.10203811880E+01  0.10201094169E+01 0.  0.
     999903    2    3    3    0    0 -0.29409606786E-01  0.10757044077E+00  0.67825947893E-01  0.13190581962E+00  0.19038417528E-01 0.  0.
         14    1    1    2    0    0  0.62149906279E-02  0.37286837996E-02 -0.22405743759E-01  0.23548811961E-01  0.00000000000E+00 0. -1.
     999901    1    3    3    0    0  0.23194616158E-01 -0.11129912457E+00 -0.45420204134E-01  0.88847536842E+00  0.88000000000E+00 0. -1.
        -11    1    4    4    0    0 -0.26664110627E-01  0.10616450702E+00  0.63434688150E-01  0.12651520907E+00  0.51100000000E-03 0. -1.
         11    1    4    4    0    0 -0.27454961595E-02  0.14059337560E-02  0.43912597431E-02  0.53906105424E-02  0.51100000000E-03 0.  1.
</event>
<event>
 8    1  0.1106168E+005  0.1043930E+01  0.7957747E-01            NaN
         13   -1    0    0    0    0  0.00000000000E+00  0.00000000000E+00  0.74505805969E-08  0.10566000000E+00  0.10566000000E+00 0.  1.
     999900   -1    0    0    0    0 -0.00000000000E+00 -0.00000000000E+00 -0.74505805969E-08  0.93827000000E+00  0.93827000000E+00 0.  1.
     999902    2    1    2    0    0 -0.43195160887E-02  0.22200710764E-01  0.10206719756E-01  0.10191165580E+01  0.10188144344E+01 0.  0.
     999903    2    3    3    0    0 -0.34460895022E-01 -0.39922190979E-01 -0.11452428782E+00  0.12764273227E+00  0.19887684184E-01 0.  0.
         14    1    1    2    0    0  0.43195160887E-02 -0.22200710764E-01 -0.10206719756E-01  0.24813442040E-01  0.00000000000E+00 0.  1.
     999901    1    3    3    0    0  0.30141378934E-01  0.62122901744E-01  0.12473100757E+00  0.89147382569E+00  0.88000000000E+00 0. -1.
        -11    1    4    4    0    0 -0.16900289551E-01 -0.29462913989E-01 -0.54378946526E-01  0.64117189847E-01  0.51100000000E-03 0. -1.
         11    1    4    4    0    0 -0.17560605471E-01 -0.10459276991E-01 -0.60145341292E-01  0.63525542421E-01  0.51100000000E-03 0.  1.
</event>
<event>
 8    1  0.1106168E+005  0.1043930E+01  0.7957747E-01            NaN
         13   -1    0    0    0    0  0.00000000000E+00  0.00000000000E+00  0.74505805969E-08  0.10566000000E+00  0.10566000000E+00 0. -1.
     999900   -1    0    0    0    0 -0.00000000000E+00 -0.00000000000E+00 -0.74505805969E-08  0.93827000000E+00  0.93827000000E+00 0.  1.
     999902    2    1    2    0    0 -0.76855486786E-02 -0.27177445618E-01 -0.20798853386E-01  0.10088547450E+01  0.10082448230E+01 0.  0.
     999903    2    3    3    0    0  0.38695696552E-01 -0.10899182465E+00  0.33724242917E-01  0.12216563348E+00  0.20261852584E-01 0.  0.
         14    1    1    2    0    0  0.76855486786E-02  0.27177445618E-01  0.20798853386E-01  0.35075254967E-01  0.00000000000E+00 0. -1.
     999901    1    3    3    0    0 -0.46381245230E-01  0.81814379031E-01 -0.54523096304E-01  0.88668911156E+00  0.88000000000E+00 0.  1.
        -11    1    4    4    0    0  0.17854488335E-01 -0.78163648190E-01  0.24191987461E-01  0.83748743456E-01  0.51100000000E-03 0.  1.
         11    1    4    4    0    0  0.20841208216E-01 -0.30828176459E-01  0.95322554562E-02  0.38416890020E-01  0.51100000000E-03 0. -1.
</event>
<event>
 8    1  0.1106168E+005  0.1043930E+01  0.7957747E-01            NaN
         13   -1    0    0    0    0  0.00000000000E+00  0.00000000000E+00  0.74505805969E-08  0.10566000000E+00  0.10566000000E+00 0.  1.
     999900   -1    0    0    0    0 -0.00000000000E+00 -0.00000000000E+00 -0.74505805969E-08  0.93827000000E+00  0.93827000000E+00 0. -1.
     999902    2    1    2    0    0 -0.17100795971E-01  0.12341729025E-01 -0.12375257904E-01  0.10194779550E+01  0.10191846732E+01 0.  0.
     999903    2    3    3    0    0  0.63131180414E-01 -0.10836181339E+00 -0.12242885297E-01  0.12762228687E+00  0.20241821208E-01 0.  0.
         14    1    1    2    0    0  0.17100795971E-01 -0.12341729025E-01  0.12375257904E-01  0.24452045034E-01  0.00000000000E+00 0.  1.
     999901    1    3    3    0    0 -0.80231976385E-01  0.12070354241E+00 -0.13237260667E-03  0.89185566809E+00  0.88000000000E+00 0.  1.
        -11    1    4    4    0    0  0.22810426303E-01 -0.42777687483E-01 -0.14488310685E-01  0.50600576697E-01  0.51100000000E-03 0. -1.
         11    1    4    4    0    0  0.40320754111E-01 -0.65584125902E-01  0.22454253871E-02  0.77021710177E-01  0.51100000000E-03 0.  1.
</event>
<event>
 8    1  0.1106168E+005  0.1043930E+01  0.7957747E-01            NaN
         13   -1    0    0    0    0  0.00000000000E+00  0.00000000000E+00  0.74505805969E-08  0.10566000000E+00  0.10566000000E+00 0. -1.
     999900   -1    0    0    0    0 -0.00000000000E+00 -0.00000000000E+00 -0.74505805969E-08  0.93827000000E+00  0.93827000000E+00 0.  1.
     999902    2    1    2    0    0  0.11188200406E-01 -0.15806369670E-01 -0.15205168729E-01  0.10193085803E+01  0.10190111715E+01 0.  0.
     999903    2    3    3    0    0  0.11407146080E-02 -0.12432717658E+00  0.37586660942E-01  0.13101544471E+00  0.17138891624E-01 0.  0.
         14    1    1    2    0    0 -0.11188200406E-01  0.15806369670E-01  0.15205168729E-01  0.24621419669E-01  0.00000000000E+00 0. -1.
     999901    1    3    3    0    0  0.10047485798E-01  0.10852080691E+00 -0.52791829671E-01  0.88829313562E+00  0.88000000000E+00 0.  1.
        -11    1    4    4    0    0  0.10715420624E-02 -0.10548386301E+00  0.38094798881E-01  0.11215822922E+00  0.51100000000E-03 0.  1.
         11    1    4    4    0    0  0.69172545620E-04 -0.18843313567E-01 -0.50813793821E-03  0.18857215494E-01  0.51100000000E-03 0. -1.
</event>
<event>
 8    1  0.1106168E+005  0.1043930E+01  0.7957747E-01            NaN
         13   -1    0    0    0    0  0.00000000000E+00  0.00000000000E+00  0.74505805969E-08  0.10566000000E+00  0.10566000000E+00 0.  1.
     999900   -1    0    0    0    0 -0.00000000000E+00 -0.00000000000E+00 -0.74505805969E-08  0.93827000000E+00  0.93827000000E+00 0. -1.
     999902    2    1    2    0    0 -0.13390044976E-01 -0.95387450043E-02  0.12296779819E-01  0.10233997356E+01  0.10231937877E+01 0.  0.
     999903    2    3    3    0    0 -0.10882069859E-01 -0.41915553592E-01 -0.12350580517E+00  0.13239081887E+00  0.19957753699E-01 0.  0.
         14    1    1    2    0    0  0.13390044976E-01  0.95387450043E-02 -0.12296779819E-01  0.20530264358E-01  0.00000000000E+00 0. -1.
     999901    1    3    3    0    0 -0.25079751172E-02  0.32376808588E-01  0.13580258499E+00  0.89100891677E+00  0.88000000000E+00 0.  1.
        -11    1    4    4    0    0 -0.12067298663E-01 -0.15412039303E-01 -0.36392603605E-01  0.41325940650E-01  0.51100000000E-03 0. -1.
         11    1    4    4    0    0  0.11852288042E-02 -0.26503514290E-01 -0.87113201568E-01  0.91064878221E-01  0.51100000000E-03 0.  1.
</event>
<event>
 8    1  0.1106168E+005  0.1043930E+01  0.7957747E-01            NaN
         13   -1    0    0    0    0  0.00000000000E+00  0.00000000000E+00  0.74505805969E-08  0.10566000000E+00  0.10566000000E+00 0. -1.
     999900   -1    0    0    0    0 -0.00000000000E+00 -0.00000000000E+00 -0.74505805969E-08  0.93827000000E+00  0.93827000000E+00 0.  1.
     999902    2    1    2    0    0 -0.14987536606E-01 -0.13067529027E-01  0.12361376788E-01  0.10205165380E+01  0.10202479179E+01 0.  0.
     999903    2    3    3    0    0  0.69300637814E-01  0.10597308356E+00  0.71508518455E-02  0.12849506212E+00  0.20663336316E-01 0.  0.
         14    1    1    2    0    0  0.14987536606E-01  0.13067529027E-01 -0.12361376788E-01  0.23413462035E-01  0.00000000000E+00 0.  1.
     999901    1    3    3    0    0 -0.84288174420E-01 -0.11904061259E+00  0.52105249427E-02  0.89202147584E+00  0.88000000000E+00 0. -1.
        -11    1    4    4    0    0  0.12962414692E-01  0.33807855553E-01 -0.32284915233E-02  0.36354911226E-01  0.51100000000E-03 0. -1.
         11    1    4    4    0    0  0.56338223122E-01  0.72165228005E-01  0.10379343369E-01  0.92140150897E-01  0.51100000000E-03 0.  1.
</event>
<event>
 8    1  0.1106168E+005  0.1043930E+01  0.7957747E-01            NaN
         13   -1    0    0    0    0  0.00000000000E+00  0.00000000000E+00  0.74505805969E-08  0.10566000000E+00  0.10566000000E+00 0.  1.
     999900   -1    0    0    0    0 -0.00000000000E+00 -0.00000000000E+00 -0.74505805969E-08  0.93827000000E+00  0.93827000000E+00 0. -1.
     999902    2    1    2    0    0  0.16746623666E-02  0.32879181237E-03 -0.23475932307E-01  0.10203921157E+01  0.10201205997E+01 0.  0.
     999903    2    3    3    0    0  0.81401260342E-01 -0.95238080739E-01  0.30839754742E-01  0.12997673434E+00  0.15697254220E-01 0.  0.
         14    1    1    2    0    0 -0.16746623666E-02 -0.32879181237E-03  0.23475932307E-01  0.23537884268E-01  0.00000000000E+00 0.  1.
     999901    1    3    3    0    0 -0.79726597975E-01  0.95566872551E-01 -0.54315687049E-01  0.89041538139E+00  0.88000000000E+00 0.  1.
        -11    1    4    4    0    0  0.25878220351E-01 -0.34153200156E-01  0.34069126669E-02  0.42988272172E-01  0.51100000000E-03 0. -1.
         11    1    4    4    0    0  0.55523039991E-01 -0.61084880583E-01  0.27432842075E-01  0.86988462172E-01  0.51100000000E-03 0.  1.
</event>
<event>
 8    1  0.1106168E+005  0.1043930E+01  0.7957747E-01            NaN
         13   -1    0    0    0    0  0.00000000000E+00  0.00000000000E+00  0.74505805969E-08  0.10566000000E+00  0.10566000000E+00 0. -1.
     999900   -1    0    0    0    0 -0.00000000000E+00 -0.00000000000E+00 -0.74505805969E-08  0.93827000000E+00  0.93827000000E+00 0. -1.
     999902    2    1    2    0    0 -0.55631115621E-02  0.55293527789E-02 -0.21374670169E-01  0.10211616343E+01  0.10209077749E+01 0.  0.
     999903    2    3    3    0    0  0.68216662354E-02  0.16279296181E-01  0.12625133125E+00  0.12871422390E+00  0.17787697421E-01 0.  0.
         14    1    1    2    0    0  0.55631115621E-02 -0.55293527789E-02  0.21374670169E-01  0.22768365713E-01  0.00000000000E+00 0. -1.
     999901    1    3    3    0    0 -0.12384777798E-01 -0.10749943402E-01 -0.14762600142E+00  0.89244741038E+00  0.88000000000E+00 0. -1.
        -11    1    4    4    0    0  0.10907226432E-01  0.37729695618E-02  0.48576665007E-01  0.49931517021E-01  0.51100000000E-03 0.  1.
         11    1    4    4    0    0 -0.40855601969E-02  0.12506326619E-01  0.77674666239E-01  0.78782706884E-01  0.51100000000E-03 0. -1.
</event>
<event>
 8    1  0.1106168E+005  0.1043930E+01  0.7957747E-01            NaN
         13   -1    0    0    0    0  0.00000000000E+00  0.00000000000E+00  0.74505805969E-08  0.10566000000E+00  0.10566000000E+00 0.  1.
     999900   -1    0    0    0    0 -0.00000000000E+00 -0.00000000000E+00 -0.74505805969E-08  0.93827000000E+00  0.93827000000E+00 0.  1.
     999902    2    1    2    0    0  0.21488948310E-01 -0.10587671982E-01  0.23581416424E-02  0.10198585536E+01  0.10195744381E+01 0.  0.
     999903    2    3    3    0    0  0.64878846973E-01  0.45166672747E-01 -0.10236188757E+00  0.13083801689E+00  0.19782252802E-01 0.  0.
         14    1    1    2    0    0 -0.21488948310E-01  0.10587671982E-01 -0.23581416424E-02  0.24071446351E-01  0.00000000000E+00 0. -1.
     999901    1    3    3    0    0 -0.43389898664E-01 -0.55754344729E-01  0.10472002921E+00  0.88902053676E+00  0.88000000000E+00 0. -1.
        -11    1    4    4    0    0  0.33325775460E-01  0.23751975614E-01 -0.37047300230E-01  0.55204413147E-01  0.51100000000E-03 0. -1.
         11    1    4    4    0    0  0.31553071513E-01  0.21414697134E-01 -0.65314587336E-01  0.75633603742E-01  0.51100000000E-03 0.  1.
</event>
<event>
 8    1  0.1106168E+005  0.1043930E+01  0.7957747E-01            NaN
         13   -1    0    0    0    0  0.00000000000E+00  0.00000000000E+00  0.74505805969E-08  0.10566000000E+00  0.10566000000E+00 0.  1.
     999900   -1    0    0    0    0 -0.00000000000E+00 -0.00000000000E+00 -0.74505805969E-08  0.93827000000E+00  0.93827000000E+00 0.  1.
     999902    2    1    2    0    0 -0.46096491638E-02  0.44653023288E-02  0.22473895532E-01  0.10205577136E+01  0.10202900485E+01 0.  0.
     999903    2    3    3    0    0 -0.60693019169E-01 -0.10989673985E+00 -0.27277943451E-01  0.12999650485E+00  0.19851172974E-01 0.  0.
         14    1    1    2    0    0  0.46096491638E-02 -0.44653023288E-02 -0.22473895532E-01  0.23372286381E-01  0.00000000000E+00 0. -1.
     999901    1    3    3    0    0  0.56083370006E-01  0.11436204218E+00  0.49751838982E-01  0.89056120877E+00  0.88000000000E+00 0. -1.
        -11    1    4    4    0    0 -0.52763892785E-01 -0.90543777911E-01 -0.29730062560E-01  0.10893273999E+00  0.51100000000E-03 0. -1.
         11    1    4    4    0    0 -0.79291263844E-02 -0.19352961940E-01  0.24521191090E-02  0.21063764863E-01  0.51100000000E-03 0.  1.
</event>
<event>
 8    1  0.1106168E+005  0.1043930E+01  0.7957747E-01            NaN
         13   -1    0    0    0    0  0.00000000000E+00  0.00000000000E+00  0.74505805969E-08  0.10566000000E+00  0.10566000000E+00 0.  1.
     999900   -1    0    0    0    0 -0.00000000000E+00 -0.00000000000E+00 -0.74505805969E-08  0.93827000000E+00  0.93827000000E+00 0.  1.
     999902    2    1    2    0    0 -0.23907120149E-01 -0.22780610919E-02  0.54741853066E-02  0.10192985839E+01  0.10190009305E+01 0.  0.
     999903    2    3    3    0    0  0.78998326157E-01 -0.72149270214E-01 -0.66887683567E-01  0.12761043388E+00  0.19084231585E-01 0.  0.
         14    1    1    2    0    0  0.23907120149E-01  0.22780610919E-02 -0.54741853066E-02  0.24631416138E-01  0.00000000000E+00 0.  1.
     999901    1    3    3    0    0 -0.10290544631E+00  0.69871209123E-01  0.72361868874E-01  0.89168814998E+00  0.88000000000E+00 0. -1.
        -11    1    4    4    0    0  0.31070729255E-01 -0.32163495302E-01 -0.17536007220E-01  0.48038040309E-01  0.51100000000E-03 0.  1.
         11    1    4    4    0    0  0.47927596902E-01 -0.39985774912E-01 -0.49351676347E-01  0.79572393576E-01  0.51100000000E-03 0. -1.
</event>
<event>
 8    1  0.1106168E+005  0.1043930E+01  0.7957747E-01            NaN
         13   -1    0    0    0    0  0.00000000000E+00  0.00000000000E+00  0.74505805969E-08  0.10566000000E+00  0.10566000000E+00 0. -1.
     999900   -1    0    0    0    0 -0.00000000000E+00 -0.00000000000E+00 -0.74505805969E-08  0.93827000000E+00  0.93827000000E+00 0. -1.
     999902    2    1    2    0    0  0.20671133591E-01 -0.83076269904E-02 -0.16049926994E-01  0.10164725313E+01  0.10161016161E+01 0.  0.
     999903    2    3    3    0    0 -0.10937207942E+00 -0.27158819663E-01 -0.52570994820E-01  0.12596683615E+00  0.20101767883E-01 0.  0.
         14    1    1    2    0    0 -0.20671133591E-01  0.83076269904E-02  0.16049926994E-01  0.27457468686E-01  0.00000000000E+00 0. -1.
     999901    1    3    3    0    0  0.13004321301E+00  0.18851192672E-01  0.36521067826E-01  0.89050569516E+00  0.88000000000E+00 0.  1.
        -11    1    4    4    0    0 -0.24086923997E-01 -0.32323989145E-02 -0.20374522498E-01  0.31717670129E-01  0.51100000000E-03 0. -1.
         11    1    4    4    0    0 -0.85285155424E-01 -0.23926420748E-01 -0.32196472322E-01  0.94249166025E-01  0.51100000000E-03 0.  1.
</event>
<event>
 8    1  0.1106168E+005  0.1043930E+01  0.7957747E-01            NaN
         13   -1    0    0    0    0  0.00000000000E+00  0.00000000000E+00  0.74505805969E-08  0.10566000000E+00  0.10566000000E+00 0. -1.
     999900   -1    0    0    0    0 -0.00000000000E+00 -0.00000000000E+00 -0.74505805969E-08  0.93827000000E+00  0.93827000000E+00 0. -1.
     999902    2    1    2    0    0  0.14064392514E-01 -0.80875250052E-02  0.23760666747E-01  0.10151587560E+01  0.10147509622E+01 0.  0.
     999903    2    3    3    0    0  0.67802255057E-01  0.96107054098E-01  0.43836128756E-01  0.12715690219E+00  0.20336173469E-01 0.  0.
         14    1    1    2    0    0 -0.14064392514E-01  0.80875250052E-02 -0.23760666747E-01  0.28771244008E-01  0.00000000000E+00 0. -1.
     999901    1    3    3    0    0 -0.53737862543E-01 -0.10419457910E+00 -0.20075462009E-01  0.88800185380E+00  0.88000000000E+00 0. -1.
        -11    1    4    4    0    0  0.61966140608E-01  0.92215107951E-01  0.36379691035E-01  0.11690667969E+00  0.51100000000E-03 0. -1.
         11    1    4    4    0    0  0.58361144488E-02  0.38919461468E-02  0.74564377215E-02  0.10250222493E-01  0.51100000000E-03 0.  1.
</event>
<event>
 8    1  0.1106168E+005  0.1043930E+01  0.7957747E-01            NaN
         13   -1    0    0    0    0  0.00000000000E+00  0.00000000000E+00  0.74505805969E-08  0.10566000000E+00  0.10566000000E+00 0.  1.
     999900   -1    0    0    0    0 -0.00000000000E+00 -0.00000000000E+00 -0.74505805969E-08  0.93827000000E+00  0.93827000000E+00 0. -1.
     999902    2    1    2    0    0  0.15219961366E-01  0.17684439572E-01 -0.16640344726E-02  0.10205386418E+01  0.10202705346E+01 0.  0.
     999903    2    3    3    0    0  0.12494309794E+00  0.26695421510E-01  0.30980917409E-01  0.13307818784E+00  0.20653415714E-01 0.  0.
         14    1    1    2    0    0 -0.15219961366E-01 -0.17684439572E-01  0.16640344726E-02  0.23391358184E-01  0.00000000000E+00 0.  1.
     999901    1    3    3    0    0 -0.10972313658E+00 -0.90109819373E-02 -0.32644951881E-01  0.88746045398E+00  0.88000000000E+00 0. -1.
        -11    1    4    4    0    0  0.38484209107E-01  0.15256459187E-01  0.16979024270E-01  0.44747539414E-01  0.51100000000E-03 0.  1.
         11    1    4    4    0    0  0.86458888837E-01  0.11438962323E-01  0.14001893139E-01  0.88330648421E-01  0.51100000000E-03 0. -1.
</event>
<event>
 8    1  0.1106168E+005  0.1043930E+01  0.7957747E-01            NaN
         13   -1    0    0    0    0  0.00000000000E+00  0.00000000000E+00  0.74505805969E-08  0.10566000000E+00  0.10566000000E+00 0.  1.
     999900   -1    0    0    0    0 -0.00000000000E+00 -0.00000000000E+00 -0.74505805969E-08  0.93827000000E+00  0.93827000000E+00 0. -1.
     999902    2    1    2    0    0 -0.18704524897E-01 -0.71649264298E-02 -0.21224505682E-01  0.10147465276E+01  0.10143267916E+01 0.  0.
     999903    2    3    3    0    0  0.83139038412E-01  0.79910140045E-01  0.36449004600E-01  0.12273732784E+00  0.20933024608E-01 0.  0.
         14    1    1    2    0    0  0.18704524897E-01  0.71649264298E-02  0.21224505682E-01  0.29183472443E-01  0.00000000000E+00 0.  1.
     999901    1    3    3    0    0 -0.10184356331E+00 -0.87075066475E-01 -0.57673510282E-01  0.89200919972E+00  0.88000000000E+00 0. -1.
        -11    1    4    4    0    0  0.83165571459E-01  0.74173874676E-01  0.34473177895E-01  0.11664877657E+00  0.51100000000E-03 0. -1.
         11    1    4    4    0    0 -0.26533047596E-04  0.57362653692E-02  0.19758267057E-02  0.60885512693E-02  0.51100000000E-03 0.  1.
</event>
<event>
 8    1  0.1106168E+005  0.1043930E+01  0.7957747E-01            NaN
         13   -1    0    0    0    0  0.00000000000E+00  0.00000000000E+00  0.74505805969E-08  0.10566000000E+00  0.10566000000E+00 0.  1.
     999900   -1    0    0    0    0 -0.00000000000E+00 -0.00000000000E+00 -0.74505805969E-08  0.93827000000E+00  0.93827000000E+00 0.  1.
     999902    2    1    2    0    0  0.72469762437E-02  0.12729923610E-01 -0.20114196007E-01  0.10190472650E+01  0.10187434308E+01 0.  0.
     999903    2    3    3    0    0  0.60055092054E-01  0.98963209888E-02  0.11063052220E+00  0.12781726790E+00  0.19839109910E-01 0.  0.
         14    1    1    2    0    0 -0.72469762437E-02 -0.12729923610E-01  0.20114196007E-01  0.24882734995E-01  0.00000000000E+00 0.  1.
     999901    1    3    3    0    0 -0.52808115810E-01  0.28336026217E-02 -0.13074471820E+00  0.89122999710E+00  0.88000000000E+00 0.  1.
        -11    1    4    4    0    0  0.30673570480E-01  0.13461155473E-01  0.69378332355E-01  0.77043395266E-01  0.51100000000E-03 0. -1.
         11    1    4    4    0    0  0.29381521574E-01 -0.35648344837E-02  0.41252189840E-01  0.50773872636E-01  0.51100000000E-03 0.  1.
</event>
<event>
 8    1  0.1106168E+005  0.1043930E+01  0.7957747E-01            NaN
         13   -1    0    0    0    0  0.00000000000E+00  0.00000000000E+00  0.74505805969E-08  0.10566000000E+00  0.10566000000E+00 0. -1.
     999900   -1    0    0    0    0 -0.00000000000E+00 -0.00000000000E+00 -0.74505805969E-08  0.93827000000E+00  0.93827000000E+00 0.  1.
     999902    2    1    2    0    0  0.16305487989E-01  0.63513112141E-02 -0.15697231308E-01  0.10204223169E+01  0.10201515053E+01 0.  0.
     999903    2    3    3    0    0 -0.90168156942E-01 -0.21130368519E-01 -0.89438933616E-01  0.13051798586E+00  0.21420382528E-01 0.  0.
         14    1    1    2    0    0 -0.16305487989E-01 -0.63513112141E-02  0.15697231308E-01  0.23507683072E-01  0.00000000000E+00 0. -1.
     999901    1    3    3    0    0  0.10647364493E+00  0.27481679733E-01  0.73741702308E-01  0.88990433106E+00  0.88000000000E+00 0. -1.
        -11    1    4    4    0    0 -0.48934020582E-01 -0.35359411532E-02 -0.56829435257E-01  0.75079205395E-01  0.51100000000E-03 0. -1.
         11    1    4    4    0    0 -0.41234136359E-01 -0.17594427366E-01 -0.32609498360E-01  0.55438780469E-01  0.51100000000E-03 0.  1.
</event>
<event>
 8    1  0.1106168E+005  0.1043930E+01  0.7957747E-01            NaN
         13   -1    0    0    0    0  0.00000000000E+00  0.00000000000E+00  0.74505805969E-08  0.10566000000E+00  0.10566000000E+00 0. -1.
     999900   -1    0    0    0    0 -0.00000000000E+00 -0.00000000000E+00 -0.74505805969E-08  0.93827000000E+00  0.93827000000E+00 0.  1.
     999902    2    1    2    0    0  0.67835352995E-02 -0.48224988731E-02 -0.23068228488E-01  0.10194062154E+01  0.10191111892E+01 0.  0.
     999903    2    3    3    0    0 -0.92914351057E-01 -0.61824902916E-01 -0.65576357547E-01  0.13092668064E+00  0.19650490631E-01 0.  0.
         14    1    1    2    0    0 -0.67835352995E-02  0.48224988731E-02  0.23068228488E-01  0.24523784620E-01  0.00000000000E+00 0. -1.
     999901    1    3    3    0    0  0.99697886357E-01  0.57002404042E-01  0.42508129060E-01  0.88847953474E+00  0.88000000000E+00 0. -1.
        -11    1    4    4    0    0 -0.68939204806E-01 -0.39517828773E-01 -0.37864273790E-01  0.88024071145E-01  0.51100000000E-03 0.  1.
         11    1    4    4    0    0 -0.23975146251E-01 -0.22307074142E-01 -0.27712083757E-01  0.42902609498E-01  0.51100000000E-03 0. -1.
</event>
<event>
 8    1  0.1106168E+005  0.1043930E+01  0.7957747E-01            NaN
         13   -1    0    0    0    0  0.00000000000E+00  0.00000000000E+00  0.74505805969E-08  0.10566000000E+00  0.10566000000E+00 0.  1.
     999900   -1    0    0    0    0 -0.00000000000E+00 -0.00000000000E+00 -0.74505805969E-08  0.93827000000E+00  0.93827000000E+00 0.  1.
     999902    2    1    2    0    0  0.21161834476E-01 -0.22417014049E-02 -0.10241433941E-01  0.10203135771E+01  0.10200402247E+01 0.  0.
     999903    2    3    3    0    0  0.92542648681E-01  0.83879536578E-01  0.38402354104E-01  0.13190021246E+00  0.17972388980E-01 0.  0.
         14    1    1    2    0    0 -0.21161834476E-01  0.22417014049E-02  0.10241433941E-01  0.23616422946E-01  0.00000000000E+00 0. -1.
     999901    1    3    3    0    0 -0.71380814205E-01 -0.86121237983E-01 -0.48643788045E-01  0.88841336459E+00  0.88000000000E+00 0. -1.
        -11    1    4    4    0    0  0.34821461470E-01  0.22373737133E-01  0.74967362860E-02  0.42066381685E-01  0.51100000000E-03 0.  1.
         11    1    4    4    0    0  0.57721187212E-01  0.61505799446E-01  0.30905617818E-01  0.89833830778E-01  0.51100000000E-03 0. -1.
</event>
<event>
 8    1  0.1106168E+005  0.1043930E+01  0.7957747E-01            NaN
         13   -1    0    0    0    0  0.00000000000E+00  0.00000000000E+00  0.74505805969E-08  0.10566000000E+00  0.10566000000E+00 0.  1.
     999900   -1    0    0    0    0 -0.00000000000E+00 -0.00000000000E+00 -0.74505805969E-08  0.93827000000E+00  0.93827000000E+00 0.  1.
     999902    2    1    2    0    0  0.46992278210E-02  0.20587365427E-01  0.84785380711E-02  0.10211746058E+01  0.10209210389E+01 0.  0.
     999903    2    3    3    0    0  0.62924619157E-01 -0.49663811047E-01 -0.10019467212E+00  0.12980751498E+00  0.19621844954E-01 0.  0.
         14    1    1    2    0    0 -0.46992278210E-02 -0.20587365427E-01 -0.84785380711E-02  0.22755394199E-01  0.00000000000E+00 0.  1.
     999901    1    3    3    0    0 -0.58225391336E-01  0.70251176474E-01  0.10867321019E+00  0.89136709082E+00  0.88000000000E+00 0. -1.
        -11    1    4    4    0    0  0.40931907168E-02  0.10147862420E-02 -0.95371208264E-02  0.10440392522E-01  0.51100000000E-03 0.  1.
         11    1    4    4    0    0  0.58831428440E-01 -0.50678597289E-01 -0.90657551293E-01  0.11936712245E+00  0.51100000000E-03 0. -1.
</event>
<event>
 8    1  0.1106168E+005  0.1043930E+01  0.7957747E-01            NaN
         13   -1    0    0    0    0  0.00000000000E+00  0.00000000000E+00  0.74505805969E-08  0.10566000000E+00  0.10566000000E+00 0. -1.
     999900   -1    0    0    0    0 -0.00000000000E+00 -0.00000000000E+00 -0.74505805969E-08  0.93827000000E+00  0.93827000000E+00 0. -1.
     999902    2    1    2    0    0  0.20056373386E-01  0.12875359301E-01 -0.47554797329E-02  0.10196267579E+01  0.10193370776E+01 0.  0.
     999903    2    3    3    0    0  0.52762073274E-01  0.10524028937E+00 -0.57662190462E-01  0.13260924781E+00  0.20023224351E-01 0.  0.
         14    1    1    2    0    0 -0.20056373386E-01 -0.12875359301E-01  0.47554797329E-02  0.24303242130E-01  0.00000000000E+00 0. -1.
     999901    1    3    3    0    0 -0.32705699888E-01 -0.92364930068E-01  0.52906710729E-01  0.88701751006E+00  0.88000000000E+00 0.  1.
        -11    1    4    4    0    0  0.11797084578E-01  0.35163585280E-01 -0.26821326090E-01  0.45774376986E-01  0.51100000000E-03 0. -1.
         11    1    4    4    0    0  0.40964988696E-01  0.70076704089E-01 -0.30840864372E-01  0.86834870825E-01  0.51100000000E-03 0.  1.
</event>
<event>
 8    1  0.1106168E+005  0.1043930E+01  0.7957747E-01            NaN
         13   -1    0    0    0    0  0.00000000000E+00  0.00000000000E+00  0.74505805969E-08  0.10566000000E+00  0.10566000000E+00 0.  1.
     999900   -1    0    0    0    0 -0.00000000000E+00 -0.00000000000E+00 -0.74505805969E-08  0.93827000000E+00  0.93827000000E+00 0. -1.
     999902    2    1    2    0    0 -0.19376882315E-01 -0.60980333544E-02  0.12618982754E-01  0.10200158137E+01  0.10197354421E+01 0.  0.
     999903    2    3    3    0    0 -0.11694814375E+00 -0.13237863929E-02  0.60886337825E-01  0.13329563123E+00  0.19543756938E-01 0.  0.
         14    1    1    2    0    0  0.19376882315E-01  0.60980333544E-02 -0.12618982754E-01  0.23914186266E-01  0.00000000000E+00 0. -1.
     999901    1    3    3    0    0  0.97571261433E-01 -0.47742469615E-02 -0.48267355071E-01  0.88672018250E+00  0.88000000000E+00 0. -1.
        -11    1    4    4    0    0 -0.85645163440E-01  0.32275610128E-03  0.53836327395E-01  0.10116229268E+00  0.51100000000E-03 0.  1.
         11    1    4    4    0    0 -0.31302980308E-01 -0.16465424942E-02  0.70500104302E-02  0.32133338551E-01  0.51100000000E-03 0. -1.
</event>
<event>
 8    1  0.1106168E+005  0.1043930E+01  0.7957747E-01            NaN
         13   -1    0    0    0    0  0.00000000000E+00  0.00000000000E+00  0.74505805969E-08  0.10566000000E+00  0.10566000000E+00 0.  1.
     999900   -1    0    0    0    0 -0.00000000000E+00 -0.00000000000E+00 -0.74505805969E-08  0.93827000000E+00  0.93827000000E+00 0.  1.
     999902    2    1    2    0    0 -0.97569632378E-02 -0.18424129372E-01  0.11496896992E-01  0.10201219023E+01  0.10198440420E+01 0.  0.
     999903    2    3    3    0    0  0.84443376041E-01 -0.50295577908E-02 -0.95207943471E-01  0.12858444296E+00  0.17703848785E-01 0.  0.
         14    1    1    2    0    0  0.97569632378E-02  0.18424129372E-01 -0.11496896992E-01  0.23808097681E-01  0.00000000000E+00 0. -1.
     999901    1    3    3    0    0 -0.94200339279E-01 -0.13394571581E-01  0.10670484046E+00  0.89153745936E+00  0.88000000000E+00 0. -1.
        -11    1    4    4    0    0  0.18502877253E-01 -0.49921123019E-02 -0.31617456609E-01  0.36975699254E-01  0.51100000000E-03 0.  1.
         11    1    4    4    0    0  0.65940498787E-01 -0.37445488896E-04 -0.63590486862E-01  0.91608743703E-01  0.51100000000E-03 0. -1.
</event>
<event>
 8    1  0.1106168E+005  0.1043930E+01  0.7957747E-01            NaN
         13   -1    0    0    0    0  0.00000000000E+00  0.00000000000E+00  0.74505805969E-08  0.10566000000E+00  0.10566000000E+00 0. -1.
     999900   -1    0    0    0    0 -0.00000000000E+00 -0.00000000000E+00 -0.74505805969E-08  0.93827000000E+00  0.93827000000E+00 0.  1.
     999902    2    1    2    0    0  0.18790611009E-01  0.11846934743E-01  0.79893566748E-02  0.10203235021E+01  0.10200503821E+01 0.  0.
     999903    2    3    3    0    0  0.49268365462E-01 -0.47842974647E-01 -0.10857601052E+00  0.13011045811E+00  0.20582983034E-01 0.  0.
         14    1    1    2    0    0 -0.18790611009E-01 -0.11846934743E-01 -0.79893566748E-02  0.23606497939E-01  0.00000000000E+00 0.  1.
     999901    1    3    3    0    0 -0.30477754453E-01  0.59689909390E-01  0.11656536719E+00  0.89021304396E+00  0.88000000000E+00 0. -1.
        -11    1    4    4    0    0  0.31522411219E-02 -0.14330031527E-01 -0.22692641367E-01  0.27027828638E-01  0.51100000000E-03 0.  1.
         11    1    4    4    0    0  0.46116124340E-01 -0.33512943121E-01 -0.85883369148E-01  0.10308262947E+00  0.51100000000E-03 0. -1.
</event>
<event>
 8    1  0.1106168E+005  0.1043930E+01  0.7957747E-01            NaN
         13   -1    0    0    0    0  0.00000000000E+00  0.00000000000E+00  0.74505805969E-08  0.10566000000E+00  0.10566000000E+00 0.  1.
     999900   -1    0    0    0    0 -0.00000000000E+00 -0.00000000000E+00 -0.74505805969E-08  0.93827000000E+00  0.93827000000E+00 0. -1.
     999902    2    1    2    0    0  0.10007332103E-01 -0.16522504850E-01 -0.14080199928E-01  0.10200261950E+01  0.10197460697E+01 0.  0.
     999903    2    3    3    0    0 -0.15871738297E-01  0.44880793977E-01  0.11683499951E+00  0.12784970977E+00  0.20710708204E-01 0.  0.
         14    1    1    2    0    0 -0.10007332103E-01  0.16522504850E-01  0.14080199928E-01  0.23903804977E-01  0.00000000000E+00 0.  1.
     999901    1    3    3    0    0  0.25879070400E-01 -0.61403298827E-01 -0.13091519944E+00  0.89217648525E+00  0.88000000000E+00 0. -1.
        -11    1    4    4    0    0  0.42249137254E-02  0.30445752802E-02  0.83756102954E-02  0.98757938133E-02  0.51100000000E-03 0.  1.
         11    1    4    4    0    0 -0.20096652022E-01  0.41836218696E-01  0.10845938921E+00  0.11797391596E+00  0.51100000000E-03 0. -1.
</event>
<event>
 8    1  0.1106168E+005  0.1043930E+01  0.7957747E-01            NaN
         13   -1    0    0    0    0  0.00000000000E+00  0.00000000000E+00  0.74505805969E-08  0.10566000000E+00  0.10566000000E+00 0. -1.
     999900   -1    0    0    0    0 -0.00000000000E+00 -0.00000000000E+00 -0.74505805969E-08  0.93827000000E+00  0.93827000000E+00 0.  1.
     999902    2    1    2    0    0 -0.16907120956E-01 -0.89648900166E-02  0.14260055749E-01  0.10200643514E+01  0.10197851302E+01 0.  0.
     999903    2    3    3    0    0 -0.11684689235E+00 -0.41254689007E-01 -0.41215452606E-01  0.13208455376E+00  0.19810860484E-01 0.  0.
         14    1    1    2    0    0  0.16907120956E-01  0.89648900166E-02 -0.14260055749E-01  0.23865648577E-01  0.00000000000E+00 0.  1.
     999901    1    3    3    0    0  0.99939771391E-01  0.32289798991E-01  0.55475508354E-01  0.88797979766E+00  0.88000000000E+00 0. -1.
        -11    1    4    4    0    0 -0.46662209385E-01 -0.94878485936E-02 -0.23175363329E-01  0.52959792693E-01  0.51100000000E-03 0.  1.
         11    1    4    4    0    0 -0.70184682962E-01 -0.31766840414E-01 -0.18040089276E-01  0.79124761070E-01  0.51100000000E-03 0. -1.
</event>
<event>
 8    1  0.1106168E+005  0.1043930E+01  0.7957747E-01            NaN
         13   -1    0    0    0    0  0.00000000000E+00  0.00000000000E+00  0.74505805969E-08  0.10566000000E+00  0.10566000000E+00 0. -1.
     999900   -1    0    0    0    0 -0.00000000000E+00 -0.00000000000E+00 -0.74505805969E-08  0.93827000000E+00  0.93827000000E+00 0. -1.
     999902    2    1    2    0    0  0.16174960641E-01  0.32888503375E-02  0.17472351121E-01  0.10198940074E+01  0.10196107381E+01 0.  0.
     999903    2    3    3    0    0 -0.53770092313E-01  0.84969207161E-01 -0.77128848525E-01  0.12831485883E+00  0.20121002191E-01 0.  0.
         14    1    1    2    0    0 -0.16174960641E-01 -0.32888503375E-02 -0.17472351121E-01  0.24035992636E-01  0.00000000000E+00 0.  1.
     999901    1    3    3    0    0  0.69945052954E-01 -0.81680356824E-01  0.94601199646E-01  0.89157914853E+00  0.88000000000E+00 0. -1.
        -11    1    4    4    0    0 -0.72088928231E-02  0.28230734520E-01 -0.22566269866E-01  0.36857023265E-01  0.51100000000E-03 0.  1.
         11    1    4    4    0    0 -0.46561199490E-01  0.56738472641E-01 -0.54562578659E-01  0.91457835567E-01  0.51100000000E-03 0. -1.
</event>
<event>
 8    1  0.1106168E+005  0.1043930E+01  0.7957747E-01            NaN
         13   -1    0    0    0    0  0.00000000000E+00  0.00000000000E+00  0.74505805969E-08  0.10566000000E+00  0.10566000000E+00 0.  1.
     999900   -1    0    0    0    0 -0.00000000000E+00 -0.00000000000E+00 -0.74505805969E-08  0.93827000000E+00  0.93827000000E+00 0. -1.
     999902    2    1    2    0    0 -0.74627589250E-02  0.18096222233E-04  0.21449408004E-01  0.10212194253E+01  0.10209668675E+01 0.  0.
     999903    2    3    3    0    0 -0.12679677553E-01  0.97851683502E-01  0.87398315775E-01  0.13332985704E+00  0.20066364658E-01 0.  0.
         14    1    1    2    0    0  0.74627589250E-02 -0.18096222232E-04 -0.21449408004E-01  0.22710574673E-01  0.00000000000E+00 0. -1.
     999901    1    3    3    0    0  0.52169186278E-02 -0.97833587279E-01 -0.65948907770E-01  0.88788956829E+00  0.88000000000E+00 0. -1.
        -11    1    4    4    0    0 -0.87516713322E-02  0.25486019582E-01  0.14798412076E-01  0.30747082239E-01  0.51100000000E-03 0. -1.
         11    1    4    4    0    0 -0.39280062206E-02  0.72365663919E-01  0.72599903699E-01  0.10258277480E+00  0.51100000000E-03 0.  1.
</event>
<event>
 8    1  0.1106168E+005  0.1043930E+01  0.7957747E-01            NaN
         13   -1    0    0    0    0  0.00000000000E+00  0.00000000000E+00  0.74505805969E-08  0.10566000000E+00  0.10566000000E+00 0.  1.
     999900   -1    0    0    0    0 -0.00000000000E+00 -0.00000000000E+00 -0.74505805969E-08  0.93827000000E+00  0.93827000000E+00 0. -1.
     999902    2    1    2    0    0  0.25477409975E-02 -0.14153665545E-01  0.18989588741E-01  0.10201093847E+01  0.10198312287E+01 0.  0.
     999903    2    3    3    0    0  0.64634296799E-01  0.10264331422E+00 -0.37346986054E-01  0.12844235910E+00  0.19733219897E-01 0.  0.
         14    1    1    2    0    0 -0.25477409975E-02  0.14153665545E-01 -0.18989588741E-01  0.23820615296E-01  0.00000000000E+00 0. -1.
     999901    1    3    3    0    0 -0.62086555801E-01 -0.11679697976E+00  0.56336574795E-01  0.89166702561E+00  0.88000000000E+00 0. -1.
        -11    1    4    4    0    0  0.17037476970E-01  0.44351843520E-01 -0.11682303222E-01  0.48929530702E-01  0.51100000000E-03 0.  1.
         11    1    4    4    0    0  0.47596819829E-01  0.58291470695E-01 -0.25664682833E-01  0.79512828396E-01  0.51100000000E-03 0. -1.
</event>
<event>
 8    1  0.1106168E+005  0.1043930E+01  0.7957747E-01            NaN
         13   -1    0    0    0    0  0.00000000000E+00  0.00000000000E+00  0.74505805969E-08  0.10566000000E+00  0.10566000000E+00 0. -1.
     999900   -1    0    0    0    0 -0.00000000000E+00 -0.00000000000E+00 -0.74505805969E-08  0.93827000000E+00  0.93827000000E+00 0.  1.
     999902    2    1    2    0    0 -0.22284980063E-01  0.28170832351E-02  0.69056937482E-02  0.10204301085E+01  0.10201594784E+01 0.  0.
     999903    2    3    3    0    0  0.89991116865E-01 -0.71455520182E-01  0.54774627855E-01  0.12890681861E+00  0.20308016864E-01 0.  0.
         14    1    1    2    0    0  0.22284980063E-01 -0.28170832351E-02 -0.69056937482E-02  0.23499891500E-01  0.00000000000E+00 0. -1.
     999901    1    3    3    0    0 -0.11227609693E+00  0.74272603418E-01 -0.47868934107E-01  0.89152328989E+00  0.88000000000E+00 0. -1.
        -11    1    4    4    0    0  0.61142095968E-01 -0.44638167886E-01  0.45884806976E-01  0.88524564748E-01  0.51100000000E-03 0.  1.
         11    1    4    4    0    0  0.28849020896E-01 -0.26817352297E-01  0.88898208790E-02  0.40382253864E-01  0.51100000000E-03 0. -1.
</event>
<event>
 8    1  0.1106168E+005  0.1043930E+01  0.7957747E-01            NaN
         13   -1    0    0    0    0  0.00000000000E+00  0.00000000000E+00  0.74505805969E-08  0.10566000000E+00  0.10566000000E+00 0. -1.
     999900   -1    0    0    0    0 -0.00000000000E+00 -0.00000000000E+00 -0.74505805969E-08  0.93827000000E+00  0.93827000000E+00 0.  1.
     999902    2    1    2    0    0 -0.66016634571E-02  0.13646980058E-01 -0.17695211474E-01  0.10206288727E+01  0.10203628537E+01 0.  0.
     999903    2    3    3    0    0 -0.96743120847E-01 -0.81860811384E-01 -0.24902420319E-01  0.13085408970E+00  0.21029464635E-01 0.  0.
         14    1    1    2    0    0  0.66016634571E-02 -0.13646980058E-01  0.17695211474E-01  0.23301127317E-01  0.00000000000E+00 0.  1.
     999901    1    3    3    0    0  0.90141457390E-01  0.95507791442E-01  0.72072088454E-02  0.88977478298E+00  0.88000000000E+00 0. -1.
        -11    1    4    4    0    0 -0.15480816339E-01 -0.48598382705E-02 -0.32382057440E-03  0.16236985043E-01  0.51100000000E-03 0.  1.
         11    1    4    4    0    0 -0.81262304509E-01 -0.77000973113E-01 -0.24578599745E-01  0.11461710466E+00  0.51100000000E-03 0. -1.
</event>
<event>
 8    1  0.1106168E+005  0.1043930E+01  0.7957747E-01            NaN
         13   -1    0    0    0    0  0.00000000000E+00  0.00000000000E+00  0.74505805969E-08  0.10566000000E+00  0.10566000000E+00 0. -1.
     999900   -1    0    0    0    0 -0.00000000000E+00 -0.00000000000E+00 -0.74505805969E-08  0.93827000000E+00  0.93827000000E+00 0. -1.
     999902    2    1    2    0    0 -0.22753090721E-01 -0.39898054043E-02  0.48621267519E-02  0.10203236034E+01  0.10200504858E+01 0.  0.
     999903    2    3    3    0    0 -0.63251126279E-01  0.69043033549E-01 -0.90418129701E-01  0.13124980796E+00  0.16835333470E-01 0.  0.
         14    1    1    2    0    0  0.22753090721E-01  0.39898054043E-02 -0.48621267519E-02  0.23606396613E-01  0.00000000000E+00 0.  1.
     999901    1    3    3    0    0  0.40498035558E-01 -0.73032838953E-01  0.95280256453E-01  0.88907379543E+00  0.88000000000E+00 0.  1.
        -11    1    4    4    0    0 -0.62580172424E-01  0.68958172505E-01 -0.86025050271E-01  0.12677569929E+00  0.51100000000E-03 0.  1.
         11    1    4    4    0    0 -0.67095385432E-03  0.84861044205E-04 -0.43930794299E-02  0.44741086653E-02  0.51100000000E-03 0. -1.
</event>
<event>
 8    1  0.1106168E+005  0.1043930E+01  0.7957747E-01            NaN
         13   -1    0    0    0    0  0.00000000000E+00  0.00000000000E+00  0.74505805969E-08  0.10566000000E+00  0.10566000000E+00 0. -1.
     999900   -1    0    0    0    0 -0.00000000000E+00 -0.00000000000E+00 -0.74505805969E-08  0.93827000000E+00  0.93827000000E+00 0. -1.
     999902    2    1    2    0    0  0.46382790377E-02 -0.19475218099E-01 -0.12521970503E-01  0.10203164976E+01  0.10200432136E+01 0.  0.
     999903    2    3    3    0    0 -0.70804051787E-01  0.41633947153E-01 -0.99613622600E-01  0.13070375528E+00  0.20346953850E-01 0.  0.
         14    1    1    2    0    0 -0.46382790377E-02  0.19475218099E-01  0.12521970503E-01  0.23613502445E-01  0.00000000000E+00 0. -1.
     999901    1    3    3    0    0  0.75442330825E-01 -0.61109165253E-01  0.87091652097E-01  0.88961274228E+00  0.88000000000E+00 0.  1.
        -11    1    4    4    0    0 -0.57004830548E-01  0.39574558091E-01 -0.90444222717E-01  0.11400050394E+00  0.51100000000E-03 0. -1.
         11    1    4    4    0    0 -0.13799221240E-01  0.20593890621E-02 -0.91693998826E-02  0.16703251340E-01  0.51100000000E-03 0.  1.
</event>
<event>
 8    1  0.1106168E+005  0.1043930E+01  0.7957747E-01            NaN
         13   -1    0    0    0    0  0.00000000000E+00  0.00000000000E+00  0.74505805969E-08  0.10566000000E+00  0.10566000000E+00 0. -1.
     999900   -1    0    0    0    0 -0.00000000000E+00 -0.00000000000E+00 -0.74505805969E-08  0.93827000000E+00  0.93827000000E+00 0.  1.
     999902    2    1    2    0    0 -0.88943412776E-02 -0.16273903108E-02 -0.22753227382E-01  0.10194459835E+01  0.10191519250E+01 0.  0.
     999903    2    3    3    0    0  0.86631511888E-01 -0.70089391066E-01 -0.65281850780E-01  0.13061477460E+00  0.19518137979E-01 0.  0.
         14    1    1    2    0    0  0.88943412776E-02  0.16273903108E-02  0.22753227382E-01  0.24484016466E-01  0.00000000000E+00 0. -1.
     999901    1    3    3    0    0 -0.95525853166E-01  0.68462000755E-01  0.42528623397E-01  0.88883120894E+00  0.88000000000E+00 0. -1.
        -11    1    4    4    0    0  0.20389559944E-01 -0.25351926845E-01 -0.25426280016E-01  0.41294202813E-01  0.51100000000E-03 0. -1.
         11    1    4    4    0    0  0.66241951944E-01 -0.44737464221E-01 -0.39855570763E-01  0.89320571786E-01  0.51100000000E-03 0.  1.
</event>
<event>
 8    1  0.1106168E+005  0.1043930E+01  0.7957747E-01            NaN
         13   -1    0    0    0    0  0.00000000000E+00  0.00000000000E+00  0.74505805969E-08  0.10566000000E+00  0.10566000000E+00 0. -1.
     999900   -1    0    0    0    0 -0.00000000000E+00 -0.00000000000E+00 -0.74505805969E-08  0.93827000000E+00  0.93827000000E+00 0. -1.
     999902    2    1    2    0    0 -0.14812690482E-01  0.12005686064E-01 -0.12578694152E-01  0.10210875867E+01  0.10208320547E+01 0.  0.
     999903    2    3    3    0    0 -0.60535229684E-01  0.97344176914E-01  0.63176912713E-01  0.13254264100E+00  0.20876459769E-01 0.  0.
         14    1    1    2    0    0  0.14812690482E-01 -0.12005686064E-01  0.12578694152E-01  0.22842413265E-01  0.00000000000E+00 0. -1.
     999901    1    3    3    0    0  0.45722539202E-01 -0.85338490850E-01 -0.75755606865E-01  0.88854494573E+00  0.88000000000E+00 0. -1.
        -11    1    4    4    0    0 -0.57842325880E-01  0.88346007634E-01  0.63334064536E-01  0.12313495271E+00  0.51100000000E-03 0.  1.
         11    1    4    4    0    0 -0.26929038040E-02  0.89981692800E-02 -0.15715182255E-03  0.94076882912E-02  0.51100000000E-03 0. -1.
</event>
<event>
 8    1  0.1106168E+005  0.1043930E+01  0.7957747E-01            NaN
         13   -1    0    0    0    0  0.00000000000E+00  0.00000000000E+00  0.74505805969E-08  0.10566000000E+00  0.10566000000E+00 0. -1.
     999900   -1    0    0    0    0 -0.00000000000E+00 -0.00000000000E+00 -0.74505805969E-08  0.93827000000E+00  0.93827000000E+00 0.  1.
     999902    2    1    2    0    0 -0.24111581909E-01  0.89183914654E-02  0.19356924933E-02  0.10181491351E+01  0.10178226802E+01 0.  0.
     999903    2    3    3    0    0 -0.43340376074E-02 -0.69106955508E-01  0.10613413142E+00  0.12835341660E+00  0.20386037339E-01 0.  0.
         14    1    1    2    0    0  0.24111581909E-01 -0.89183914654E-02 -0.19356924933E-02  0.25780864879E-01  0.00000000000E+00 0.  1.
     999901    1    3    3    0    0 -0.19777544301E-01  0.78025346973E-01 -0.10419843893E+00  0.88979571852E+00  0.88000000000E+00 0.  1.
        -11    1    4    4    0    0 -0.83130024084E-03 -0.75773828696E-02  0.26945886410E-01  0.28008029324E-01  0.51100000000E-03 0.  1.
         11    1    4    4    0    0 -0.35027373666E-02 -0.61529572638E-01  0.79188245011E-01  0.10034538727E+00  0.51100000000E-03 0. -1.
</event>
<event>
 8    1  0.1106168E+005  0.1043930E+01  0.7957747E-01            NaN
         13   -1    0    0    0    0  0.00000000000E+00  0.00000000000E+00  0.74505805969E-08  0.10566000000E+00  0.10566000000E+00 0. -1.
     999900   -1    0    0    0    0 -0.00000000000E+00 -0.00000000000E+00 -0.74505805969E-08  0.93827000000E+00  0.93827000000E+00 0. -1.
     999902    2    1    2    0    0 -0.13457960536E-01 -0.20012518543E-01  0.41047828458E-02  0.10194664180E+01  0.10191728561E+01 0.  0.
     999903    2    3    3    0    0  0.10914513784E+00  0.60575911016E-01  0.14197947180E-01  0.12726246900E+00  0.20299069009E-01 0.  0.
         14    1    1    2    0    0  0.13457960536E-01  0.20012518543E-01 -0.41047828458E-02  0.24463581962E-01  0.00000000000E+00 0. -1.
     999901    1    3    3    0    0 -0.12260309838E+00 -0.80588429559E-01 -0.10093164334E-01  0.89220394904E+00  0.88000000000E+00 0. -1.
        -11    1    4    4    0    0  0.50967642300E-01  0.38553352440E-01  0.24573063635E-02  0.63955930308E-01  0.51100000000E-03 0.  1.
         11    1    4    4    0    0  0.58177495540E-01  0.22022558576E-01  0.11740640816E-01  0.63306538693E-01  0.51100000000E-03 0. -1.
</event>
<event>
 8    1  0.1106168E+005  0.1043930E+01  0.7957747E-01            NaN
         13   -1    0    0    0    0  0.00000000000E+00  0.00000000000E+00  0.74505805969E-08  0.10566000000E+00  0.10566000000E+00 0.  1.
     999900   -1    0    0    0    0 -0.00000000000E+00 -0.00000000000E+00 -0.74505805969E-08  0.93827000000E+00  0.93827000000E+00 0.  1.
     999902    2    1    2    0    0 -0.31241038016E-01 -0.72070063397E-02 -0.58380450057E-02  0.10113412571E+01  0.10108160624E+01 0.  0.
     999903    2    3    3    0    0  0.11274592146E+00  0.17843099386E-01 -0.27229054150E-01  0.11903114978E+00  0.19924212056E-01 0.  0.
         14    1    1    2    0    0  0.31241038016E-01  0.72070063397E-02  0.58380450057E-02  0.32588742937E-01  0.00000000000E+00 0. -1.
     999901    1    3    3    0    0 -0.14398695947E+00 -0.25050105726E-01  0.21391009145E-01  0.89231010729E+00  0.88000000000E+00 0. -1.
        -11    1    4    4    0    0  0.67545299888E-01  0.20508584723E-01 -0.16362819188E-01  0.72463594702E-01  0.51100000000E-03 0. -1.
         11    1    4    4    0    0  0.45200621569E-01 -0.26654853369E-02 -0.10866234963E-01  0.46567555074E-01  0.51100000000E-03 0.  1.
</event>
<event>
 8    1  0.1106168E+005  0.1043930E+01  0.7957747E-01            NaN
         13   -1    0    0    0    0  0.00000000000E+00  0.00000000000E+00  0.74505805969E-08  0.10566000000E+00  0.10566000000E+00 0. -1.
     999900   -1    0    0    0    0 -0.00000000000E+00 -0.00000000000E+00 -0.74505805969E-08  0.93827000000E+00  0.93827000000E+00 0. -1.
     999902    2    1    2    0    0 -0.68130263986E-02 -0.12311835780E-01  0.18805549621E-01  0.10204428264E+01  0.10201724925E+01 0.  0.
     999903    2    3    3    0    0  0.30015950652E-01  0.52828094111E-01 -0.11056280536E+00  0.12784226884E+00  0.20682044224E-01 0.  0.
         14    1    1    2    0    0  0.68130263986E-02  0.12311835780E-01 -0.18805549621E-01  0.23487173639E-01  0.00000000000E+00 0.  1.
     999901    1    3    3    0    0 -0.36828977051E-01 -0.65139929891E-01  0.12936835498E+00  0.89260055752E+00  0.88000000000E+00 0. -1.
        -11    1    4    4    0    0  0.15391538785E-01  0.34196082265E-01 -0.47798909244E-01  0.60755809223E-01  0.51100000000E-03 0. -1.
         11    1    4    4    0    0  0.14624411867E-01  0.18632011846E-01 -0.62763896112E-01  0.67086459618E-01  0.51100000000E-03 0.  1.
</event>
<event>
 8    1  0.1106168E+005  0.1043930E+01  0.7957747E-01            NaN
         13   -1    0    0    0    0  0.00000000000E+00  0.00000000000E+00  0.74505805969E-08  0.10566000000E+00  0.10566000000E+00 0.  1.
     999900   -1    0    0    0    0 -0.00000000000E+00 -0.00000000000E+00 -0.74505805969E-08  0.93827000000E+00  0.93827000000E+00 0. -1.
     999902    2    1    2    0    0  0.16189735795E-01 -0.47167111573E-02 -0.17542824468E-01  0.10195967799E+01  0.10193063759E+01 0.  0.
     999903    2    3    3    0    0 -0.20968481884E-01  0.45581516595E-01  0.11552622683E+00  0.12739836181E+00  0.19148932598E-01 0.  0.
         14    1    1    2    0    0 -0.16189735795E-01  0.47167111573E-02  0.17542824468E-01  0.24333220082E-01  0.00000000000E+00 0.  1.
     999901    1    3    3    0    0  0.37158217679E-01 -0.50298227752E-01 -0.13306905130E+00  0.89219841811E+00  0.88000000000E+00 0. -1.
        -11    1    4    4    0    0 -0.10209141718E-01  0.32498617138E-01  0.94120244819E-01  0.10009629512E+00  0.51100000000E-03 0. -1.
         11    1    4    4    0    0 -0.10759340166E-01  0.13082899457E-01  0.21405982010E-01  0.27302066695E-01  0.51100000000E-03 0.  1.
</event>
<event>
 8    1  0.1106168E+005  0.1043930E+01  0.7957747E-01            NaN
         13   -1    0    0    0    0  0.00000000000E+00  0.00000000000E+00  0.74505805969E-08  0.10566000000E+00  0.10566000000E+00 0. -1.
     999900   -1    0    0    0    0 -0.00000000000E+00 -0.00000000000E+00 -0.74505805969E-08  0.93827000000E+00  0.93827000000E+00 0.  1.
     999902    2    1    2    0    0  0.21834205657E-01  0.42169701785E-02  0.79258971689E-02  0.10203220518E+01  0.10200488979E+01 0.  0.
     999903    2    3    3    0    0 -0.56711455252E-01 -0.87337305120E-01  0.74390912641E-01  0.12960930095E+00  0.20507778695E-01 0.  0.
         14    1    1    2    0    0 -0.21834205657E-01 -0.42169701785E-02 -0.79258971689E-02  0.23607948239E-01  0.00000000000E+00 0.  1.
     999901    1    3    3    0    0  0.78545660908E-01  0.91554275299E-01 -0.66465015472E-01  0.89071275081E+00  0.88000000000E+00 0.  1.
        -11    1    4    4    0    0 -0.22515957998E-01 -0.37502550131E-01  0.19245852863E-01  0.47791982637E-01  0.51100000000E-03 0.  1.
         11    1    4    4    0    0 -0.34195497253E-01 -0.49834754989E-01  0.55145059778E-01  0.81817318314E-01  0.51100000000E-03 0. -1.
</event>
<event>
 8    1  0.1106168E+005  0.1043930E+01  0.7957747E-01            NaN
         13   -1    0    0    0    0  0.00000000000E+00  0.00000000000E+00  0.74505805969E-08  0.10566000000E+00  0.10566000000E+00 0.  1.
     999900   -1    0    0    0    0 -0.00000000000E+00 -0.00000000000E+00 -0.74505805969E-08  0.93827000000E+00  0.93827000000E+00 0.  1.
     999902    2    1    2    0    0  0.22727480426E-01 -0.14546840191E-01  0.64233020228E-02  0.10161918001E+01  0.10158131555E+01 0.  0.
     999903    2    3    3    0    0  0.20236765172E-01  0.84833126658E-01  0.89095322085E-01  0.12674408134E+00  0.22801309023E-01 0.  0.
         14    1    1    2    0    0 -0.22727480426E-01  0.14546840191E-01 -0.64233020228E-02  0.27738199923E-01  0.00000000000E+00 0. -1.
     999901    1    3    3    0    0  0.24907152547E-02 -0.99379966849E-01 -0.82672020062E-01  0.88944771874E+00  0.88000000000E+00 0.  1.
        -11    1    4    4    0    0 -0.38188466867E-03  0.13702170752E-01  0.26227640401E-01  0.29598066850E-01  0.51100000000E-03 0. -1.
         11    1    4    4    0    0  0.20618649840E-01  0.71130955906E-01  0.62867681683E-01  0.97146014486E-01  0.51100000000E-03 0.  1.
</event>
<event>
 8    1  0.1106168E+005  0.1043930E+01  0.7957747E-01            NaN
         13   -1    0    0    0    0  0.00000000000E+00  0.00000000000E+00  0.74505805969E-08  0.10566000000E+00  0.10566000000E+00 0.  1.
     999900   -1    0    0    0    0 -0.00000000000E+00 -0.00000000000E+00 -0.74505805969E-08  0.93827000000E+00  0.93827000000E+00 0.  1.
     999902    2    1    2    0    0  0.15466075757E-01  0.17391150926E-01 -0.18555430421E-02  0.10205827374E+01  0.10203156518E+01 0.  0.
     999903    2    3    3    0    0  0.57058913919E-01 -0.11156109707E+00  0.26360224524E-01  0.12976582246E+00  0.21040655965E-01 0.  0.
         14    1    1    2    0    0 -0.15466075757E-01 -0.17391150926E-01  0.18555430421E-02  0.23347262577E-01  0.00000000000E+00 0. -1.
     999901    1    3    3    0    0 -0.41592838162E-01  0.12895224800E+00 -0.28215767566E-01  0.89081691497E+00  0.88000000000E+00 0. -1.
        -11    1    4    4    0    0  0.26669940794E-01 -0.57406462809E-01  0.28545584407E-02  0.63365584816E-01  0.51100000000E-03 0.  1.
         11    1    4    4    0    0  0.30388973124E-01 -0.54154634263E-01  0.23505666083E-01  0.66400237641E-01  0.51100000000E-03 0. -1.
</event>
<event>
 8    1  0.1106168E+005  0.1043930E+01  0.7957747E-01            NaN
         13   -1    0    0    0    0  0.00000000000E+00  0.00000000000E+00  0.74505805969E-08  0.10566000000E+00  0.10566000000E+00 0.  1.
     999900   -1    0    0    0    0 -0.00000000000E+00 -0.00000000000E+00 -0.74505805969E-08  0.93827000000E+00  0.93827000000E+00 0. -1.
     999902    2    1    2    0    0 -0.34784150808E-03 -0.14151888047E-01 -0.17864392407E-01  0.10211367237E+01  0.10208823022E+01 0.  0.
     999903    2    3    3    0    0 -0.11198251352E+00  0.50043950517E-01 -0.41916496143E-01  0.13143907315E+00  0.21788918786E-01 0.  0.
         14    1    1    2    0    0  0.34784150808E-03  0.14151888047E-01  0.17864392407E-01  0.22793276313E-01  0.00000000000E+00 0.  1.
     999901    1    3    3    0    0  0.11163467202E+00 -0.64195838564E-01  0.24052103736E-01  0.88969765054E+00  0.88000000000E+00 0.  1.
        -11    1    4    4    0    0 -0.20542544026E-01  0.11477829742E-01  0.42859144648E-03  0.23541059923E-01  0.51100000000E-03 0.  1.
         11    1    4    4    0    0 -0.91439969498E-01  0.38566120774E-01 -0.42345087589E-01  0.10789801322E+00  0.51100000000E-03 0. -1.
</event>
<event>
 8    1  0.1106168E+005  0.1043930E+01  0.7957747E-01            NaN
         13   -1    0    0    0    0  0.00000000000E+00  0.00000000000E+00  0.74505805969E-08  0.10566000000E+00  0.10566000000E+00 0.  1.
     999900   -1    0    0    0    0 -0.00000000000E+00 -0.00000000000E+00 -0.74505805969E-08  0.93827000000E+00  0.93827000000E+00 0.  1.
     999902    2    1    2    0    0 -0.15370588946E-01 -0.16866808782E-01  0.87009852520E-03  0.10210935967E+01  0.10208382007E+01 0.  0.
     999903    2    3    3    0    0  0.63089965410E-01 -0.11362881672E+00  0.12672156322E-01  0.13224139679E+00  0.20865084544E-01 0.  0.
         14    1    1    2    0    0  0.15370588946E-01  0.16866808782E-01 -0.87009852520E-03  0.22836403274E-01  0.00000000000E+00 0.  1.
     999901    1    3    3    0    0 -0.78460554356E-01  0.96762007940E-01 -0.11802057797E-01  0.88885219994E+00  0.88000000000E+00 0. -1.
        -11    1    4    4    0    0  0.47771183320E-01 -0.99875303081E-01  0.72720916396E-02  0.11095182089E+00  0.51100000000E-03 0.  1.
         11    1    4    4    0    0  0.15318782090E-01 -0.13753513641E-01  0.54000646824E-02  0.21289575894E-01  0.51100000000E-03 0. -1.
</event>
<event>
 8    1  0.1106168E+005  0.1043930E+01  0.7957747E-01            NaN
         13   -1    0    0    0    0  0.00000000000E+00  0.00000000000E+00  0.74505805969E-08  0.10566000000E+00  0.10566000000E+00 0. -1.
     999900   -1    0    0    0    0 -0.00000000000E+00 -0.00000000000E+00 -0.74505805969E-08  0.93827000000E+00  0.93827000000E+00 0. -1.
     999902    2    1    2    0    0  0.21792358213E-01  0.95074914456E-02 -0.37061724890E-02  0.10198668542E+01  0.10195829370E+01 0.  0.
     999903    2    3    3    0    0 -0.47021979751E-01 -0.11132291091E+00  0.37074376608E-01  0.12801571618E+00  0.20239988029E-01 0.  0.
         14    1    1    2    0    0 -0.21792358213E-01 -0.95074914456E-02  0.37061724890E-02  0.24063145775E-01  0.00000000000E+00 0.  1.
     999901    1    3    3    0    0  0.68814337965E-01  0.12083040236E+00 -0.40780549097E-01  0.89185113804E+00  0.88000000000E+00 0.  1.
        -11    1    4    4    0    0 -0.17511364674E-01 -0.29967859657E-01  0.24377142585E-02  0.34798334399E-01  0.51100000000E-03 0.  1.
         11    1    4    4    0    0 -0.29510615077E-01 -0.81355051254E-01  0.34636662349E-01  0.93217381783E-01  0.51100000000E-03 0. -1.
</event>
<event>
 8    1  0.1106168E+005  0.1043930E+01  0.7957747E-01            NaN
         13   -1    0    0    0    0  0.00000000000E+00  0.00000000000E+00  0.74505805969E-08  0.10566000000E+00  0.10566000000E+00 0.  1.
     999900   -1    0    0    0    0 -0.00000000000E+00 -0.00000000000E+00 -0.74505805969E-08  0.93827000000E+00  0.93827000000E+00 0.  1.
     999902    2    1    2    0    0  0.17637845984E-01 -0.73459827765E-02 -0.26435206112E-01  0.10113128696E+01  0.10107867446E+01 0.  0.
     999903    2    3    3    0    0 -0.13005382735E-01 -0.88513244718E-01  0.79648636177E-01  0.12070582186E+00  0.14908243186E-01 0.  0.
         14    1    1    2    0    0 -0.17637845984E-01  0.73459827765E-02  0.26435206112E-01  0.32617130409E-01  0.00000000000E+00 0.  1.
     999901    1    3    3    0    0  0.30643228719E-01  0.81167261942E-01 -0.10608384229E+00  0.89060704773E+00  0.88000000000E+00 0.  1.
        -11    1    4    4    0    0 -0.10221244086E-01 -0.79963730548E-01  0.76581338539E-01  0.11119188175E+00  0.51100000000E-03 0. -1.
         11    1    4    4    0    0 -0.27841386489E-02 -0.85495141704E-02  0.30672976379E-02  0.95139401073E-02  0.51100000000E-03 0.  1.
</event>
<event>
 8    1  0.1106168E+005  0.1043930E+01  0.7957747E-01            NaN
         13   -1    0    0    0    0  0.00000000000E+00  0.00000000000E+00  0.74505805969E-08  0.10566000000E+00  0.10566000000E+00 0. -1.
     999900   -1    0    0    0    0 -0.00000000000E+00 -0.00000000000E+00 -0.74505805969E-08  0.93827000000E+00  0.93827000000E+00 0. -1.
     999902    2    1    2    0    0  0.63846434970E-02  0.10963647452E-01  0.19368330181E-01  0.10207762216E+01  0.10205135948E+01 0.  0.
     999903    2    3    3    0    0 -0.12055850062E+00 -0.42086619145E-01 -0.11087920940E-01  0.12956554181E+00  0.18938111056E-01 0.  0.
         14    1    1    2    0    0 -0.63846434970E-02 -0.10963647452E-01 -0.19368330181E-01  0.23153778353E-01  0.00000000000E+00 0.  1.
     999901    1    3    3    0    0  0.12694314412E+00  0.53050266596E-01  0.30456251120E-01  0.89121067984E+00  0.88000000000E+00 0.  1.
        -11    1    4    4    0    0 -0.80855791211E-01 -0.33148101887E-01 -0.21969077955E-04  0.87388312918E-01  0.51100000000E-03 0. -1.
         11    1    4    4    0    0 -0.39702709411E-01 -0.89385172577E-02 -0.11065951862E-01  0.42177228891E-01  0.51100000000E-03 0.  1.
</event>
<event>
 8    1  0.1106168E+005  0.1043930E+01  0.7957747E-01            NaN
         13   -1    0    0    0    0  0.00000000000E+00  0.00000000000E+00  0.74505805969E-08  0.10566000000E+00  0.10566000000E+00 0.  1.
     999900   -1    0    0    0    0 -0.00000000000E+00 -0.00000000000E+00 -0.74505805969E-08  0.93827000000E+00  0.93827000000E+00 0.  1.
     999902    2    1    2    0    0  0.82425160024E-02  0.21758143949E-01  0.25275233341E-02  0.10205260629E+01  0.10202576639E+01 0.  0.
     999903    2    3    3    0    0 -0.72323448827E-01 -0.93372187723E-02  0.10623845404E+00  0.13023748416E+00  0.18903128247E-01 0.  0.
         14    1    1    2    0    0 -0.82425160024E-02 -0.21758143949E-01 -0.25275233341E-02  0.23403937112E-01  0.00000000000E+00 0. -1.
     999901    1    3    3    0    0  0.80565964830E-01  0.31095362721E-01 -0.10371093071E+00  0.89028857873E+00  0.88000000000E+00 0.  1.
        -11    1    4    4    0    0 -0.57029278720E-01 -0.10740650199E-01  0.70353973957E-01  0.91201112770E-01  0.51100000000E-03 0.  1.
         11    1    4    4    0    0 -0.15294170108E-01  0.14034314265E-02  0.35884480084E-01  0.39036371386E-01  0.51100000000E-03 0. -1.
</event>
<event>
 8    1  0.1106168E+005  0.1043930E+01  0.7957747E-01            NaN
         13   -1    0    0    0    0  0.00000000000E+00  0.00000000000E+00  0.74505805969E-08  0.10566000000E+00  0.10566000000E+00 0. -1.
     999900   -1    0    0    0    0 -0.00000000000E+00 -0.00000000000E+00 -0.74505805969E-08  0.93827000000E+00  0.93827000000E+00 0. -1.
     999902    2    1    2    0    0  0.26817665753E-02  0.81174932528E-02  0.22301809547E-01  0.10200457735E+01  0.10197661122E+01 0.  0.
     999903    2    3    3    0    0 -0.42417966937E-01 -0.19495872020E-01 -0.11702612462E+00  0.12751635817E+00  0.19645223652E-01 0.  0.
         14    1    1    2    0    0 -0.26817665753E-02 -0.81174932528E-02 -0.22301809547E-01  0.23884226547E-01  0.00000000000E+00 0.  1.
     999901    1    3    3    0    0  0.45099733513E-01  0.27613365273E-01  0.13932793417E+00  0.89252941528E+00  0.88000000000E+00 0.  1.
        -11    1    4    4    0    0 -0.16550985516E-01 -0.17967008074E-01 -0.63711736256E-01  0.68236317005E-01  0.51100000000E-03 0. -1.
         11    1    4    4    0    0 -0.25866981421E-01 -0.15288639461E-02 -0.53314388366E-01  0.59280041166E-01  0.51100000000E-03 0.  1.
</event>
<event>
 8    1  0.1106168E+005  0.1043930E+01  0.7957747E-01            NaN
         13   -1    0    0    0    0  0.00000000000E+00  0.00000000000E+00  0.74505805969E-08  0.10566000000E+00  0.10566000000E+00 0.  1.
     999900   -1    0    0    0    0 -0.00000000000E+00 -0.00000000000E+00 -0.74505805969E-08  0.93827000000E+00  0.93827000000E+00 0. -1.
     999902    2    1    2    0    0  0.21338257372E-01 -0.63250775623E-02 -0.65239826083E-02  0.10207375404E+01  0.10204740252E+01 0.  0.
     999903    2    3    3    0    0  0.12437362739E+00 -0.41129130718E-01 -0.20016097846E-01  0.13394013017E+00  0.19465603319E-01 0.  0.
         14    1    1    2    0    0 -0.21338257372E-01  0.63250775623E-02  0.65239826083E-02  0.23192459613E-01  0.00000000000E+00 0.  1.
     999901    1    3    3    0    0 -0.10303537002E+00  0.34804053156E-01  0.13492115238E-01  0.88679741022E+00  0.88000000000E+00 0.  1.
        -11    1    4    4    0    0  0.81456405280E-02 -0.75225276118E-02 -0.44269056018E-02  0.11949832446E-01  0.51100000000E-03 0.  1.
         11    1    4    4    0    0  0.11622798687E+00 -0.33606603107E-01 -0.15589192245E-01  0.12199029773E+00  0.51100000000E-03 0. -1.
</event>
<event>
 8    1  0.1106168E+005  0.1043930E+01  0.7957747E-01            NaN
         13   -1    0    0    0    0  0.00000000000E+00  0.00000000000E+00  0.74505805969E-08  0.10566000000E+00  0.10566000000E+00 0.  1.
     999900   -1    0    0    0    0 -0.00000000000E+00 -0.00000000000E+00 -0.74505805969E-08  0.93827000000E+00  0.93827000000E+00 0.  1.
     999902    2    1    2    0    0  0.11188426142E-02  0.68839936710E-02 -0.21283623361E-01  0.10215328171E+01  0.10212872577E+01 0.  0.
     999903    2    3    3    0    0 -0.87659100880E-01  0.87538054562E-02 -0.98397702017E-01  0.13370873512E+00  0.20860752828E-01 0.  0.
         14    1    1    2    0    0 -0.11188426142E-02 -0.68839936710E-02  0.21283623361E-01  0.22397182882E-01  0.00000000000E+00 0.  1.
     999901    1    3    3    0    0  0.88777943494E-01 -0.18698117852E-02  0.77114078656E-01  0.88782408200E+00  0.88000000000E+00 0. -1.
        -11    1    4    4    0    0 -0.64995642830E-01  0.57995513866E-02 -0.58072182369E-01  0.87353923033E-01  0.51100000000E-03 0. -1.
         11    1    4    4    0    0 -0.22663458050E-01  0.29542540697E-02 -0.40325519648E-01  0.46354812088E-01  0.51100000000E-03 0.  1.
</event>
<event>
 8    1  0.1106168E+005  0.1043930E+01  0.7957747E-01            NaN
         13   -1    0    0    0    0  0.00000000000E+00  0.00000000000E+00  0.74505805969E-08  0.10566000000E+00  0.10566000000E+00 0. -1.
     999900   -1    0    0    0    0 -0.00000000000E+00 -0.00000000000E+00 -0.74505805969E-08  0.93827000000E+00  0.93827000000E+00 0.  1.
     999902    2    1    2    0    0 -0.17589407564E-01  0.11310865861E-01 -0.11532907147E-01  0.10200483985E+01  0.10197687994E+01 0.  0.
     999903    2    3    3    0    0  0.32698914609E-01 -0.11791960771E+00 -0.34607029363E-01  0.12889081096E+00  0.20998613497E-01 0.  0.
         14    1    1    2    0    0  0.17589407564E-01 -0.11310865861E-01  0.11532907147E-01  0.23881601542E-01  0.00000000000E+00 0.  1.
     999901    1    3    3    0    0 -0.50288322172E-01  0.12923047357E+00  0.23074122217E-01  0.89115758750E+00  0.88000000000E+00 0. -1.
        -11    1    4    4    0    0 -0.21915719922E-02 -0.21491638285E-01 -0.62599059991E-02  0.22497578716E-01  0.51100000000E-03 0. -1.
         11    1    4    4    0    0  0.34890486601E-01 -0.96427969423E-01 -0.28347123364E-01  0.10639323224E+00  0.51100000000E-03 0.  1.
</event>
<event>
 8    1  0.1106168E+005  0.1043930E+01  0.7957747E-01            NaN
         13   -1    0    0    0    0  0.00000000000E+00  0.00000000000E+00  0.74505805969E-08  0.10566000000E+00  0.10566000000E+00 0. -1.
     999900   -1    0    0    0    0 -0.00000000000E+00 -0.00000000000E+00 -0.74505805969E-08  0.93827000000E+00  0.93827000000E+00 0. -1.
     999902    2    1    2    0    0  0.66173363914E-02 -0.11614691430E-01  0.19525240143E-01  0.10202672613E+01  0.10199928232E+01 0.  0.
     999903    2    3    3    0    0  0.31204357747E-01 -0.11750586831E+00  0.50210435327E-01  0.13304742153E+00  0.19979677939E-01 0.  0.
         14    1    1    2    0    0 -0.66173363914E-02  0.11614691430E-01 -0.19525240143E-01  0.23662738653E-01  0.00000000000E+00 0.  1.
     999901    1    3    3    0    0 -0.24587021356E-01  0.10589117688E+00 -0.30685195184E-01  0.88721983982E+00  0.88000000000E+00 0. -1.
        -11    1    4    4    0    0  0.52833302969E-02 -0.69532521018E-02  0.81502563387E-02  0.11956132034E-01  0.51100000000E-03 0.  1.
         11    1    4    4    0    0  0.25921027450E-01 -0.11055261621E+00  0.42060178988E-01  0.12109128950E+00  0.51100000000E-03 0. -1.
</event>
<event>
 8    1  0.1106168E+005  0.1043930E+01  0.7957747E-01            NaN
         13   -1    0    0    0    0  0.00000000000E+00  0.00000000000E+00  0.74505805969E-08  0.10566000000E+00  0.10566000000E+00 0.  1.
     999900   -1    0    0    0    0 -0.00000000000E+00 -0.00000000000E+00 -0.74505805969E-08  0.93827000000E+00  0.93827000000E+00 0. -1.
     999902    2    1    2    0    0 -0.91893479519E-02  0.96481475419E-02 -0.20487207752E-01  0.10194911672E+01  0.10191982062E+01 0.  0.
     999903    2    3    3    0    0 -0.12559468527E-01 -0.44024193508E-01 -0.12209852547E+00  0.13201331521E+00  0.20581438409E-01 0.  0.
         14    1    1    2    0    0  0.91893479519E-02 -0.96481475419E-02  0.20487207752E-01  0.24438832792E-01  0.00000000000E+00 0.  1.
     999901    1    3    3    0    0  0.33701205753E-02  0.53672341050E-01  0.10161131771E+00  0.88747785200E+00  0.88000000000E+00 0.  1.
        -11    1    4    4    0    0 -0.92413990150E-02 -0.53317149798E-02 -0.18332612944E-01  0.21217362200E-01  0.51100000000E-03 0. -1.
         11    1    4    4    0    0 -0.33180695123E-02 -0.38692478528E-01 -0.10376591252E+00  0.11079595301E+00  0.51100000000E-03 0.  1.
</event>
<event>
 7    1  0.1106168E+005  0.1043930E+01  0.7957747E-01            NaN
         13   -1    0    0    0    0  0.00000000000E+00  0.00000000000E+00  0.74505805969E-08  0.10566000000E+00  0.10566000000E+00 0. -1.
     999900   -1    0    0    0    0 -0.00000000000E+00 -0.00000000000E+00 -0.74505805969E-08  0.93827000000E+00  0.93827000000E+00 0.  1.
     999903    2    1    2    0    0  0.21300320756E-01 -0.46845076084E-01  0.55308005711E-01  0.78552907438E-01  0.21527167802E-01 0.  0.
         14    1    1    2    0    0  0.71407261160E-01  0.25642183853E-01  0.15452407562E-01  0.77429293156E-01  0.00000000000E+00 0. -1.
     999901    1    1    2    0    0 -0.92707581916E-01  0.21202892231E-01 -0.70760413273E-01  0.88794779941E+00  0.88000000000E+00 0. -1.
        -11    1    3    3    0    0  0.15382561117E-02 -0.26727080038E-01  0.20329161765E-01  0.33619027028E-01  0.51100000000E-03 0.  1.
         11    1    3    3    0    0  0.19762064644E-01 -0.20117996046E-01  0.34978843946E-01  0.44933880410E-01  0.51100000000E-03 0. -1.
</event>
<event>
 8    1  0.1106168E+005  0.1043930E+01  0.7957747E-01            NaN
         13   -1    0    0    0    0  0.00000000000E+00  0.00000000000E+00  0.74505805969E-08  0.10566000000E+00  0.10566000000E+00 0. -1.
     999900   -1    0    0    0    0 -0.00000000000E+00 -0.00000000000E+00 -0.74505805969E-08  0.93827000000E+00  0.93827000000E+00 0.  1.
     999902    2    1    2    0    0  0.73612230231E-02 -0.78401325629E-02 -0.21191847909E-01  0.10201655370E+01  0.10198887063E+01 0.  0.
     999903    2    3    3    0    0 -0.27693527036E-01  0.19368492713E-01  0.12152399018E+00  0.12756430733E+00  0.19039494912E-01 0.  0.
         14    1    1    2    0    0 -0.73612230231E-02  0.78401325629E-02  0.21191847909E-01  0.23764462981E-01  0.00000000000E+00 0. -1.
     999901    1    3    3    0    0  0.35054750059E-01 -0.27208625276E-01 -0.14271583809E+00  0.89260122968E+00  0.88000000000E+00 0.  1.
        -11    1    4    4    0    0 -0.12877384023E-01  0.20954965489E-02  0.70418423124E-01  0.71618667688E-01  0.51100000000E-03 0.  1.
         11    1    4    4    0    0 -0.14816143013E-01  0.17272996165E-01  0.51105567057E-01  0.55945639647E-01  0.51100000000E-03 0. -1.
</event>
<event>
 8    1  0.1106168E+005  0.1043930E+01  0.7957747E-01            NaN
         13   -1    0    0    0    0  0.00000000000E+00  0.00000000000E+00  0.74505805969E-08  0.10566000000E+00  0.10566000000E+00 0.  1.
     999900   -1    0    0    0    0 -0.00000000000E+00 -0.00000000000E+00 -0.74505805969E-08  0.93827000000E+00  0.93827000000E+00 0.  1.
     999902    2    1    2    0    0 -0.65633408896E-02  0.50698287347E-02  0.23496450350E-01  0.10190128616E+01  0.10187081762E+01 0.  0.
     999903    2    3    3    0    0  0.37820959810E-01  0.34692749644E-01 -0.11417515362E+00  0.12671192910E+00  0.19645238434E-01 0.  0.
         14    1    1    2    0    0  0.65633408896E-02 -0.50698287347E-02 -0.23496450350E-01  0.24917138401E-01  0.00000000000E+00 0. -1.
     999901    1    3    3    0    0 -0.44384300700E-01 -0.29622920910E-01  0.13767160397E+00  0.89230093250E+00  0.88000000000E+00 0. -1.
        -11    1    4    4    0    0  0.37444983391E-01  0.27574677097E-01 -0.10657461567E+00  0.11627940241E+00  0.51100000000E-03 0.  1.
         11    1    4    4    0    0  0.37597641906E-03  0.71180725473E-02 -0.76005379547E-02  0.10432526696E-01  0.51100000000E-03 0. -1.
</event>
<event>
 8    1  0.1106168E+005  0.1043930E+01  0.7957747E-01            NaN
         13   -1    0    0    0    0  0.00000000000E+00  0.00000000000E+00  0.74505805969E-08  0.10566000000E+00  0.10566000000E+00 0.  1.
     999900   -1    0    0    0    0 -0.00000000000E+00 -0.00000000000E+00 -0.74505805969E-08  0.93827000000E+00  0.93827000000E+00 0.  1.
     999902    2    1    2    0    0 -0.61275047161E-02 -0.11914102742E-01 -0.19304919404E-01  0.10204316581E+01  0.10201610642E+01 0.  0.
     999903    2    3    3    0    0 -0.48588409220E-01  0.72250893844E-01 -0.97083703486E-01  0.13198570347E+00  0.20345890672E-01 0.  0.
         14    1    1    2    0    0  0.61275047161E-02  0.11914102742E-01  0.19304919404E-01  0.23498341886E-01  0.00000000000E+00 0.  1.
     999901    1    3    3    0    0  0.42460904504E-01 -0.84164996586E-01  0.77778784082E-01  0.88844595464E+00  0.88000000000E+00 0. -1.
        -11    1    4    4    0    0 -0.42151356356E-01  0.49557127203E-01 -0.78465400132E-01  0.10193000460E+00  0.51100000000E-03 0. -1.
         11    1    4    4    0    0 -0.64370528639E-02  0.22693766641E-01 -0.18618303354E-01  0.30055698873E-01  0.51100000000E-03 0.  1.
</event>
<event>
 8    1  0.1106168E+005  0.1043930E+01  0.7957747E-01            NaN
         13   -1    0    0    0    0  0.00000000000E+00  0.00000000000E+00  0.74505805969E-08  0.10566000000E+00  0.10566000000E+00 0. -1.
     999900   -1    0    0    0    0 -0.00000000000E+00 -0.00000000000E+00 -0.74505805969E-08  0.93827000000E+00  0.93827000000E+00 0. -1.
     999902    2    1    2    0    0 -0.11717889006E-01  0.12658862247E-01  0.62735001337E-02  0.10255748231E+01  0.10254105545E+01 0.  0.
     999903    2    3    3    0    0 -0.94654798694E-01  0.58621314889E-01  0.78231454940E-01  0.13756073236E+00  0.20169409268E-01 0.  0.
         14    1    1    2    0    0  0.11717889006E-01 -0.12658862247E-01 -0.62735001337E-02  0.18355176929E-01  0.00000000000E+00 0.  1.
     999901    1    3    3    0    0  0.82936909688E-01 -0.45962452642E-01 -0.71957954807E-01  0.88801409071E+00  0.88000000000E+00 0. -1.
        -11    1    4    4    0    0 -0.63519078995E-01  0.29417448358E-01  0.42534701709E-01  0.81911669710E-01  0.51100000000E-03 0. -1.
         11    1    4    4    0    0 -0.31135719699E-01  0.29203866531E-01  0.35696753231E-01  0.55649062650E-01  0.51100000000E-03 0.  1.
</event>
<event>
 8    1  0.1106168E+005  0.1043930E+01  0.7957747E-01            NaN
         13   -1    0    0    0    0  0.00000000000E+00  0.00000000000E+00  0.74505805969E-08  0.10566000000E+00  0.10566000000E+00 0.  1.
     999900   -1    0    0    0    0 -0.00000000000E+00 -0.00000000000E+00 -0.74505805969E-08  0.93827000000E+00  0.93827000000E+00 0. -1.
     999902    2    1    2    0    0  0.11030751955E-01  0.20100119531E-01  0.18873459579E-03  0.10210012426E+01  0.10207437531E+01 0.  0.
     999903    2    3    3    0    0 -0.49304919922E-01 -0.70537672912E-02  0.11911031879E+00  0.13054064830E+00  0.19309636281E-01 0.  0.
         14    1    1    2    0    0 -0.11030751955E-01 -0.20100119531E-01 -0.18873459579E-03  0.22928757372E-01  0.00000000000E+00 0. -1.
     999901    1    3    3    0    0  0.60335671877E-01  0.27153886822E-01 -0.11892158420E+00  0.89046059433E+00  0.88000000000E+00 0. -1.
        -11    1    4    4    0    0 -0.35110794607E-01 -0.64979229953E-02  0.60697715557E-01  0.70423466941E-01  0.51100000000E-03 0.  1.
         11    1    4    4    0    0 -0.14194125315E-01 -0.55584429587E-03  0.58412603236E-01  0.60117181355E-01  0.51100000000E-03 0. -1.
</event>
<event>
 8    1  0.1106168E+005  0.1043930E+01  0.7957747E-01            NaN
         13   -1    0    0    0    0  0.00000000000E+00  0.00000000000E+00  0.74505805969E-08  0.10566000000E+00  0.10566000000E+00 0.  1.
     999900   -1    0    0    0    0 -0.00000000000E+00 -0.00000000000E+00 -0.74505805969E-08  0.93827000000E+00  0.93827000000E+00 0. -1.
     999902    2    1    2    0    0  0.21240554721E-01  0.54414956147E-02 -0.16355629329E-02  0.10219425921E+01  0.10217060318E+01 0.  0.
     999903    2    3    3    0    0 -0.13347378760E-01  0.89280773922E-01 -0.94836982104E-01  0.13238548082E+00  0.19561524591E-01 0.  0.
         14    1    1    2    0    0 -0.21240554721E-01 -0.54414956147E-02  0.16355629329E-02  0.21987407884E-01  0.00000000000E+00 0. -1.
     999901    1    3    3    0    0  0.34587933481E-01 -0.83839278307E-01  0.93201419171E-01  0.88955711130E+00  0.88000000000E+00 0.  1.
        -11    1    4    4    0    0 -0.87242365492E-02  0.25260246741E-01 -0.39166675265E-01  0.47418160457E-01  0.51100000000E-03 0.  1.
         11    1    4    4    0    0 -0.46231422110E-02  0.64020527181E-01 -0.55670306839E-01  0.84967320359E-01  0.51100000000E-03 0. -1.
</event>
<event>
 8    1  0.1106168E+005  0.1043930E+01  0.7957747E-01            NaN
         13   -1    0    0    0    0  0.00000000000E+00  0.00000000000E+00  0.74505805969E-08  0.10566000000E+00  0.10566000000E+00 0. -1.
     999900   -1    0    0    0    0 -0.00000000000E+00 -0.00000000000E+00 -0.74505805969E-08  0.93827000000E+00  0.93827000000E+00 0. -1.
     999902    2    1    2    0    0  0.69030182505E-02 -0.21387408698E-01 -0.68367577082E-02  0.10204392749E+01  0.10201688583E+01 0.  0.
     999903    2    3    3    0    0  0.98682067272E-01  0.23508361267E-02  0.83577984524E-01  0.13074172865E+00  0.19090397662E-01 0.  0.
         14    1    1    2    0    0 -0.69030182505E-02  0.21387408698E-01  0.68367577082E-02  0.23490725143E-01  0.00000000000E+00 0.  1.
     999901    1    3    3    0    0 -0.91779049021E-01 -0.23738244824E-01 -0.90414742232E-01  0.88969754620E+00  0.88000000000E+00 0. -1.
        -11    1    4    4    0    0  0.48939362740E-01 -0.83623579899E-02  0.40864211292E-01  0.64305016461E-01  0.51100000000E-03 0.  1.
         11    1    4    4    0    0  0.49742704532E-01  0.10713194117E-01  0.42713773232E-01  0.66436712193E-01  0.51100000000E-03 0. -1.
</event>
<event>
 8    1  0.1106168E+005  0.1043930E+01  0.7957747E-01            NaN
         13   -1    0    0    0    0  0.00000000000E+00  0.00000000000E+00  0.74505805969E-08  0.10566000000E+00  0.10566000000E+00 0.  1.
     999900   -1    0    0    0    0 -0.00000000000E+00 -0.00000000000E+00 -0.74505805969E-08  0.93827000000E+00  0.93827000000E+00 0.  1.
     999902    2    1    2    0    0 -0.41898750409E-02  0.16958662400E-01 -0.15474666538E-01  0.10205929782E+01  0.10203261295E+01 0.  0.
     999903    2    3    3    0    0 -0.94804778186E-01 -0.84199421040E-02 -0.89804532815E-01  0.13246006962E+00  0.20542018822E-01 0.  0.
         14    1    1    2    0    0  0.41898750409E-02 -0.16958662400E-01  0.15474666538E-01  0.23337021826E-01  0.00000000000E+00 0. -1.
     999901    1    3    3    0    0  0.90614903145E-01  0.25378604504E-01  0.74329866277E-01  0.88813290856E+00  0.88000000000E+00 0. -1.
        -11    1    4    4    0    0 -0.47119749557E-01 -0.27202194660E-03 -0.31426882327E-01  0.56641458739E-01  0.51100000000E-03 0.  1.
         11    1    4    4    0    0 -0.47685028628E-01 -0.81479201574E-02 -0.58377650488E-01  0.75818610880E-01  0.51100000000E-03 0. -1.
</event>
<event>
 8    1  0.1106168E+005  0.1043930E+01  0.7957747E-01            NaN
         13   -1    0    0    0    0  0.00000000000E+00  0.00000000000E+00  0.74505805969E-08  0.10566000000E+00  0.10566000000E+00 0. -1.
     999900   -1    0    0    0    0 -0.00000000000E+00 -0.00000000000E+00 -0.74505805969E-08  0.93827000000E+00  0.93827000000E+00 0. -1.
     999902    2    1    2    0    0 -0.89568852625E-02  0.20521236316E-01 -0.28285619019E-03  0.10215374356E+01  0.10212919785E+01 0.  0.
     999903    2    3    3    0    0 -0.10818322041E+00  0.70000026925E-01  0.31023166337E-01  0.13402738868E+00  0.19932162937E-01 0.  0.
         14    1    1    2    0    0  0.89568852625E-02 -0.20521236316E-01  0.28285619019E-03  0.22392564417E-01  0.00000000000E+00 0.  1.
     999901    1    3    3    0    0  0.99226335146E-01 -0.49478790609E-01 -0.31306022527E-01  0.88751004690E+00  0.88000000000E+00 0. -1.
        -11    1    4    4    0    0 -0.40762328957E-01  0.37347577271E-01  0.96337881304E-02  0.56120227946E-01  0.51100000000E-03 0.  1.
         11    1    4    4    0    0 -0.67420891452E-01  0.32652449654E-01  0.21389378207E-01  0.77907160734E-01  0.51100000000E-03 0. -1.
</event>
<event>
 8    1  0.1106168E+005  0.1043930E+01  0.7957747E-01            NaN
         13   -1    0    0    0    0  0.00000000000E+00  0.00000000000E+00  0.74505805969E-08  0.10566000000E+00  0.10566000000E+00 0.  1.
     999900   -1    0    0    0    0 -0.00000000000E+00 -0.00000000000E+00 -0.74505805969E-08  0.93827000000E+00  0.93827000000E+00 0. -1.
     999902    2    1    2    0    0 -0.65423688254E-02  0.12906999435E-01 -0.18947124388E-01  0.10200891370E+01  0.10198105024E+01 0.  0.
     999903    2    3    3    0    0  0.91547328103E-02  0.11010166480E+00 -0.71281429916E-01  0.13305357884E+00  0.20396736673E-01 0.  0.
         14    1    1    2    0    0  0.65423688254E-02 -0.12906999435E-01  0.18947124388E-01  0.23840862963E-01  0.00000000000E+00 0.  1.
     999901    1    3    3    0    0 -0.15697101636E-01 -0.97194665361E-01  0.52334305528E-01  0.88703555820E+00  0.88000000000E+00 0.  1.
        -11    1    4    4    0    0  0.58801565450E-02  0.76460840920E-01 -0.60152815501E-01  0.97465166951E-01  0.51100000000E-03 0.  1.
         11    1    4    4    0    0  0.32745762653E-02  0.33640823876E-01 -0.11128614415E-01  0.35588411886E-01  0.51100000000E-03 0. -1.
</event>
<event>
 8    1  0.1106168E+005  0.1043930E+01  0.7957747E-01            NaN
         13   -1    0    0    0    0  0.00000000000E+00  0.00000000000E+00  0.74505805969E-08  0.10566000000E+00  0.10566000000E+00 0. -1.
     999900   -1    0    0    0    0 -0.00000000000E+00 -0.00000000000E+00 -0.74505805969E-08  0.93827000000E+00  0.93827000000E+00 0.  1.
     999902    2    1    2    0    0 -0.12506245680E-01 -0.25251893629E-02 -0.20019765488E-01  0.10201902912E+01  0.10199140437E+01 0.  0.
     999903    2    3    3    0    0  0.10502021617E+00  0.69096878026E-01 -0.23788192978E-01  0.12948473336E+00  0.19919681024E-01 0.  0.
         14    1    1    2    0    0  0.12506245680E-01  0.25251893629E-02  0.20019765488E-01  0.23739708771E-01  0.00000000000E+00 0. -1.
     999901    1    3    3    0    0 -0.11752646185E+00 -0.71622067389E-01  0.37684274904E-02  0.89070555787E+00  0.88000000000E+00 0.  1.
        -11    1    4    4    0    0  0.86689085350E-01  0.47394734105E-01 -0.20229664061E-01  0.10085017981E+00  0.51100000000E-03 0. -1.
         11    1    4    4    0    0  0.18331130816E-01  0.21702143921E-01 -0.35585289174E-02  0.28634553547E-01  0.51100000000E-03 0.  1.
</event>
<event>
 8    1  0.1106168E+005  0.1043930E+01  0.7957747E-01            NaN
         13   -1    0    0    0    0  0.00000000000E+00  0.00000000000E+00  0.74505805969E-08  0.10566000000E+00  0.10566000000E+00 0.  1.
     999900   -1    0    0    0    0 -0.00000000000E+00 -0.00000000000E+00 -0.74505805969E-08  0.93827000000E+00  0.93827000000E+00 0.  1.
     999902    2    1    2    0    0  0.13464832110E-01  0.16078535265E-01  0.12526324046E-01  0.10195019466E+01  0.10192092471E+01 0.  0.
     999903    2    3    3    0    0 -0.11159278835E+00  0.50082042848E-01 -0.34822611769E-01  0.12875082045E+00  0.20074811354E-01 0.  0.
         14    1    1    2    0    0 -0.13464832110E-01 -0.16078535265E-01 -0.12526324046E-01  0.24428053425E-01  0.00000000000E+00 0. -1.
     999901    1    3    3    0    0  0.12505762046E+00 -0.34003507583E-01  0.47348935815E-01  0.89075112612E+00  0.88000000000E+00 0. -1.
        -11    1    4    4    0    0 -0.58629077984E-01  0.15946411141E-01 -0.13647808449E-01  0.62275040024E-01  0.51100000000E-03 0.  1.
         11    1    4    4    0    0 -0.52963710361E-01  0.34135631706E-01 -0.21174803319E-01  0.66475780430E-01  0.51100000000E-03 0. -1.
</event>
<event>
 8    1  0.1106168E+005  0.1043930E+01  0.7957747E-01            NaN
         13   -1    0    0    0    0  0.00000000000E+00  0.00000000000E+00  0.74505805969E-08  0.10566000000E+00  0.10566000000E+00 0.  1.
     999900   -1    0    0    0    0 -0.00000000000E+00 -0.00000000000E+00 -0.74505805969E-08  0.93827000000E+00  0.93827000000E+00 0. -1.
     999902    2    1    2    0    0 -0.20742119831E-01 -0.31832701600E-03 -0.12841152924E-01  0.10195326215E+01  0.10192406656E+01 0.  0.
     999903    2    3    3    0    0 -0.72674759454E-01  0.10634113947E+00 -0.17409437384E-01  0.13156071316E+00  0.20373368198E-01 0.  0.
         14    1    1    2    0    0  0.20742119831E-01  0.31832701600E-03  0.12841152924E-01  0.24397378457E-01  0.00000000000E+00 0.  1.
     999901    1    3    3    0    0  0.51932639623E-01 -0.10665946649E+00  0.45682844604E-02  0.88797190838E+00  0.88000000000E+00 0. -1.
        -11    1    4    4    0    0 -0.46418540218E-01  0.50398761546E-01 -0.11512678895E-01  0.69480349291E-01  0.51100000000E-03 0. -1.
         11    1    4    4    0    0 -0.26256219236E-01  0.55942377927E-01 -0.58967584896E-02  0.62080363871E-01  0.51100000000E-03 0.  1.
</event>
<event>
 8    1  0.1106168E+005  0.1043930E+01  0.7957747E-01            NaN
         13   -1    0    0    0    0  0.00000000000E+00  0.00000000000E+00  0.74505805969E-08  0.10566000000E+00  0.10566000000E+00 0.  1.
     999900   -1    0    0    0    0 -0.00000000000E+00 -0.00000000000E+00 -0.74505805969E-08  0.93827000000E+00  0.93827000000E+00 0.  1.
     999902    2    1    2    0    0  0.77732416229E-02 -0.23270681912E-01  0.37448191772E-02  0.10191112250E+01  0.10188089700E+01 0.  0.
     999903    2    3    3    0    0  0.38849689610E-01 -0.19639483895E-01  0.12176047651E+00  0.13068192190E+00  0.18898236986E-01 0.  0.
         14    1    1    2    0    0 -0.77732416229E-02  0.23270681912E-01 -0.37448191772E-02  0.24818775003E-01  0.00000000000E+00 0. -1.
     999901    1    3    3    0    0 -0.31076447987E-01 -0.36311980168E-02 -0.11801565734E+00  0.88842930309E+00  0.88000000000E+00 0.  1.
        -11    1    4    4    0    0  0.29493779873E-01 -0.19151606570E-01  0.73042772202E-01  0.81068950760E-01  0.51100000000E-03 0. -1.
         11    1    4    4    0    0  0.93559097368E-02 -0.48787732486E-03  0.48717704312E-01  0.49612971144E-01  0.51100000000E-03 0.  1.
</event>
<event>
 8    1  0.1106168E+005  0.1043930E+01  0.7957747E-01            NaN
         13   -1    0    0    0    0  0.00000000000E+00  0.00000000000E+00  0.74505805969E-08  0.10566000000E+00  0.10566000000E+00 0.  1.
     999900   -1    0    0    0    0 -0.00000000000E+00 -0.00000000000E+00 -0.74505805969E-08  0.93827000000E+00  0.93827000000E+00 0.  1.
     999902    2    1    2    0    0  0.87200941985E-02 -0.82700077422E-02 -0.27683143514E-02  0.10315972535E+01  0.10315235319E+01 0.  0.
     999903    2    3    3    0    0  0.79232499354E-01  0.11000058906E+00  0.30116294427E-01  0.14028286970E+00  0.19858846737E-01 0.  0.
         14    1    1    2    0    0 -0.87200941985E-02  0.82700077422E-02  0.27683143514E-02  0.12332746460E-01  0.00000000000E+00 0.  1.
     999901    1    3    3    0    0 -0.70512405155E-01 -0.11827059680E+00 -0.32884608778E-01  0.89131438384E+00  0.88000000000E+00 0.  1.
        -11    1    4    4    0    0  0.31682357076E-01  0.40195762368E-01  0.18539793826E-02  0.51216886110E-01  0.51100000000E-03 0. -1.
         11    1    4    4    0    0  0.47550142278E-01  0.69804826691E-01  0.28262315044E-01  0.89065983589E-01  0.51100000000E-03 0.  1.
</event>
<event>
 8    1  0.1106168E+005  0.1043930E+01  0.7957747E-01            NaN
         13   -1    0    0    0    0  0.00000000000E+00  0.00000000000E+00  0.74505805969E-08  0.10566000000E+00  0.10566000000E+00 0.  1.
     999900   -1    0    0    0    0 -0.00000000000E+00 -0.00000000000E+00 -0.74505805969E-08  0.93827000000E+00  0.93827000000E+00 0.  1.
     999902    2    1    2    0    0  0.45911185585E-02  0.26540688195E-02 -0.21443366821E-01  0.10218406263E+01  0.10216018427E+01 0.  0.
     999903    2    3    3    0    0 -0.89627103056E-01 -0.88167922441E-01 -0.32467027252E-01  0.13209502866E+00  0.24256722559E-01 0.  0.
         14    1    1    2    0    0 -0.45911185585E-02 -0.26540688195E-02  0.21443366821E-01  0.22089373724E-01  0.00000000000E+00 0.  1.
     999901    1    3    3    0    0  0.94218221615E-01  0.90821991260E-01  0.11023660431E-01  0.88974559761E+00  0.88000000000E+00 0.  1.
        -11    1    4    4    0    0 -0.35948350288E-01 -0.40367369608E-01 -0.21921493067E-02  0.54100601263E-01  0.51100000000E-03 0. -1.
         11    1    4    4    0    0 -0.53678752768E-01 -0.47800552833E-01 -0.30274877946E-01  0.77994427401E-01  0.51100000000E-03 0.  1.
</event>
<event>
 8    1  0.1106168E+005  0.1043930E+01  0.7957747E-01            NaN
         13   -1    0    0    0    0  0.00000000000E+00  0.00000000000E+00  0.74505805969E-08  0.10566000000E+00  0.10566000000E+00 0. -1.
     999900   -1    0    0    0    0 -0.00000000000E+00 -0.00000000000E+00 -0.74505805969E-08  0.93827000000E+00  0.93827000000E+00 0. -1.
     999902    2    1    2    0    0 -0.23033470628E-01 -0.49583775007E-02 -0.25550108469E-03  0.10203674968E+01  0.10200954058E+01 0.  0.
     999903    2    3    3    0    0 -0.47367298698E-01  0.44251904641E-01  0.11267432455E+00  0.13145415311E+00  0.19565247446E-01 0.  0.
         14    1    1    2    0    0  0.23033470628E-01  0.49583775007E-02  0.25550108469E-03  0.23562503208E-01  0.00000000000E+00 0.  1.
     999901    1    3    3    0    0  0.24333828070E-01 -0.49210282142E-01 -0.11292982563E+00  0.88891334368E+00  0.88000000000E+00 0. -1.
        -11    1    4    4    0    0 -0.44832180425E-01  0.38706686885E-01  0.10965779941E+00  0.12463236379E+00  0.51100000000E-03 0.  1.
         11    1    4    4    0    0 -0.25351182731E-02  0.55452177558E-02  0.30165251330E-02  0.68217893177E-02  0.51100000000E-03 0. -1.
</event>
<event>
 8    1  0.1106168E+005  0.1043930E+01  0.7957747E-01            NaN
         13   -1    0    0    0    0  0.00000000000E+00  0.00000000000E+00  0.74505805969E-08  0.10566000000E+00  0.10566000000E+00 0.  1.
     999900   -1    0    0    0    0 -0.00000000000E+00 -0.00000000000E+00 -0.74505805969E-08  0.93827000000E+00  0.93827000000E+00 0. -1.
     999902    2    1    2    0    0 -0.73255703428E-03 -0.10015442444E-01  0.21352008990E-01  0.10203343645E+01  0.10200614988E+01 0.  0.
     999903    2    3    3    0    0  0.97550589242E-01 -0.11636871819E-01 -0.81196565502E-01  0.12894308340E+00  0.19542319719E-01 0.  0.
         14    1    1    2    0    0  0.73255703428E-03  0.10015442444E-01 -0.21352008990E-01  0.23595635509E-01  0.00000000000E+00 0. -1.
     999901    1    3    3    0    0 -0.98283146276E-01  0.16214293749E-02  0.10254857449E+00  0.89139128109E+00  0.88000000000E+00 0.  1.
        -11    1    4    4    0    0  0.73182771999E-01 -0.27661493887E-03 -0.61785258730E-01  0.95778254059E-01  0.51100000000E-03 0. -1.
         11    1    4    4    0    0  0.24367817243E-01 -0.11360256880E-01 -0.19411306772E-01  0.33164829340E-01  0.51100000000E-03 0.  1.
</event>
<event>
 8    1  0.1106168E+005  0.1043930E+01  0.7957747E-01            NaN
         13   -1    0    0    0    0  0.00000000000E+00  0.00000000000E+00  0.74505805969E-08  0.10566000000E+00  0.10566000000E+00 0. -1.
     999900   -1    0    0    0    0 -0.00000000000E+00 -0.00000000000E+00 -0.74505805969E-08  0.93827000000E+00  0.93827000000E+00 0.  1.
     999902    2    1    2    0    0  0.17788164701E-01 -0.82334071763E-02  0.16797913080E-01  0.10181157078E+01  0.10177883949E+01 0.  0.
     999903    2    3    3    0    0  0.97319567772E-02  0.12573544322E+00  0.61177603743E-02  0.12787606535E+00  0.20266929544E-01 0.  0.
         14    1    1    2    0    0 -0.17788164701E-01  0.82334071763E-02 -0.16797913080E-01  0.25814292185E-01  0.00000000000E+00 0.  1.
     999901    1    3    3    0    0  0.80562079242E-02 -0.13396885039E+00  0.10680152706E-01  0.89023964247E+00  0.88000000000E+00 0. -1.
        -11    1    4    4    0    0 -0.83349333893E-03  0.48728426116E-01  0.11100669724E-01  0.49986400273E-01  0.51100000000E-03 0.  1.
         11    1    4    4    0    0  0.10565450116E-01  0.77007017099E-01 -0.49829093495E-02  0.77889665073E-01  0.51100000000E-03 0. -1.
</event>
<event>
 8    1  0.1106168E+005  0.1043930E+01  0.7957747E-01            NaN
         13   -1    0    0    0    0  0.00000000000E+00  0.00000000000E+00  0.74505805969E-08  0.10566000000E+00  0.10566000000E+00 0.  1.
     999900   -1    0    0    0    0 -0.00000000000E+00 -0.00000000000E+00 -0.74505805969E-08  0.93827000000E+00  0.93827000000E+00 0.  1.
     999902    2    1    2    0    0 -0.19674732179E-01  0.92274124683E-02  0.81153122545E-02  0.10207330493E+01  0.10204694309E+01 0.  0.
     999903    2    3    3    0    0 -0.74573715638E-01  0.61776325867E-01  0.89849390485E-01  0.13368415202E+00  0.20517944069E-01 0.  0.
         14    1    1    2    0    0  0.19674732179E-01 -0.92274124683E-02 -0.81153122545E-02  0.23196950666E-01  0.00000000000E+00 0. -1.
     999901    1    3    3    0    0  0.54898983459E-01 -0.52548913398E-01 -0.81734078231E-01  0.88704889732E+00  0.88000000000E+00 0.  1.
        -11    1    4    4    0    0 -0.27602528798E-01  0.15432807352E-01  0.19144378655E-01  0.36970792443E-01  0.51100000000E-03 0. -1.
         11    1    4    4    0    0 -0.46971186840E-01  0.46343518515E-01  0.70705011831E-01  0.96713359576E-01  0.51100000000E-03 0.  1.
</event>
<event>
 8    1  0.1106168E+005  0.1043930E+01  0.7957747E-01            NaN
         13   -1    0    0    0    0  0.00000000000E+00  0.00000000000E+00  0.74505805969E-08  0.10566000000E+00  0.10566000000E+00 0. -1.
     999900   -1    0    0    0    0 -0.00000000000E+00 -0.00000000000E+00 -0.74505805969E-08  0.93827000000E+00  0.93827000000E+00 0.  1.
     999902    2    1    2    0    0  0.66380966326E-02  0.64621652731E-02  0.36586566014E-01  0.10061887663E+01  0.10054806974E+01 0.  0.
     999903    2    3    3    0    0  0.54004022357E-01  0.15367389394E-01 -0.97737118162E-01  0.11469244773E+00  0.21194862859E-01 0.  0.
         14    1    1    2    0    0 -0.66380966326E-02 -0.64621652731E-02 -0.36586566014E-01  0.37741233679E-01  0.00000000000E+00 0.  1.
     999901    1    3    3    0    0 -0.47365925724E-01 -0.89052241205E-02  0.13432368418E+00  0.89149631859E+00  0.88000000000E+00 0. -1.
        -11    1    4    4    0    0  0.18148186886E-01  0.13333834453E-01 -0.50961669261E-01  0.55718046298E-01  0.51100000000E-03 0.  1.
         11    1    4    4    0    0  0.35855835471E-01  0.20335549409E-02 -0.46775448901E-01  0.58974401429E-01  0.51100000000E-03 0. -1.
</event>
<event>
 8    1  0.1106168E+005  0.1043930E+01  0.7957747E-01            NaN
         13   -1    0    0    0    0  0.00000000000E+00  0.00000000000E+00  0.74505805969E-08  0.10566000000E+00  0.10566000000E+00 0. -1.
     999900   -1    0    0    0    0 -0.00000000000E+00 -0.00000000000E+00 -0.74505805969E-08  0.93827000000E+00  0.93827000000E+00 0.  1.
     999902    2    1    2    0    0  0.17491085495E-01 -0.57227286954E-03  0.15490813421E-01  0.10205584175E+01  0.10202907687E+01 0.  0.
     999903    2    3    3    0    0  0.28853593431E-01 -0.70273689886E-01  0.10743410962E+00  0.13295435947E+00  0.19074916720E-01 0.  0.
         14    1    1    2    0    0 -0.17491085495E-01  0.57227286954E-03 -0.15490813421E-01  0.23371582498E-01  0.00000000000E+00 0. -1.
     999901    1    3    3    0    0 -0.11362507937E-01  0.69701417017E-01 -0.91943296199E-01  0.88760405803E+00  0.88000000000E+00 0. -1.
        -11    1    4    4    0    0  0.92793924856E-02 -0.25721554662E-01  0.24106315027E-01  0.36456563803E-01  0.51100000000E-03 0. -1.
         11    1    4    4    0    0  0.19574200946E-01 -0.44552135224E-01  0.83327794593E-01  0.96497795666E-01  0.51100000000E-03 0.  1.
</event>
<event>
 8    1  0.1106168E+005  0.1043930E+01  0.7957747E-01            NaN
         13   -1    0    0    0    0  0.00000000000E+00  0.00000000000E+00  0.74505805969E-08  0.10566000000E+00  0.10566000000E+00 0.  1.
     999900   -1    0    0    0    0 -0.00000000000E+00 -0.00000000000E+00 -0.74505805969E-08  0.93827000000E+00  0.93827000000E+00 0. -1.
     999902    2    1    2    0    0  0.10666384266E-01  0.15753272318E-01 -0.18104219712E-01  0.10176678578E+01  0.10173289383E+01 0.  0.
     999903    2    3    3    0    0 -0.27254819728E-01  0.16271629781E-01 -0.12509431123E+00  0.13037694378E+00  0.18492420977E-01 0.  0.
         14    1    1    2    0    0 -0.10666384266E-01 -0.15753272318E-01  0.18104219712E-01  0.26262142209E-01  0.00000000000E+00 0.  1.
     999901    1    3    3    0    0  0.37921203994E-01 -0.51835746308E-03  0.10699009152E+00  0.88729091401E+00  0.88000000000E+00 0.  1.
        -11    1    4    4    0    0 -0.63971330972E-02  0.14427603904E-01 -0.54134026837E-01  0.56390008413E-01  0.51100000000E-03 0.  1.
         11    1    4    4    0    0 -0.20857686631E-01  0.18440258766E-02 -0.70960284390E-01  0.73986935365E-01  0.51100000000E-03 0. -1.
</event>
<event>
 8    1  0.1106168E+005  0.1043930E+01  0.7957747E-01            NaN
         13   -1    0    0    0    0  0.00000000000E+00  0.00000000000E+00  0.74505805969E-08  0.10566000000E+00  0.10566000000E+00 0. -1.
     999900   -1    0    0    0    0 -0.00000000000E+00 -0.00000000000E+00 -0.74505805969E-08  0.93827000000E+00  0.93827000000E+00 0. -1.
     999902    2    1    2    0    0 -0.10543762935E-01  0.21176583113E-01 -0.10099951041E-02  0.10202521897E+01  0.10199773978E+01 0.  0.
     999903    2    3    3    0    0 -0.12552571480E+00  0.22209364847E-01 -0.29104356190E-01  0.13232696257E+00  0.20332253025E-01 0.  0.
         14    1    1    2    0    0  0.10543762935E-01 -0.21176583113E-01  0.10099951041E-02  0.23677810272E-01  0.00000000000E+00 0. -1.
     999901    1    3    3    0    0  0.11498195186E+00 -0.10327817337E-02  0.28094361085E-01  0.88792522715E+00  0.88000000000E+00 0.  1.
        -11    1    4    4    0    0 -0.65072266892E-01  0.12413786524E-01 -0.47487847544E-02  0.66417724230E-01  0.51100000000E-03 0.  1.
         11    1    4    4    0    0 -0.60453447904E-01  0.97955783223E-02 -0.24355571435E-01  0.65909238344E-01  0.51100000000E-03 0. -1.
</event>
<event>
 8    1  0.1106168E+005  0.1043930E+01  0.7957747E-01            NaN
         13   -1    0    0    0    0  0.00000000000E+00  0.00000000000E+00  0.74505805969E-08  0.10566000000E+00  0.10566000000E+00 0.  1.
     999900   -1    0    0    0    0 -0.00000000000E+00 -0.00000000000E+00 -0.74505805969E-08  0.93827000000E+00  0.93827000000E+00 0.  1.
     999902    2    1    2    0    0 -0.48669859596E-02  0.23178450497E-01  0.14770142456E-01  0.10160179018E+01  0.10156344281E+01 0.  0.
     999903    2    3    3    0    0  0.89058799750E-01  0.54205538745E-01  0.72537726111E-01  0.12859363618E+00  0.20121911266E-01 0.  0.
         14    1    1    2    0    0  0.48669859596E-02 -0.23178450497E-01 -0.14770142456E-01  0.27912098237E-01  0.00000000000E+00 0. -1.
     999901    1    3    3    0    0 -0.93925785709E-01 -0.31027088247E-01 -0.57767583655E-01  0.88742426558E+00  0.88000000000E+00 0. -1.
        -11    1    4    4    0    0  0.58150224195E-01  0.41995698882E-01  0.58302869329E-01  0.92436859485E-01  0.51100000000E-03 0. -1.
         11    1    4    4    0    0  0.30908575555E-01  0.12209839863E-01  0.14234856782E-01  0.36156776694E-01  0.51100000000E-03 0.  1.
</event>
<event>
 8    1  0.1106168E+005  0.1043930E+01  0.7957747E-01            NaN
         13   -1    0    0    0    0  0.00000000000E+00  0.00000000000E+00  0.74505805969E-08  0.10566000000E+00  0.10566000000E+00 0.  1.
     999900   -1    0    0    0    0 -0.00000000000E+00 -0.00000000000E+00 -0.74505805969E-08  0.93827000000E+00  0.93827000000E+00 0.  1.
     999902    2    1    2    0    0  0.10241816787E-01 -0.32331063426E-02  0.20657794803E-01  0.10206471249E+01  0.10203815273E+01 0.  0.
     999903    2    3    3    0    0 -0.13998805596E-01 -0.87039080974E-01  0.96881146063E-01  0.13305428555E+00  0.23360613545E-01 0.  0.
         14    1    1    2    0    0 -0.10241816787E-01  0.32331063426E-02 -0.20657794803E-01  0.23282875120E-01  0.00000000000E+00 0. -1.
     999901    1    3    3    0    0  0.24240622383E-01  0.83805974631E-01 -0.76223351260E-01  0.88759283933E+00  0.88000000000E+00 0.  1.
        -11    1    4    4    0    0  0.64751502489E-02 -0.16243403422E-01  0.19276634044E-01  0.26031240203E-01  0.51100000000E-03 0.  1.
         11    1    4    4    0    0 -0.20473955845E-01 -0.70795677552E-01  0.77604512019E-01  0.10702304534E+00  0.51100000000E-03 0. -1.
</event>
<event>
 8    1  0.1106168E+005  0.1043930E+01  0.7957747E-01            NaN
         13   -1    0    0    0    0  0.00000000000E+00  0.00000000000E+00  0.74505805969E-08  0.10566000000E+00  0.10566000000E+00 0.  1.
     999900   -1    0    0    0    0 -0.00000000000E+00 -0.00000000000E+00 -0.74505805969E-08  0.93827000000E+00  0.93827000000E+00 0. -1.
     999902    2    1    2    0    0  0.20044269705E-02  0.19498609073E-01  0.11723893521E-01  0.10210900534E+01  0.10208345772E+01 0.  0.
     999903    2    3    3    0    0 -0.55059630948E-01  0.22714573646E-01  0.11713215202E+00  0.13295855966E+00  0.20261360620E-01 0.  0.
         14    1    1    2    0    0 -0.20044269705E-02 -0.19498609073E-01 -0.11723893521E-01  0.22839946641E-01  0.00000000000E+00 0.  1.
     999901    1    3    3    0    0  0.57064057919E-01 -0.32159645730E-02 -0.10540825850E+00  0.88813149370E+00  0.88000000000E+00 0. -1.
        -11    1    4    4    0    0 -0.19060398721E-01  0.18071902953E-01  0.56105312753E-01  0.61951268881E-01  0.51100000000E-03 0. -1.
         11    1    4    4    0    0 -0.35999232227E-01  0.46426706926E-02  0.61026839270E-01  0.71007290783E-01  0.51100000000E-03 0.  1.
</event>
<event>
 8    1  0.1106168E+005  0.1043930E+01  0.7957747E-01            NaN
         13   -1    0    0    0    0  0.00000000000E+00  0.00000000000E+00  0.74505805969E-08  0.10566000000E+00  0.10566000000E+00 0.  1.
     999900   -1    0    0    0    0 -0.00000000000E+00 -0.00000000000E+00 -0.74505805969E-08  0.93827000000E+00  0.93827000000E+00 0. -1.
     999902    2    1    2    0    0 -0.52467085282E-02 -0.22426842662E-01 -0.45261525161E-02  0.10204570948E+01  0.10201870932E+01 0.  0.
     999903    2    3    3    0    0  0.78953486164E-01 -0.10413380298E+00 -0.12316111989E-01  0.13263595086E+00  0.19055365234E-01 0.  0.
         14    1    1    2    0    0  0.52467085282E-02  0.22426842662E-01  0.45261525161E-02  0.23472905205E-01  0.00000000000E+00 0.  1.
     999901    1    3    3    0    0 -0.84200194692E-01  0.81706960323E-01  0.77899594732E-02  0.88782114394E+00  0.88000000000E+00 0. -1.
        -11    1    4    4    0    0  0.37783847414E-01 -0.47663411823E-01 -0.15181073287E-01  0.62690877001E-01  0.51100000000E-03 0.  1.
         11    1    4    4    0    0  0.41169638750E-01 -0.56470391162E-01  0.28649612973E-02  0.69945073858E-01  0.51100000000E-03 0. -1.
</event>
<event>
 8    1  0.1106168E+005  0.1043930E+01  0.7957747E-01            NaN
         13   -1    0    0    0    0  0.00000000000E+00  0.00000000000E+00  0.74505805969E-08  0.10566000000E+00  0.10566000000E+00 0. -1.
     999900   -1    0    0    0    0 -0.00000000000E+00 -0.00000000000E+00 -0.74505805969E-08  0.93827000000E+00  0.93827000000E+00 0. -1.
     999902    2    1    2    0    0  0.97134345050E-02 -0.20783637586E-01  0.43473849704E-02  0.10205802643E+01  0.10203131214E+01 0.  0.
     999903    2    3    3    0    0  0.10892694567E+00 -0.74468439867E-01 -0.53050643402E-02  0.13332689092E+00  0.18365405169E-01 0.  0.
         14    1    1    2    0    0 -0.97134345050E-02  0.20783637586E-01 -0.43473849704E-02  0.23349735700E-01  0.00000000000E+00 0.  1.
     999901    1    3    3    0    0 -0.99213511160E-01  0.53684802281E-01  0.96524493106E-02  0.88725337338E+00  0.88000000000E+00 0. -1.
        -11    1    4    4    0    0  0.40142352253E-01 -0.24173019953E-01 -0.10254996546E-01  0.47970505659E-01  0.51100000000E-03 0. -1.
         11    1    4    4    0    0  0.68784593412E-01 -0.50295419915E-01  0.49499322061E-02  0.85356385263E-01  0.51100000000E-03 0.  1.
</event>
<event>
 8    1  0.1106168E+005  0.1043930E+01  0.7957747E-01            NaN
         13   -1    0    0    0    0  0.00000000000E+00  0.00000000000E+00  0.74505805969E-08  0.10566000000E+00  0.10566000000E+00 0. -1.
     999900   -1    0    0    0    0 -0.00000000000E+00 -0.00000000000E+00 -0.74505805969E-08  0.93827000000E+00  0.93827000000E+00 0. -1.
     999902    2    1    2    0    0 -0.17595606899E-01 -0.19901094167E-02 -0.16087900413E-01  0.10200054006E+01  0.10197247819E+01 0.  0.
     999903    2    3    3    0    0 -0.63596803320E-01 -0.83994118216E-01 -0.78525838301E-01  0.13279670832E+00  0.19211797759E-01 0.  0.
         14    1    1    2    0    0  0.17595606899E-01  0.19901094167E-02  0.16087900413E-01  0.23924599418E-01  0.00000000000E+00 0.  1.
     999901    1    3    3    0    0  0.46001196421E-01  0.82004008799E-01  0.62437937889E-01  0.88720869226E+00  0.88000000000E+00 0.  1.
        -11    1    4    4    0    0 -0.12303462254E-01 -0.30271211940E-01 -0.27072824719E-01  0.42437252680E-01  0.51100000000E-03 0. -1.
         11    1    4    4    0    0 -0.51293341066E-01 -0.53722906276E-01 -0.51453013582E-01  0.90359455643E-01  0.51100000000E-03 0.  1.
</event>
<event>
 8    1  0.1106168E+005  0.1043930E+01  0.7957747E-01            NaN
         13   -1    0    0    0    0  0.00000000000E+00  0.00000000000E+00  0.74505805969E-08  0.10566000000E+00  0.10566000000E+00 0. -1.
     999900   -1    0    0    0    0 -0.00000000000E+00 -0.00000000000E+00 -0.74505805969E-08  0.93827000000E+00  0.93827000000E+00 0.  1.
     999902    2    1    2    0    0  0.21707208531E-01  0.73786182067E-02 -0.67498654551E-02  0.10200300504E+01  0.10197500165E+01 0.  0.
     999903    2    3    3    0    0  0.20615626435E-01  0.20060646467E-01  0.12460332790E+00  0.13018979122E+00  0.24412267886E-01 0.  0.
         14    1    1    2    0    0 -0.21707208531E-01 -0.73786182067E-02  0.67498654551E-02  0.23899949634E-01  0.00000000000E+00 0. -1.
     999901    1    3    3    0    0  0.10915820957E-02 -0.12682028260E-01 -0.13135319336E+00  0.88984025915E+00  0.88000000000E+00 0.  1.
        -11    1    4    4    0    0  0.16291322658E-01  0.12650192664E-01  0.38690051971E-01  0.43847643163E-01  0.51100000000E-03 0.  1.
         11    1    4    4    0    0  0.43243037769E-02  0.74104538022E-02  0.85913275932E-01  0.86342148057E-01  0.51100000000E-03 0. -1.
</event>
<event>
 8    1  0.1106168E+005  0.1043930E+01  0.7957747E-01            NaN
         13   -1    0    0    0    0  0.00000000000E+00  0.00000000000E+00  0.74505805969E-08  0.10566000000E+00  0.10566000000E+00 0.  1.
     999900   -1    0    0    0    0 -0.00000000000E+00 -0.00000000000E+00 -0.74505805969E-08  0.93827000000E+00  0.93827000000E+00 0.  1.
     999902    2    1    2    0    0  0.10628261804E-01  0.19802938174E-01 -0.53843789314E-02  0.10208192266E+01  0.10205575856E+01 0.  0.
     999903    2    3    3    0    0 -0.59012366249E-01  0.43744628537E-01 -0.10807081762E+00  0.13179305924E+00  0.17148088690E-01 0.  0.
         14    1    1    2    0    0 -0.10628261804E-01 -0.19802938174E-01  0.53843789314E-02  0.23110773371E-01  0.00000000000E+00 0. -1.
     999901    1    3    3    0    0  0.69640628053E-01 -0.23941690363E-01  0.10268643869E+00  0.88902616739E+00  0.88000000000E+00 0. -1.
        -11    1    4    4    0    0 -0.17907219561E-01  0.12195952979E-01 -0.19378025139E-01  0.29071958323E-01  0.51100000000E-03 0.  1.
         11    1    4    4    0    0 -0.41105146688E-01  0.31548675558E-01 -0.88692792484E-01  0.10272110092E+00  0.51100000000E-03 0. -1.
</event>
<event>
 8    1  0.1106168E+005  0.1043930E+01  0.7957747E-01            NaN
         13   -1    0    0    0    0  0.00000000000E+00  0.00000000000E+00  0.74505805969E-08  0.10566000000E+00  0.10566000000E+00 0. -1.
     999900   -1    0    0    0    0 -0.00000000000E+00 -0.00000000000E+00 -0.74505805969E-08  0.93827000000E+00  0.93827000000E+00 0. -1.
     999902    2    1    2    0    0 -0.11541189329E-01  0.15851779754E-02 -0.20611442000E-01  0.10202542026E+01  0.10199794579E+01 0.  0.
     999903    2    3    3    0    0 -0.11397045970E+00 -0.28089856332E-01 -0.59369808813E-01  0.13296925736E+00  0.19435624240E-01 0.  0.
         14    1    1    2    0    0  0.11541189329E-01 -0.15851779754E-02  0.20611442000E-01  0.23675797382E-01  0.00000000000E+00 0. -1.
     999901    1    3    3    0    0  0.10242927037E+00  0.29675034307E-01  0.38758366813E-01  0.88728494526E+00  0.88000000000E+00 0. -1.
        -11    1    4    4    0    0 -0.37870424753E-01 -0.32806927449E-02 -0.11560485172E-01  0.39734593924E-01  0.51100000000E-03 0.  1.
         11    1    4    4    0    0 -0.76100034950E-01 -0.24809163587E-01 -0.47809323642E-01  0.93234663433E-01  0.51100000000E-03 0. -1.
</event>
<event>
 8    1  0.1106168E+005  0.1043930E+01  0.7957747E-01            NaN
         13   -1    0    0    0    0  0.00000000000E+00  0.00000000000E+00  0.74505805969E-08  0.10566000000E+00  0.10566000000E+00 0.  1.
     999900   -1    0    0    0    0 -0.00000000000E+00 -0.00000000000E+00 -0.74505805969E-08  0.93827000000E+00  0.93827000000E+00 0.  1.
     999902    2    1    2    0    0 -0.11437776637E-01  0.22118039166E-01  0.21740552447E-02  0.10189348623E+01  0.10186282427E+01 0.  0.
     999903    2    3    3    0    0  0.14404349475E-01  0.41970647304E-02  0.12718754991E+00  0.12954330027E+00  0.19485716761E-01 0.  0.
         14    1    1    2    0    0  0.11437776637E-01 -0.22118039166E-01 -0.21740552447E-02  0.24995137671E-01  0.00000000000E+00 0. -1.
     999901    1    3    3    0    0 -0.25842126112E-01  0.17920974436E-01 -0.12501349467E+00  0.88939156206E+00  0.88000000000E+00 0.  1.
        -11    1    4    4    0    0  0.14162925182E-01 -0.32879540924E-02  0.52469225514E-01  0.54448873623E-01  0.51100000000E-03 0.  1.
         11    1    4    4    0    0  0.24142429313E-03  0.74850188228E-02  0.74718324396E-01  0.75094426651E-01  0.51100000000E-03 0. -1.
</event>
<event>
 8    1  0.1106168E+005  0.1043930E+01  0.7957747E-01            NaN
         13   -1    0    0    0    0  0.00000000000E+00  0.00000000000E+00  0.74505805969E-08  0.10566000000E+00  0.10566000000E+00 0. -1.
     999900   -1    0    0    0    0 -0.00000000000E+00 -0.00000000000E+00 -0.74505805969E-08  0.93827000000E+00  0.93827000000E+00 0.  1.
     999902    2    1    2    0    0  0.14354005022E-01  0.18817166867E-01 -0.61116441860E-02  0.10194866896E+01  0.10191936199E+01 0.  0.
     999903    2    3    3    0    0 -0.73778689515E-01 -0.18641061650E-01  0.10050169451E+00  0.12789435297E+00  0.21577551222E-01 0.  0.
         14    1    1    2    0    0 -0.14354005022E-01 -0.18817166867E-01  0.61116441860E-02  0.24443310409E-01  0.00000000000E+00 0.  1.
     999901    1    3    3    0    0  0.88132694537E-01  0.37458228517E-01 -0.10661333870E+00  0.89159233662E+00  0.88000000000E+00 0.  1.
        -11    1    4    4    0    0 -0.38151278023E-01  0.25330739817E-03  0.40949992167E-01  0.55970949240E-01  0.51100000000E-03 0.  1.
         11    1    4    4    0    0 -0.35627411493E-01 -0.18894369048E-01  0.59551702343E-01  0.71923403732E-01  0.51100000000E-03 0. -1.
</event>
<event>
 8    1  0.1106168E+005  0.1043930E+01  0.7957747E-01            NaN
         13   -1    0    0    0    0  0.00000000000E+00  0.00000000000E+00  0.74505805969E-08  0.10566000000E+00  0.10566000000E+00 0.  1.
     999900   -1    0    0    0    0 -0.00000000000E+00 -0.00000000000E+00 -0.74505805969E-08  0.93827000000E+00  0.93827000000E+00 0. -1.
     999902    2    1    2    0    0 -0.96692333047E-02 -0.20328876593E-01  0.63865395542E-02  0.10205303166E+01  0.10202620163E+01 0.  0.
     999903    2    3    3    0    0  0.60396632204E-01  0.55835531334E-01 -0.96687837785E-01  0.12849076040E+00  0.19899190727E-01 0.  0.
         14    1    1    2    0    0  0.96692333047E-02  0.20328876593E-01 -0.63865395542E-02  0.23399683411E-01  0.00000000000E+00 0.  1.
     999901    1    3    3    0    0 -0.70065865508E-01 -0.76164407927E-01  0.10307437734E+00  0.89203955619E+00  0.88000000000E+00 0.  1.
        -11    1    4    4    0    0  0.41059239077E-01  0.44158753823E-01 -0.81011579082E-01  0.10099006743E+00  0.51100000000E-03 0. -1.
         11    1    4    4    0    0  0.19337393126E-01  0.11676777510E-01 -0.15676258702E-01  0.27500692970E-01  0.51100000000E-03 0.  1.
</event>
<event>
 8    1  0.1106168E+005  0.1043930E+01  0.7957747E-01            NaN
         13   -1    0    0    0    0  0.00000000000E+00  0.00000000000E+00  0.74505805969E-08  0.10566000000E+00  0.10566000000E+00 0.  1.
     999900   -1    0    0    0    0 -0.00000000000E+00 -0.00000000000E+00 -0.74505805969E-08  0.93827000000E+00  0.93827000000E+00 0.  1.
     999902    2    1    2    0    0 -0.12520055007E-01 -0.12126389668E-01 -0.16598404645E-01  0.10198611791E+01  0.10195771263E+01 0.  0.
     999903    2    3    3    0    0  0.12242661012E+00 -0.65975065492E-02 -0.36317943424E-01  0.12933884293E+00  0.19435568363E-01 0.  0.
         14    1    1    2    0    0  0.12520055007E-01  0.12126389668E-01  0.16598404645E-01  0.24068820920E-01  0.00000000000E+00 0.  1.
     999901    1    3    3    0    0 -0.13494666512E+00 -0.55288831186E-02  0.19719538779E-01  0.89052233615E+00  0.88000000000E+00 0. -1.
        -11    1    4    4    0    0  0.18693579949E-01 -0.55427317279E-02 -0.11605815554E-01  0.22696428838E-01  0.51100000000E-03 0. -1.
         11    1    4    4    0    0  0.10373303017E+00 -0.10547748213E-02 -0.24712127869E-01  0.10664241409E+00  0.51100000000E-03 0.  1.
</event>
<event>
 8    1  0.1106168E+005  0.1043930E+01  0.7957747E-01            NaN
         13   -1    0    0    0    0  0.00000000000E+00  0.00000000000E+00  0.74505805969E-08  0.10566000000E+00  0.10566000000E+00 0.  1.
     999900   -1    0    0    0    0 -0.00000000000E+00 -0.00000000000E+00 -0.74505805969E-08  0.93827000000E+00  0.93827000000E+00 0. -1.
     999902    2    1    2    0    0 -0.13633349685E-01  0.75729928265E-02  0.16555291786E-02  0.10282469129E+01  0.10281273047E+01 0.  0.
     999903    2    3    3    0    0 -0.22976284387E-01  0.13455865101E-01 -0.13404761092E+00  0.13777667710E+00  0.17455108475E-01 0.  0.
         14    1    1    2    0    0  0.13633349685E-01 -0.75729928265E-02 -0.16555291786E-02  0.15683087095E-01  0.00000000000E+00 0. -1.
     999901    1    3    3    0    0  0.93429347018E-02 -0.58828722743E-02  0.13570314009E+00  0.89047023580E+00  0.88000000000E+00 0.  1.
        -11    1    4    4    0    0  0.11279936631E-02  0.49136590226E-02 -0.39746034056E-01  0.40067752107E-01  0.51100000000E-03 0. -1.
         11    1    4    4    0    0 -0.24104278050E-01  0.85422060782E-02 -0.94301576859E-01  0.97708924997E-01  0.51100000000E-03 0.  1.
</event>
<event>
 8    1  0.1106168E+005  0.1043930E+01  0.7957747E-01            NaN
         13   -1    0    0    0    0  0.00000000000E+00  0.00000000000E+00  0.74505805969E-08  0.10566000000E+00  0.10566000000E+00 0.  1.
     999900   -1    0    0    0    0 -0.00000000000E+00 -0.00000000000E+00 -0.74505805969E-08  0.93827000000E+00  0.93827000000E+00 0.  1.
     999902    2    1    2    0    0  0.40366230313E-02 -0.75002039732E-02  0.23332380407E-01  0.10190915749E+01  0.10187888352E+01 0.  0.
     999903    2    3    3    0    0  0.33102336491E-01  0.11880652560E+00 -0.28410220799E-01  0.12809465999E+00  0.19757177585E-01 0.  0.
         14    1    1    2    0    0 -0.40366230313E-02  0.75002039732E-02 -0.23332380407E-01  0.24838425083E-01  0.00000000000E+00 0. -1.
     999901    1    3    3    0    0 -0.29065713460E-01 -0.12630672957E+00  0.51742601206E-01  0.89099691493E+00  0.88000000000E+00 0. -1.
        -11    1    4    4    0    0  0.20770436462E-01  0.74896305072E-01 -0.27587211665E-01  0.82475347303E-01  0.51100000000E-03 0. -1.
         11    1    4    4    0    0  0.12331900030E-01  0.43910220525E-01 -0.82300913381E-03  0.45619312685E-01  0.51100000000E-03 0.  1.
</event>
<event>
 8    1  0.1106168E+005  0.1043930E+01  0.7957747E-01            NaN
         13   -1    0    0    0    0  0.00000000000E+00  0.00000000000E+00  0.74505805969E-08  0.10566000000E+00  0.10566000000E+00 0. -1.
     999900   -1    0    0    0    0 -0.00000000000E+00 -0.00000000000E+00 -0.74505805969E-08  0.93827000000E+00  0.93827000000E+00 0. -1.
     999902    2    1    2    0    0  0.21978809000E-01  0.22477453144E-02  0.55876684611E-02  0.10211409140E+01  0.10208865871E+01 0.  0.
     999903    2    3    3    0    0 -0.36455068886E-01  0.36399063827E-01  0.11807053379E+00  0.13140318539E+00  0.25928406912E-01 0.  0.
         14    1    1    2    0    0 -0.21978809000E-01 -0.22477453144E-02 -0.55876684611E-02  0.22789086047E-01  0.00000000000E+00 0. -1.
     999901    1    3    3    0    0  0.58433877885E-01 -0.34151318513E-01 -0.11248286533E+00  0.88973772857E+00  0.88000000000E+00 0. -1.
        -11    1    4    4    0    0 -0.19768484338E-01  0.35110686512E-02  0.32247404095E-01  0.37990482597E-01  0.51100000000E-03 0.  1.
         11    1    4    4    0    0 -0.16686584548E-01  0.32887995176E-01  0.85823129697E-01  0.93412702790E-01  0.51100000000E-03 0. -1.
</event>
<event>
 8    1  0.1106168E+005  0.1043930E+01  0.7957747E-01            NaN
         13   -1    0    0    0    0  0.00000000000E+00  0.00000000000E+00  0.74505805969E-08  0.10566000000E+00  0.10566000000E+00 0.  1.
     999900   -1    0    0    0    0 -0.00000000000E+00 -0.00000000000E+00 -0.74505805969E-08  0.93827000000E+00  0.93827000000E+00 0.  1.
     999902    2    1    2    0    0  0.34116889686E-02 -0.15504631518E-01 -0.17830436661E-01  0.10200562133E+01  0.10197767994E+01 0.  0.
     999903    2    3    3    0    0  0.76401465668E-01 -0.52674570334E-01 -0.93178665635E-01  0.13304636698E+00  0.20181122870E-01 0.  0.
         14    1    1    2    0    0 -0.34116889686E-02  0.15504631518E-01  0.17830436661E-01  0.23873786705E-01  0.00000000000E+00 0.  1.
     999901    1    3    3    0    0 -0.72989776699E-01  0.37169938816E-01  0.75348228975E-01  0.88700984632E+00  0.88000000000E+00 0. -1.
        -11    1    4    4    0    0  0.66269527042E-01 -0.50878385391E-01 -0.88574080536E-01  0.12176160798E+00  0.51100000000E-03 0. -1.
         11    1    4    4    0    0  0.10131938626E-01 -0.17961849431E-02 -0.46045850992E-02  0.11284758997E-01  0.51100000000E-03 0.  1.
</event>
<event>
 8    1  0.1106168E+005  0.1043930E+01  0.7957747E-01            NaN
         13   -1    0    0    0    0  0.00000000000E+00  0.00000000000E+00  0.74505805969E-08  0.10566000000E+00  0.10566000000E+00 0. -1.
     999900   -1    0    0    0    0 -0.00000000000E+00 -0.00000000000E+00 -0.74505805969E-08  0.93827000000E+00  0.93827000000E+00 0.  1.
     999902    2    1    2    0    0  0.70110158942E-02 -0.10613152321E-02 -0.21907401807E-01  0.10209036024E+01  0.10206438901E+01 0.  0.
     999903    2    3    3    0    0  0.11243034310E+00  0.65530936803E-01  0.18093113392E-02  0.13179717170E+00  0.20792670133E-01 0.  0.
         14    1    1    2    0    0 -0.70110158942E-02  0.10613152321E-02  0.21907401807E-01  0.23026397630E-01  0.00000000000E+00 0. -1.
     999901    1    3    3    0    0 -0.10541932721E+00 -0.66592252035E-01 -0.23716713146E-01  0.88910643067E+00  0.88000000000E+00 0.  1.
        -11    1    4    4    0    0  0.32803846281E-01  0.86682255690E-02  0.92912783813E-03  0.33946352748E-01  0.51100000000E-03 0. -1.
         11    1    4    4    0    0  0.79626496823E-01  0.56862711234E-01  0.88018350103E-03  0.97850818950E-01  0.51100000000E-03 0.  1.
</event>
<event>
 8    1  0.1106168E+005  0.1043930E+01  0.7957747E-01            NaN
         13   -1    0    0    0    0  0.00000000000E+00  0.00000000000E+00  0.74505805969E-08  0.10566000000E+00  0.10566000000E+00 0.  1.
     999900   -1    0    0    0    0 -0.00000000000E+00 -0.00000000000E+00 -0.74505805969E-08  0.93827000000E+00  0.93827000000E+00 0.  1.
     999902    2    1    2    0    0 -0.48343674257E-02  0.10854463951E-02  0.22315541806E-01  0.10210710256E+01  0.10208151188E+01 0.  0.
     999903    2    3    3    0    0  0.65962653048E-01  0.61050202018E-01 -0.87218351369E-01  0.12944012456E+00  0.32703306660E-01 0.  0.
         14    1    1    2    0    0  0.48343674257E-02 -0.10854463951E-02 -0.22315541806E-01  0.22858974351E-01  0.00000000000E+00 0. -1.
     999901    1    3    3    0    0 -0.70797020474E-01 -0.59964755623E-01  0.10953389318E+00  0.89163090109E+00  0.88000000000E+00 0.  1.
        -11    1    4    4    0    0  0.37518620569E-01  0.17537984475E-01 -0.25068839451E-01  0.48414208877E-01  0.51100000000E-03 0.  1.
         11    1    4    4    0    0  0.28444032480E-01  0.43512217543E-01 -0.62149511919E-01  0.81025915681E-01  0.51100000000E-03 0. -1.
</event>
<event>
 8    1  0.1106168E+005  0.1043930E+01  0.7957747E-01            NaN
         13   -1    0    0    0    0  0.00000000000E+00  0.00000000000E+00  0.74505805969E-08  0.10566000000E+00  0.10566000000E+00 0.  1.
     999900   -1    0    0    0    0 -0.00000000000E+00 -0.00000000000E+00 -0.74505805969E-08  0.93827000000E+00  0.93827000000E+00 0. -1.
     999902    2    1    2    0    0 -0.11123055073E-01  0.27597457121E-02  0.20070891072E-01  0.10208176825E+01  0.10205560062E+01 0.  0.
     999903    2    3    3    0    0 -0.16217190460E-01  0.69420601518E-02 -0.12634848971E+00  0.12869545041E+00  0.16952540768E-01 0.  0.
         14    1    1    2    0    0  0.11123055073E-01 -0.27597457121E-02 -0.20070891072E-01  0.23112317473E-01  0.00000000000E+00 0. -1.
     999901    1    3    3    0    0  0.50941353867E-02 -0.41823144398E-02  0.14641938078E+00  0.89212223212E+00  0.88000000000E+00 0.  1.
        -11    1    4    4    0    0 -0.18658749793E-01  0.93610039028E-02 -0.10364424242E+00  0.10572685300E+00  0.51100000000E-03 0.  1.
         11    1    4    4    0    0  0.24415593334E-02 -0.24189437509E-02 -0.22704247290E-01  0.22968597408E-01  0.51100000000E-03 0. -1.
</event>
<event>
 8    1  0.1106168E+005  0.1043930E+01  0.7957747E-01            NaN
         13   -1    0    0    0    0  0.00000000000E+00  0.00000000000E+00  0.74505805969E-08  0.10566000000E+00  0.10566000000E+00 0. -1.
     999900   -1    0    0    0    0 -0.00000000000E+00 -0.00000000000E+00 -0.74505805969E-08  0.93827000000E+00  0.93827000000E+00 0. -1.
     999902    2    1    2    0    0  0.10372205559E-01  0.16911066441E-01 -0.14294049748E-01  0.10194782787E+01  0.10191850048E+01 0.  0.
     999903    2    3    3    0    0  0.65935093720E-01 -0.39094817944E-01  0.10137076528E+00  0.12841024366E+00  0.18366198613E-01 0.  0.
         14    1    1    2    0    0 -0.10372205559E-01 -0.16911066441E-01  0.14294049748E-01  0.24451721300E-01  0.00000000000E+00 0. -1.
     999901    1    3    3    0    0 -0.55562888161E-01  0.56005884385E-01 -0.11566481502E+00  0.89106803503E+00  0.88000000000E+00 0. -1.
        -11    1    4    4    0    0  0.31728734532E-01 -0.20301055895E-01  0.35045113833E-01  0.51451594630E-01  0.51100000000E-03 0.  1.
         11    1    4    4    0    0  0.34206359188E-01 -0.18793762049E-01  0.66325651443E-01  0.76958649034E-01  0.51100000000E-03 0. -1.
</event>
<event>
 8    1  0.1106168E+005  0.1043930E+01  0.7957747E-01            NaN
         13   -1    0    0    0    0  0.00000000000E+00  0.00000000000E+00  0.74505805969E-08  0.10566000000E+00  0.10566000000E+00 0. -1.
     999900   -1    0    0    0    0 -0.00000000000E+00 -0.00000000000E+00 -0.74505805969E-08  0.93827000000E+00  0.93827000000E+00 0.  1.
     999902    2    1    2    0    0 -0.14040076366E-01 -0.18781233584E-01  0.37617176549E-02  0.10201811264E+01  0.10199046630E+01 0.  0.
     999903    2    3    3    0    0  0.11340878703E+00 -0.59690746095E-01  0.89060767538E-02  0.13004447089E+00  0.20191782012E-01 0.  0.
         14    1    1    2    0    0  0.14040076366E-01  0.18781233584E-01 -0.37617176549E-02  0.23748873637E-01  0.00000000000E+00 0. -1.
     999901    1    3    3    0    0 -0.12744886339E+00  0.40909512511E-01 -0.51443590989E-02  0.89013665548E+00  0.88000000000E+00 0.  1.
        -11    1    4    4    0    0  0.89151096084E-01 -0.41431058483E-01  0.13844179202E-01  0.99279267517E-01  0.51100000000E-03 0. -1.
         11    1    4    4    0    0  0.24257690942E-01 -0.18259687612E-01 -0.49381024483E-02  0.30765203369E-01  0.51100000000E-03 0.  1.
</event>
<event>
 8    1  0.1106168E+005  0.1043930E+01  0.7957747E-01            NaN
         13   -1    0    0    0    0  0.00000000000E+00  0.00000000000E+00  0.74505805969E-08  0.10566000000E+00  0.10566000000E+00 0. -1.
     999900   -1    0    0    0    0 -0.00000000000E+00 -0.00000000000E+00 -0.74505805969E-08  0.93827000000E+00  0.93827000000E+00 0. -1.
     999902    2    1    2    0    0 -0.16347037175E-01  0.10121227501E-01  0.14473258033E-01  0.10198646708E+01  0.10195807014E+01 0.  0.
     999903    2    3    3    0    0 -0.73135280779E-01  0.10621375369E+00 -0.20746350633E-01  0.13211521346E+00  0.19846606688E-01 0.  0.
         14    1    1    2    0    0  0.16347037175E-01 -0.10121227501E-01 -0.14473258033E-01  0.24065329181E-01  0.00000000000E+00 0.  1.
     999901    1    3    3    0    0  0.56788243604E-01 -0.96092526186E-01  0.35219608666E-01  0.88774945736E+00  0.88000000000E+00 0.  1.
        -11    1    4    4    0    0 -0.68185343710E-01  0.90639074613E-01 -0.22621874388E-01  0.11565765545E+00  0.51100000000E-03 0. -1.
         11    1    4    4    0    0 -0.49499370691E-02  0.15574679074E-01  0.18755237552E-02  0.16457558008E-01  0.51100000000E-03 0.  1.
</event>
<event>
 8    1  0.1106168E+005  0.1043930E+01  0.7957747E-01            NaN
         13   -1    0    0    0    0  0.00000000000E+00  0.00000000000E+00  0.74505805969E-08  0.10566000000E+00  0.10566000000E+00 0.  1.
     999900   -1    0    0    0    0 -0.00000000000E+00 -0.00000000000E+00 -0.74505805969E-08  0.93827000000E+00  0.93827000000E+00 0.  1.
     999902    2    1    2    0    0 -0.57047227022E-02 -0.21069559085E-01  0.24804969398E-02  0.10219613167E+01  0.10217251635E+01 0.  0.
     999903    2    3    3    0    0  0.25367997884E-01 -0.12781164536E+00  0.15982796320E-01  0.13486397196E+00  0.30878619584E-01 0.  0.
         14    1    1    2    0    0  0.57047227022E-02  0.21069559085E-01 -0.24804969398E-02  0.21968683307E-01  0.00000000000E+00 0.  1.
     999901    1    3    3    0    0 -0.31072720586E-01  0.10674208628E+00 -0.13502299380E-01  0.88709734473E+00  0.88000000000E+00 0.  1.
        -11    1    4    4    0    0  0.76770083412E-02 -0.93525787643E-01  0.20381927792E-01  0.96029649134E-01  0.51100000000E-03 0. -1.
         11    1    4    4    0    0  0.17690989542E-01 -0.34285857719E-01 -0.43991314718E-02  0.38834322824E-01  0.51100000000E-03 0.  1.
</event>
<event>
 8    1  0.1106168E+005  0.1043930E+01  0.7957747E-01            NaN
         13   -1    0    0    0    0  0.00000000000E+00  0.00000000000E+00  0.74505805969E-08  0.10566000000E+00  0.10566000000E+00 0.  1.
     999900   -1    0    0    0    0 -0.00000000000E+00 -0.00000000000E+00 -0.74505805969E-08  0.93827000000E+00  0.93827000000E+00 0. -1.
     999902    2    1    2    0    0 -0.14335645082E-01  0.17423093185E-01  0.55997579133E-02  0.10206828026E+01  0.10204180278E+01 0.  0.
     999903    2    3    3    0    0 -0.12482008537E+00 -0.38076547534E-01  0.20662831411E-02  0.13203241745E+00  0.19960274271E-01 0.  0.
         14    1    1    2    0    0  0.14335645082E-01 -0.17423093185E-01 -0.55997579133E-02  0.23247197352E-01  0.00000000000E+00 0.  1.
     999901    1    3    3    0    0  0.11048444028E+00  0.55499640719E-01  0.35334747721E-02  0.88865038520E+00  0.88000000000E+00 0.  1.
        -11    1    4    4    0    0 -0.41487853810E-01 -0.54987697854E-02 -0.56114817916E-02  0.42228288289E-01  0.51100000000E-03 0.  1.
         11    1    4    4    0    0 -0.83332231557E-01 -0.32577777749E-01  0.76777649328E-02  0.89804129163E-01  0.51100000000E-03 0. -1.
</event>
<event>
 8    1  0.1106168E+005  0.1043930E+01  0.7957747E-01            NaN
         13   -1    0    0    0    0  0.00000000000E+00  0.00000000000E+00  0.74505805969E-08  0.10566000000E+00  0.10566000000E+00 0.  1.
     999900   -1    0    0    0    0 -0.00000000000E+00 -0.00000000000E+00 -0.74505805969E-08  0.93827000000E+00  0.93827000000E+00 0.  1.
     999902    2    1    2    0    0  0.13432660014E-01  0.17772216100E-01 -0.12660240444E-01  0.10183063838E+01  0.10179839495E+01 0.  0.
     999903    2    3    3    0    0  0.45093474514E-01  0.47803424429E-01 -0.11226631614E+00  0.13161272137E+00  0.19989843793E-01 0.  0.
         14    1    1    2    0    0 -0.13432660014E-01 -0.17772216100E-01  0.12660240444E-01  0.25623616221E-01  0.00000000000E+00 0.  1.
     999901    1    3    3    0    0 -0.31660814500E-01 -0.30031208329E-01  0.99606075695E-01  0.88669366241E+00  0.88000000000E+00 0. -1.
        -11    1    4    4    0    0  0.26421686779E-01  0.40189978895E-01 -0.72192975191E-01  0.86749217424E-01  0.51100000000E-03 0. -1.
         11    1    4    4    0    0  0.18671787736E-01  0.76134455341E-02 -0.40073340948E-01  0.44863503941E-01  0.51100000000E-03 0.  1.
</event>
<event>
 8    1  0.1106168E+005  0.1043930E+01  0.7957747E-01            NaN
         13   -1    0    0    0    0  0.00000000000E+00  0.00000000000E+00  0.74505805969E-08  0.10566000000E+00  0.10566000000E+00 0.  1.
     999900   -1    0    0    0    0 -0.00000000000E+00 -0.00000000000E+00 -0.74505805969E-08  0.93827000000E+00  0.93827000000E+00 0. -1.
     999902    2    1    2    0    0  0.12131901359E-01 -0.15683278763E-01 -0.12755264043E-01  0.10203536342E+01  0.10200812192E+01 0.  0.
     999903    2    3    3    0    0 -0.34526076507E-01  0.13547891502E-01  0.12170291552E+00  0.12843972005E+00  0.17594508102E-01 0.  0.
         14    1    1    2    0    0 -0.12131901359E-01  0.15683278763E-01  0.12755264043E-01  0.23576365796E-01  0.00000000000E+00 0.  1.
     999901    1    3    3    0    0  0.46657977866E-01 -0.29231170265E-01 -0.13445817957E+00  0.89191391416E+00  0.88000000000E+00 0. -1.
        -11    1    4    4    0    0 -0.30201023740E-01  0.39371795014E-02  0.92765593584E-01  0.97638720246E-01  0.51100000000E-03 0. -1.
         11    1    4    4    0    0 -0.43250527668E-02  0.96107120005E-02  0.28937321941E-01  0.30800999801E-01  0.51100000000E-03 0.  1.
</event>
<event>
 8    1  0.1106168E+005  0.1043930E+01  0.7957747E-01            NaN
         13   -1    0    0    0    0  0.00000000000E+00  0.00000000000E+00  0.74505805969E-08  0.10566000000E+00  0.10566000000E+00 0.  1.
     999900   -1    0    0    0    0 -0.00000000000E+00 -0.00000000000E+00 -0.74505805969E-08  0.93827000000E+00  0.93827000000E+00 0.  1.
     999902    2    1    2    0    0  0.45700529390E-02 -0.19069512866E-01  0.13692839197E-01  0.10200129444E+01  0.10197325047E+01 0.  0.
     999903    2    3    3    0    0 -0.11608894280E-01  0.10700651100E+00  0.68645788535E-01  0.12918369655E+00  0.19774310305E-01 0.  0.
         14    1    1    2    0    0 -0.45700529390E-02  0.19069512866E-01 -0.13692839197E-01  0.23917055631E-01  0.00000000000E+00 0. -1.
     999901    1    3    3    0    0  0.16178947219E-01 -0.12607602387E+00 -0.54952949339E-01  0.89082924782E+00  0.88000000000E+00 0.  1.
        -11    1    4    4    0    0 -0.14936381768E-01  0.63157167249E-01  0.34468792703E-01  0.73486611479E-01  0.51100000000E-03 0. -1.
         11    1    4    4    0    0  0.33274874871E-02  0.43849343751E-01  0.34176995832E-01  0.55697085071E-01  0.51100000000E-03 0.  1.
</event>
<event>
 8    1  0.1106168E+005  0.1043930E+01  0.7957747E-01            NaN
         13   -1    0    0    0    0  0.00000000000E+00  0.00000000000E+00  0.74505805969E-08  0.10566000000E+00  0.10566000000E+00 0.  1.
     999900   -1    0    0    0    0 -0.00000000000E+00 -0.00000000000E+00 -0.74505805969E-08  0.93827000000E+00  0.93827000000E+00 0.  1.
     999902    2    1    2    0    0  0.15869939901E-01  0.17240317810E-02  0.15442829213E-01  0.10217194563E+01  0.10214780169E+01 0.  0.
     999903    2    3    3    0    0 -0.40307216897E-01  0.11594782197E+00 -0.39786696961E-01  0.13084727255E+00  0.21666986971E-01 0.  0.
         14    1    1    2    0    0 -0.15869939901E-01 -0.17240317810E-02 -0.15442829213E-01  0.22210543716E-01  0.00000000000E+00 0. -1.
     999901    1    3    3    0    0  0.56177156799E-01 -0.11422379019E+00  0.55229526174E-01  0.89087218374E+00  0.88000000000E+00 0. -1.
        -11    1    4    4    0    0 -0.12799475791E-01  0.58540855065E-01 -0.10766823167E-01  0.60885498227E-01  0.51100000000E-03 0.  1.
         11    1    4    4    0    0 -0.27507741107E-01  0.57406966907E-01 -0.29019873794E-01  0.69961774322E-01  0.51100000000E-03 0. -1.
</event>
<event>
 8    1  0.1106168E+005  0.1043930E+01  0.7957747E-01            NaN
         13   -1    0    0    0    0  0.00000000000E+00  0.00000000000E+00  0.74505805969E-08  0.10566000000E+00  0.10566000000E+00 0.  1.
     999900   -1    0    0    0    0 -0.00000000000E+00 -0.00000000000E+00 -0.74505805969E-08  0.93827000000E+00  0.93827000000E+00 0. -1.
     999902    2    1    2    0    0  0.13854848136E-01  0.19805616795E-01 -0.32458945999E-02  0.10195423985E+01  0.10192506793E+01 0.  0.
     999903    2    3    3    0    0 -0.32244364959E-01 -0.13811820820E-01 -0.12335821000E+00  0.12955237731E+00  0.18333167408E-01 0.  0.
         14    1    1    2    0    0 -0.13854848136E-01 -0.19805616795E-01  0.32458945999E-02  0.24387601466E-01  0.00000000000E+00 0.  1.
     999901    1    3    3    0    0  0.46099213095E-01  0.33617437615E-01  0.12011231540E+00  0.88999002122E+00  0.88000000000E+00 0.  1.
        -11    1    4    4    0    0 -0.18057099001E-01 -0.58959170385E-02 -0.94860901672E-01  0.96745400145E-01  0.51100000000E-03 0. -1.
         11    1    4    4    0    0 -0.14187265958E-01 -0.79159037811E-02 -0.28497308329E-01  0.32806977170E-01  0.51100000000E-03 0.  1.
</event>
<event>
 7    1  0.1106168E+005  0.1043930E+01  0.7957747E-01            NaN
         13   -1    0    0    0    0  0.00000000000E+00  0.00000000000E+00  0.74505805969E-08  0.10566000000E+00  0.10566000000E+00 0.  1.
     999900   -1    0    0    0    0 -0.00000000000E+00 -0.00000000000E+00 -0.74505805969E-08  0.93827000000E+00  0.93827000000E+00 0.  1.
     999903    2    1    2    0    0 -0.63637873285E-01  0.24080848401E-01 -0.52673560730E-01  0.88269594406E-01  0.19681237780E-01 0.  0.
         14    1    1    2    0    0 -0.83673988311E-02 -0.56549778629E-01  0.43903385008E-01  0.72079109604E-01  0.00000000000E+00 0. -1.
     999901    1    1    2    0    0  0.72005272116E-01  0.32468930227E-01  0.87701757225E-02  0.88358129599E+00  0.88000000000E+00 0. -1.
        -11    1    3    3    0    0 -0.32195598884E-01  0.21686461051E-01 -0.34085837386E-01  0.51662022915E-01  0.51100000000E-03 0. -1.
         11    1    3    3    0    0 -0.31442274401E-01  0.23943873506E-02 -0.18587723344E-01  0.36607571490E-01  0.51100000000E-03 0.  1.
</event>
<event>
 8    1  0.1106168E+005  0.1043930E+01  0.7957747E-01            NaN
         13   -1    0    0    0    0  0.00000000000E+00  0.00000000000E+00  0.74505805969E-08  0.10566000000E+00  0.10566000000E+00 0.  1.
     999900   -1    0    0    0    0 -0.00000000000E+00 -0.00000000000E+00 -0.74505805969E-08  0.93827000000E+00  0.93827000000E+00 0. -1.
     999902    2    1    2    0    0  0.69911356533E-02  0.19453929123E-01 -0.11856765812E-01  0.10200990489E+01  0.10198206486E+01 0.  0.
     999903    2    3    3    0    0  0.38901837829E-01 -0.71692415566E-01  0.96862063643E-01  0.12816534453E+00  0.19772221162E-01 0.  0.
         14    1    1    2    0    0 -0.69911356533E-02 -0.19453929123E-01  0.11856765812E-01  0.23830951126E-01  0.00000000000E+00 0.  1.
     999901    1    3    3    0    0 -0.31910702176E-01  0.91146344689E-01 -0.10871882945E+00  0.89193370434E+00  0.88000000000E+00 0. -1.
        -11    1    4    4    0    0  0.30219332829E-01 -0.54096575652E-01  0.59224958709E-01  0.85717585296E-01  0.51100000000E-03 0.  1.
         11    1    4    4    0    0  0.86825050008E-02 -0.17595839914E-01  0.37637104934E-01  0.42447759236E-01  0.51100000000E-03 0. -1.
</event>
<event>
 8    1  0.1106168E+005  0.1043930E+01  0.7957747E-01            NaN
         13   -1    0    0    0    0  0.00000000000E+00  0.00000000000E+00  0.74505805969E-08  0.10566000000E+00  0.10566000000E+00 0.  1.
     999900   -1    0    0    0    0 -0.00000000000E+00 -0.00000000000E+00 -0.74505805969E-08  0.93827000000E+00  0.93827000000E+00 0. -1.
     999902    2    1    2    0    0  0.16638958851E-01 -0.16514656660E-01  0.56185825521E-03  0.10204799569E+01  0.10202104871E+01 0.  0.
     999903    2    3    3    0    0  0.10759679373E+00  0.47047353844E-01 -0.56306394895E-01  0.13169007447E+00  0.19527982062E-01 0.  0.
         14    1    1    2    0    0 -0.16638958851E-01  0.16514656660E-01 -0.56185825521E-03  0.23450043090E-01  0.00000000000E+00 0.  1.
     999901    1    3    3    0    0 -0.90957834881E-01 -0.63562010503E-01  0.56868253151E-01  0.88878988244E+00  0.88000000000E+00 0.  1.
        -11    1    4    4    0    0  0.79683576133E-01  0.41609018289E-01 -0.48742449748E-01  0.10225883941E+00  0.51100000000E-03 0. -1.
         11    1    4    4    0    0  0.27913217599E-01  0.54383355544E-02 -0.75639451478E-02  0.29431235067E-01  0.51100000000E-03 0.  1.
</event>
<event>
 8    1  0.1106168E+005  0.1043930E+01  0.7957747E-01            NaN
         13   -1    0    0    0    0  0.00000000000E+00  0.00000000000E+00  0.74505805969E-08  0.10566000000E+00  0.10566000000E+00 0.  1.
     999900   -1    0    0    0    0 -0.00000000000E+00 -0.00000000000E+00 -0.74505805969E-08  0.93827000000E+00  0.93827000000E+00 0.  1.
     999902    2    1    2    0    0 -0.15564236220E-01 -0.17147830586E-01  0.20487381433E-01  0.10130103244E+01  0.10125383405E+01 0.  0.
     999903    2    3    3    0    0  0.10058145647E+00 -0.64017987634E-01 -0.23465392119E-01  0.12305612339E+00  0.19422995382E-01 0.  0.
         14    1    1    2    0    0  0.15564236220E-01  0.17147830586E-01 -0.20487381433E-01  0.30919675627E-01  0.00000000000E+00 0. -1.
     999901    1    3    3    0    0 -0.11614569269E+00  0.46870157048E-01  0.43952773552E-01  0.88995420099E+00  0.88000000000E+00 0.  1.
        -11    1    4    4    0    0  0.92051399441E-01 -0.53946417090E-01 -0.25478063864E-01  0.10969534591E+00  0.51100000000E-03 0.  1.
         11    1    4    4    0    0  0.85300570268E-02 -0.10071570544E-01  0.20126717454E-02  0.13360777472E-01  0.51100000000E-03 0. -1.
</event>
<event>
 8    1  0.1106168E+005  0.1043930E+01  0.7957747E-01            NaN
         13   -1    0    0    0    0  0.00000000000E+00  0.00000000000E+00  0.74505805969E-08  0.10566000000E+00  0.10566000000E+00 0.  1.
     999900   -1    0    0    0    0 -0.00000000000E+00 -0.00000000000E+00 -0.74505805969E-08  0.93827000000E+00  0.93827000000E+00 0. -1.
     999902    2    1    2    0    0 -0.23442490012E-01  0.33135260746E-02 -0.20574415041E-02  0.10201652602E+01  0.10198884229E+01 0.  0.
     999903    2    3    3    0    0  0.43339943895E-01 -0.11673832447E+00 -0.27243381021E-01  0.12915085410E+00  0.20773881884E-01 0.  0.
         14    1    1    2    0    0  0.23442490012E-01 -0.33135260746E-02  0.20574415041E-02  0.23764739817E-01  0.00000000000E+00 0. -1.
     999901    1    3    3    0    0 -0.66782433907E-01  0.12005185054E+00  0.25185939517E-01  0.89101440608E+00  0.88000000000E+00 0.  1.
        -11    1    4    4    0    0  0.15818985296E-01 -0.69575064540E-01 -0.19716264756E-01  0.74026496057E-01  0.51100000000E-03 0. -1.
         11    1    4    4    0    0  0.27520958599E-01 -0.47163259930E-01 -0.75271162644E-02  0.55124358044E-01  0.51100000000E-03 0.  1.
</event>
<event>
 8    1  0.1106168E+005  0.1043930E+01  0.7957747E-01            NaN
         13   -1    0    0    0    0  0.00000000000E+00  0.00000000000E+00  0.74505805969E-08  0.10566000000E+00  0.10566000000E+00 0. -1.
     999900   -1    0    0    0    0 -0.00000000000E+00 -0.00000000000E+00 -0.74505805969E-08  0.93827000000E+00  0.93827000000E+00 0. -1.
     999902    2    1    2    0    0  0.42032262215E-02 -0.29081435312E-03 -0.23598419672E-01  0.10199584107E+01  0.10196766754E+01 0.  0.
     999903    2    3    3    0    0  0.11492240145E+00  0.55688451556E-01 -0.21675145792E-01  0.13125367177E+00  0.21197934232E-01 0.  0.
         14    1    1    2    0    0 -0.42032262215E-02  0.29081435312E-03  0.23598419672E-01  0.23971589324E-01  0.00000000000E+00 0. -1.
     999901    1    3    3    0    0 -0.11071917523E+00 -0.55979265909E-01 -0.19232738803E-02  0.88870473891E+00  0.88000000000E+00 0.  1.
        -11    1    4    4    0    0  0.66615493138E-01  0.37911274420E-01 -0.22111682166E-01  0.79775160692E-01  0.51100000000E-03 0. -1.
         11    1    4    4    0    0  0.48306908313E-01  0.17777177135E-01  0.43653637431E-03  0.51478511077E-01  0.51100000000E-03 0.  1.
</event>
<event>
 8    1  0.1106168E+005  0.1043930E+01  0.7957747E-01            NaN
         13   -1    0    0    0    0  0.00000000000E+00  0.00000000000E+00  0.74505805969E-08  0.10566000000E+00  0.10566000000E+00 0.  1.
     999900   -1    0    0    0    0 -0.00000000000E+00 -0.00000000000E+00 -0.74505805969E-08  0.93827000000E+00  0.93827000000E+00 0. -1.
     999902    2    1    2    0    0 -0.84642530631E-02 -0.29989171964E-03  0.23785631654E-01  0.10186814399E+01  0.10183684923E+01 0.  0.
     999903    2    3    3    0    0  0.88077628856E-01 -0.16118456769E-01 -0.86898583136E-01  0.12636896245E+00  0.20006937977E-01 0.  0.
         14    1    1    2    0    0  0.84642530631E-02  0.29989171964E-03 -0.23785631654E-01  0.25248560120E-01  0.00000000000E+00 0. -1.
     999901    1    3    3    0    0 -0.96541881920E-01  0.15818565050E-01  0.11068421479E+00  0.89231247743E+00  0.88000000000E+00 0.  1.
        -11    1    4    4    0    0  0.53488258707E-01 -0.19362427284E-01 -0.57006282537E-01  0.80534928941E-01  0.51100000000E-03 0.  1.
         11    1    4    4    0    0  0.34589370149E-01  0.32439705145E-02 -0.29892300599E-01  0.45834033513E-01  0.51100000000E-03 0. -1.
</event>
<event>
 8    1  0.1106168E+005  0.1043930E+01  0.7957747E-01            NaN
         13   -1    0    0    0    0  0.00000000000E+00  0.00000000000E+00  0.74505805969E-08  0.10566000000E+00  0.10566000000E+00 0. -1.
     999900   -1    0    0    0    0 -0.00000000000E+00 -0.00000000000E+00 -0.74505805969E-08  0.93827000000E+00  0.93827000000E+00 0. -1.
     999902    2    1    2    0    0 -0.22615139334E-01  0.50851473819E-02  0.19837705372E-02  0.10206654648E+01  0.10204002903E+01 0.  0.
     999903    2    3    3    0    0  0.10698246918E+00  0.18112640936E-01  0.66613436146E-01  0.12873371330E+00  0.19018480243E-01 0.  0.
         14    1    1    2    0    0  0.22615139334E-01 -0.50851473819E-02 -0.19837705372E-02  0.23264535167E-01  0.00000000000E+00 0. -1.
     999901    1    3    3    0    0 -0.12959760851E+00 -0.13027493554E-01 -0.64629665608E-01  0.89193175154E+00  0.88000000000E+00 0. -1.
        -11    1    4    4    0    0  0.70257551030E-02 -0.19416562414E-02  0.91325358128E-02  0.11695964907E-01  0.51100000000E-03 0. -1.
         11    1    4    4    0    0  0.99956714077E-01  0.20054297177E-01  0.57480900333E-01  0.11703774839E+00  0.51100000000E-03 0.  1.
</event>
<event>
 8    1  0.1106168E+005  0.1043930E+01  0.7957747E-01            NaN
         13   -1    0    0    0    0  0.00000000000E+00  0.00000000000E+00  0.74505805969E-08  0.10566000000E+00  0.10566000000E+00 0.  1.
     999900   -1    0    0    0    0 -0.00000000000E+00 -0.00000000000E+00 -0.74505805969E-08  0.93827000000E+00  0.93827000000E+00 0. -1.
     999902    2    1    2    0    0 -0.17104328164E-01  0.15149581927E-01  0.35014056042E-02  0.10208144702E+01  0.10205527203E+01 0.  0.
     999903    2    3    3    0    0 -0.50160428743E-01 -0.10233035228E+00  0.60437145910E-01  0.13056960548E+00  0.20204050546E-01 0.  0.
         14    1    1    2    0    0  0.17104328164E-01 -0.15149581927E-01 -0.35014056042E-02  0.23115529752E-01  0.00000000000E+00 0.  1.
     999901    1    3    3    0    0  0.33056100580E-01  0.11747993421E+00 -0.56935740306E-01  0.89024486477E+00  0.88000000000E+00 0. -1.
        -11    1    4    4    0    0 -0.29825585366E-01 -0.55866999835E-01  0.22422911560E-01  0.67184338181E-01  0.51100000000E-03 0. -1.
         11    1    4    4    0    0 -0.20334843377E-01 -0.46463352447E-01  0.38014234350E-01  0.63385267295E-01  0.51100000000E-03 0.  1.
</event>
<event>
 8    1  0.1106168E+005  0.1043930E+01  0.7957747E-01            NaN
         13   -1    0    0    0    0  0.00000000000E+00  0.00000000000E+00  0.74505805969E-08  0.10566000000E+00  0.10566000000E+00 0.  1.
     999900   -1    0    0    0    0 -0.00000000000E+00 -0.00000000000E+00 -0.74505805969E-08  0.93827000000E+00  0.93827000000E+00 0. -1.
     999902    2    1    2    0    0  0.35698153971E-02 -0.19522836700E-01 -0.14012130635E-01  0.10196354628E+01  0.10193459925E+01 0.  0.
     999903    2    3    3    0    0 -0.50793317438E-01  0.10437196440E+00 -0.50516654647E-01  0.12854744678E+00  0.22339329151E-01 0.  0.
         14    1    1    2    0    0 -0.35698153971E-02  0.19522836700E-01  0.14012130635E-01  0.24294537240E-01  0.00000000000E+00 0.  1.
     999901    1    3    3    0    0  0.54363132835E-01 -0.12389480110E+00  0.36504524012E-01  0.89108801598E+00  0.88000000000E+00 0.  1.
        -11    1    4    4    0    0 -0.47073960817E-01  0.84316882166E-01 -0.48444611237E-01  0.10803904796E+00  0.51100000000E-03 0. -1.
         11    1    4    4    0    0 -0.37193566207E-02  0.20055082238E-01 -0.20720434096E-02  0.20508398819E-01  0.51100000000E-03 0.  1.
</event>
<event>
 8    1  0.1106168E+005  0.1043930E+01  0.7957747E-01            NaN
         13   -1    0    0    0    0  0.00000000000E+00  0.00000000000E+00  0.74505805969E-08  0.10566000000E+00  0.10566000000E+00 0.  1.
     999900   -1    0    0    0    0 -0.00000000000E+00 -0.00000000000E+00 -0.74505805969E-08  0.93827000000E+00  0.93827000000E+00 0. -1.
     999902    2    1    2    0    0 -0.14118377777E-01 -0.17386542616E-01  0.79741030208E-02  0.10201559222E+01  0.10198788648E+01 0.  0.
     999903    2    3    3    0    0  0.56699742201E-01 -0.75210638750E-01 -0.87471448001E-01  0.13028588372E+00  0.21252207768E-01 0.  0.
         14    1    1    2    0    0  0.14118377777E-01  0.17386542616E-01 -0.79741030208E-02  0.23774077777E-01  0.00000000000E+00 0. -1.
     999901    1    3    3    0    0 -0.70818119978E-01  0.57824096135E-01  0.95445551022E-01  0.88987003850E+00  0.88000000000E+00 0.  1.
        -11    1    4    4    0    0  0.24803053792E-01 -0.23578907025E-01 -0.20458358467E-01  0.39874326152E-01  0.51100000000E-03 0. -1.
         11    1    4    4    0    0  0.31896688409E-01 -0.51631731725E-01 -0.67013089533E-01  0.90411557570E-01  0.51100000000E-03 0.  1.
</event>
<event>
 8    1  0.1106168E+005  0.1043930E+01  0.7957747E-01            NaN
         13   -1    0    0    0    0  0.00000000000E+00  0.00000000000E+00  0.74505805969E-08  0.10566000000E+00  0.10566000000E+00 0.  1.
     999900   -1    0    0    0    0 -0.00000000000E+00 -0.00000000000E+00 -0.74505805969E-08  0.93827000000E+00  0.93827000000E+00 0. -1.
     999902    2    1    2    0    0 -0.48092676913E-02  0.79310343958E-02  0.22557750556E-01  0.10195397874E+01  0.10192480049E+01 0.  0.
     999903    2    3    3    0    0 -0.10322979004E+00 -0.14759593299E-01  0.78618140451E-01  0.13199022192E+00  0.19140834064E-01 0.  0.
         14    1    1    2    0    0  0.48092676913E-02 -0.79310343958E-02 -0.22557750556E-01  0.24390212637E-01  0.00000000000E+00 0. -1.
     999901    1    3    3    0    0  0.98420522347E-01  0.22690627695E-01 -0.56060389895E-01  0.88754956544E+00  0.88000000000E+00 0.  1.
        -11    1    4    4    0    0 -0.46025490453E-01 -0.15052887988E-02  0.44686175728E-01  0.64169518371E-01  0.51100000000E-03 0. -1.
         11    1    4    4    0    0 -0.57204299585E-01 -0.13254304500E-01  0.33931964724E-01  0.67820703548E-01  0.51100000000E-03 0.  1.
</event>
<event>
 8    1  0.1106168E+005  0.1043930E+01  0.7957747E-01            NaN
         13   -1    0    0    0    0  0.00000000000E+00  0.00000000000E+00  0.74505805969E-08  0.10566000000E+00  0.10566000000E+00 0. -1.
     999900   -1    0    0    0    0 -0.00000000000E+00 -0.00000000000E+00 -0.74505805969E-08  0.93827000000E+00  0.93827000000E+00 0. -1.
     999902    2    1    2    0    0 -0.14136914183E-02 -0.17340882461E-01  0.15071868768E-01  0.10209111826E+01  0.10206516432E+01 0.  0.
     999903    2    3    3    0    0 -0.46176536177E-01  0.10385170706E+00  0.60866064027E-01  0.13029989567E+00  0.18866253187E-01 0.  0.
         14    1    1    2    0    0  0.14136914183E-02  0.17340882461E-01 -0.15071868768E-01  0.23018817435E-01  0.00000000000E+00 0. -1.
     999901    1    3    3    0    0  0.44762844758E-01 -0.12119258952E+00 -0.45794195259E-01  0.89061128689E+00  0.88000000000E+00 0. -1.
        -11    1    4    4    0    0 -0.32226141680E-01  0.70396493411E-01  0.31262995804E-01  0.83497464152E-01  0.51100000000E-03 0. -1.
         11    1    4    4    0    0 -0.13950394496E-01  0.33455213647E-01  0.29603068223E-01  0.46802431518E-01  0.51100000000E-03 0.  1.
</event>
<event>
 8    1  0.1106168E+005  0.1043930E+01  0.7957747E-01            NaN
         13   -1    0    0    0    0  0.00000000000E+00  0.00000000000E+00  0.74505805969E-08  0.10566000000E+00  0.10566000000E+00 0.  1.
     999900   -1    0    0    0    0 -0.00000000000E+00 -0.00000000000E+00 -0.74505805969E-08  0.93827000000E+00  0.93827000000E+00 0. -1.
     999902    2    1    2    0    0 -0.23095462908E-01 -0.14436406419E-02  0.48755981572E-02  0.10202814068E+01  0.10200073005E+01 0.  0.
     999903    2    3    3    0    0 -0.12144033447E+00  0.14107977018E-01  0.49806107614E-01  0.13352759805E+00  0.20054456669E-01 0.  0.
         14    1    1    2    0    0  0.23095462908E-01  0.14436406419E-02 -0.48755981572E-02  0.23648593248E-01  0.00000000000E+00 0. -1.
     999901    1    3    3    0    0  0.98344871564E-01 -0.15551617660E-01 -0.44930509456E-01  0.88675380871E+00  0.88000000000E+00 0. -1.
        -11    1    4    4    0    0 -0.10273286975E+00  0.12775033462E-01  0.49529833866E-01  0.11476371190E+00  0.51100000000E-03 0.  1.
         11    1    4    4    0    0 -0.18707464725E-01  0.13329435553E-02  0.27627374802E-03  0.18763886142E-01  0.51100000000E-03 0. -1.
</event>
<event>
 8    1  0.1106168E+005  0.1043930E+01  0.7957747E-01            NaN
         13   -1    0    0    0    0  0.00000000000E+00  0.00000000000E+00  0.74505805969E-08  0.10566000000E+00  0.10566000000E+00 0. -1.
     999900   -1    0    0    0    0 -0.00000000000E+00 -0.00000000000E+00 -0.74505805969E-08  0.93827000000E+00  0.93827000000E+00 0. -1.
     999902    2    1    2    0    0 -0.51187366945E-02  0.61346334864E-04 -0.22888301813E-01  0.10204762244E+01  0.10202066678E+01 0.  0.
     999903    2    3    3    0    0 -0.82181667874E-01  0.60082517819E-01  0.77433071494E-01  0.12940629769E+00  0.19656394371E-01 0.  0.
         14    1    1    2    0    0  0.51187366945E-02 -0.61346334864E-04  0.22888301813E-01  0.23453775572E-01  0.00000000000E+00 0. -1.
     999901    1    3    3    0    0  0.77062931180E-01 -0.60021171484E-01 -0.10032137331E+00  0.89106992673E+00  0.88000000000E+00 0. -1.
        -11    1    4    4    0    0 -0.56800061905E-01  0.39072932514E-01  0.40708837633E-01  0.80065046494E-01  0.51100000000E-03 0. -1.
         11    1    4    4    0    0 -0.25381605969E-01  0.21009585305E-01  0.36724233860E-01  0.49341251199E-01  0.51100000000E-03 0.  1.
</event>
<event>
 8    1  0.1106168E+005  0.1043930E+01  0.7957747E-01            NaN
         13   -1    0    0    0    0  0.00000000000E+00  0.00000000000E+00  0.74505805969E-08  0.10566000000E+00  0.10566000000E+00 0.  1.
     999900   -1    0    0    0    0 -0.00000000000E+00 -0.00000000000E+00 -0.74505805969E-08  0.93827000000E+00  0.93827000000E+00 0. -1.
     999902    2    1    2    0    0 -0.14836336874E-01  0.10359285866E-01  0.15805730646E-01  0.10199039138E+01  0.10196208808E+01 0.  0.
     999903    2    3    3    0    0 -0.60238408997E-01  0.20790308566E-01  0.11527020389E+00  0.13307623281E+00  0.19004235945E-01 0.  0.
         14    1    1    2    0    0  0.14836336874E-01 -0.10359285866E-01 -0.15805730646E-01  0.24026086172E-01  0.00000000000E+00 0. -1.
     999901    1    3    3    0    0  0.45402072123E-01 -0.10431022699E-01 -0.99464473247E-01  0.88682768102E+00  0.88000000000E+00 0. -1.
        -11    1    4    4    0    0 -0.43793626775E-01  0.17243863555E-01  0.66413180844E-01  0.81401500522E-01  0.51100000000E-03 0.  1.
         11    1    4    4    0    0 -0.16444782222E-01  0.35464450106E-02  0.48857023048E-01  0.51674732284E-01  0.51100000000E-03 0. -1.
</event>
<event>
 8    1  0.1106168E+005  0.1043930E+01  0.7957747E-01            NaN
         13   -1    0    0    0    0  0.00000000000E+00  0.00000000000E+00  0.74505805969E-08  0.10566000000E+00  0.10566000000E+00 0. -1.
     999900   -1    0    0    0    0 -0.00000000000E+00 -0.00000000000E+00 -0.74505805969E-08  0.93827000000E+00  0.93827000000E+00 0.  1.
     999902    2    1    2    0    0 -0.19014603606E-02  0.64183151119E-02  0.22063779667E-01  0.10208730988E+01  0.10206126901E+01 0.  0.
     999903    2    3    3    0    0 -0.82434351508E-01 -0.96674761817E-01 -0.20291065071E-01  0.13019489543E+00  0.19938695858E-01 0.  0.
         14    1    1    2    0    0  0.19014603606E-02 -0.64183151119E-02 -0.22063779667E-01  0.23056901214E-01  0.00000000000E+00 0.  1.
     999901    1    3    3    0    0  0.80532891148E-01  0.10309307693E+00  0.42354844738E-01  0.89067820336E+00  0.88000000000E+00 0. -1.
        -11    1    4    4    0    0 -0.45788087682E-01 -0.60302050055E-01 -0.31282027529E-02  0.75782141616E-01  0.51100000000E-03 0.  1.
         11    1    4    4    0    0 -0.36646263826E-01 -0.36372711761E-01 -0.17162862318E-01  0.54412753811E-01  0.51100000000E-03 0. -1.
</event>
<event>
 8    1  0.1106168E+005  0.1043930E+01  0.7957747E-01            NaN
         13   -1    0    0    0    0  0.00000000000E+00  0.00000000000E+00  0.74505805969E-08  0.10566000000E+00  0.10566000000E+00 0. -1.
     999900   -1    0    0    0    0 -0.00000000000E+00 -0.00000000000E+00 -0.74505805969E-08  0.93827000000E+00  0.93827000000E+00 0.  1.
     999902    2    1    2    0    0 -0.26332853378E-02  0.20698992032E-01  0.11847935798E-01  0.10199350829E+01  0.10196527925E+01 0.  0.
     999903    2    3    3    0    0 -0.21639607602E-01 -0.70078461969E-01  0.10538042126E+00  0.13013167077E+00  0.21212145184E-01 0.  0.
         14    1    1    2    0    0  0.26332853378E-02 -0.20698992032E-01 -0.11847935798E-01  0.23994917076E-01  0.00000000000E+00 0.  1.
     999901    1    3    3    0    0  0.19006322264E-01  0.90777454000E-01 -0.93532485465E-01  0.88980341215E+00  0.88000000000E+00 0.  1.
        -11    1    4    4    0    0 -0.17700714040E-01 -0.59399973977E-01  0.72778200445E-01  0.95596023804E-01  0.51100000000E-03 0. -1.
         11    1    4    4    0    0 -0.39388935621E-02 -0.10678487992E-01  0.32602220818E-01  0.34535646968E-01  0.51100000000E-03 0.  1.
</event>
<event>
 8    1  0.1106168E+005  0.1043930E+01  0.7957747E-01            NaN
         13   -1    0    0    0    0  0.00000000000E+00  0.00000000000E+00  0.74505805969E-08  0.10566000000E+00  0.10566000000E+00 0. -1.
     999900   -1    0    0    0    0 -0.00000000000E+00 -0.00000000000E+00 -0.74505805969E-08  0.93827000000E+00  0.93827000000E+00 0. -1.
     999902    2    1    2    0    0 -0.19955836411E-01  0.18171452708E-01 -0.58212610560E-02  0.10163197812E+01  0.10159446705E+01 0.  0.
     999903    2    3    3    0    0 -0.11867937760E+00 -0.45108043329E-01 -0.10692128844E-02  0.12852858158E+00  0.19973052538E-01 0.  0.
         14    1    1    2    0    0  0.19955836411E-01 -0.18171452708E-01  0.58212610560E-02  0.27610218772E-01  0.00000000000E+00 0. -1.
     999901    1    3    3    0    0  0.98723541188E-01  0.63279496037E-01 -0.47520481716E-02  0.88779119964E+00  0.88000000000E+00 0. -1.
        -11    1    4    4    0    0 -0.92530513974E-02  0.13323883088E-02 -0.23283858472E-02  0.96476277095E-02  0.51100000000E-03 0.  1.
         11    1    4    4    0    0 -0.10942632620E+00 -0.46440431638E-01  0.12591729628E-02  0.11888095387E+00  0.51100000000E-03 0. -1.
</event>
<event>
 8    1  0.1106168E+005  0.1043930E+01  0.7957747E-01            NaN
         13   -1    0    0    0    0  0.00000000000E+00  0.00000000000E+00  0.74505805969E-08  0.10566000000E+00  0.10566000000E+00 0. -1.
     999900   -1    0    0    0    0 -0.00000000000E+00 -0.00000000000E+00 -0.74505805969E-08  0.93827000000E+00  0.93827000000E+00 0.  1.
     999902    2    1    2    0    0  0.13170093625E-01  0.26877830337E-02  0.19265574896E-01  0.10204387693E+01  0.10201683410E+01 0.  0.
     999903    2    3    3    0    0 -0.92983763353E-01 -0.42785757692E-01 -0.74283479519E-01  0.12797705593E+00  0.19582905950E-01 0.  0.
         14    1    1    2    0    0 -0.13170093625E-01 -0.26877830337E-02 -0.19265574896E-01  0.23491230700E-01  0.00000000000E+00 0.  1.
     999901    1    3    3    0    0  0.10615385698E+00  0.45473540726E-01  0.93549054415E-01  0.89246171337E+00  0.88000000000E+00 0. -1.
        -11    1    4    4    0    0 -0.55352508942E-01 -0.21410651813E-01 -0.31817649556E-01  0.67341964639E-01  0.51100000000E-03 0. -1.
         11    1    4    4    0    0 -0.37631254411E-01 -0.21375105879E-01 -0.42465829962E-01  0.60635091286E-01  0.51100000000E-03 0.  1.
</event>
<event>
 8    1  0.1106168E+005  0.1043930E+01  0.7957747E-01            NaN
         13   -1    0    0    0    0  0.00000000000E+00  0.00000000000E+00  0.74505805969E-08  0.10566000000E+00  0.10566000000E+00 0. -1.
     999900   -1    0    0    0    0 -0.00000000000E+00 -0.00000000000E+00 -0.74505805969E-08  0.93827000000E+00  0.93827000000E+00 0. -1.
     999902    2    1    2    0    0  0.17935296674E-01  0.15297631387E-02  0.86170115263E-02  0.10239733487E+01  0.10237788584E+01 0.  0.
     999903    2    3    3    0    0  0.46902446481E-01  0.11389605181E+00 -0.49882284995E-01  0.13442995671E+00  0.20273647944E-01 0.  0.
         14    1    1    2    0    0 -0.17935296674E-01 -0.15297631387E-02 -0.86170115263E-02  0.19956651264E-01  0.00000000000E+00 0.  1.
     999901    1    3    3    0    0 -0.28967149807E-01 -0.11236628867E+00  0.58499296522E-01  0.88954339202E+00  0.88000000000E+00 0.  1.
        -11    1    4    4    0    0  0.30666329166E-01  0.76551595685E-01 -0.43408881147E-01  0.93194219939E-01  0.51100000000E-03 0.  1.
         11    1    4    4    0    0  0.16236117315E-01  0.37344456128E-01 -0.64734038479E-02  0.41235736774E-01  0.51100000000E-03 0. -1.
</event>
<event>
 8    1  0.1106168E+005  0.1043930E+01  0.7957747E-01            NaN
         13   -1    0    0    0    0  0.00000000000E+00  0.00000000000E+00  0.74505805969E-08  0.10566000000E+00  0.10566000000E+00 0. -1.
     999900   -1    0    0    0    0 -0.00000000000E+00 -0.00000000000E+00 -0.74505805969E-08  0.93827000000E+00  0.93827000000E+00 0.  1.
     999902    2    1    2    0    0  0.12828172360E-01  0.12629159711E-01  0.14604943715E-01  0.10207489288E+01  0.10204856753E+01 0.  0.
     999903    2    3    3    0    0  0.80335076829E-01  0.55799561771E-02 -0.10125292282E+00  0.13056360053E+00  0.17602242017E-01 0.  0.
         14    1    1    2    0    0 -0.12828172360E-01 -0.12629159711E-01 -0.14604943715E-01  0.23181071201E-01  0.00000000000E+00 0.  1.
     999901    1    3    3    0    0 -0.67506904469E-01  0.70492035340E-02  0.11585786654E+00  0.89018532827E+00  0.88000000000E+00 0.  1.
        -11    1    4    4    0    0  0.97529880861E-02 -0.28064071574E-02 -0.63113665297E-02  0.11962071987E-01  0.51100000000E-03 0. -1.
         11    1    4    4    0    0  0.70582088743E-01  0.83863633345E-02 -0.94941556292E-01  0.11860152855E+00  0.51100000000E-03 0.  1.
</event>
<event>
 8    1  0.1106168E+005  0.1043930E+01  0.7957747E-01            NaN
         13   -1    0    0    0    0  0.00000000000E+00  0.00000000000E+00  0.74505805969E-08  0.10566000000E+00  0.10566000000E+00 0.  1.
     999900   -1    0    0    0    0 -0.00000000000E+00 -0.00000000000E+00 -0.74505805969E-08  0.93827000000E+00  0.93827000000E+00 0. -1.
     999902    2    1    2    0    0  0.12819218774E-02 -0.23333683993E-01  0.54817453112E-02  0.10199267989E+01  0.10196443112E+01 0.  0.
     999903    2    3    3    0    0 -0.61052969517E-01 -0.91769590795E-02 -0.11247819766E+00  0.12975793867E+00  0.19341562306E-01 0.  0.
         14    1    1    2    0    0 -0.12819218774E-02  0.23333683993E-01 -0.54817453112E-02  0.24003201121E-01  0.00000000000E+00 0.  1.
     999901    1    3    3    0    0  0.62334891394E-01 -0.14156724914E-01  0.11795994298E+00  0.89016886021E+00  0.88000000000E+00 0.  1.
        -11    1    4    4    0    0 -0.50361779632E-01 -0.89710404422E-02 -0.75036749766E-01  0.90816096320E-01  0.51100000000E-03 0.  1.
         11    1    4    4    0    0 -0.10691189885E-01 -0.20591863726E-03 -0.37441447899E-01  0.38941842347E-01  0.51100000000E-03 0. -1.
</event>
<event>
 8    1  0.1106168E+005  0.1043930E+01  0.7957747E-01            NaN
         13   -1    0    0    0    0  0.00000000000E+00  0.00000000000E+00  0.74505805969E-08  0.10566000000E+00  0.10566000000E+00 0. -1.
     999900   -1    0    0    0    0 -0.00000000000E+00 -0.00000000000E+00 -0.74505805969E-08  0.93827000000E+00  0.93827000000E+00 0.  1.
     999902    2    1    2    0    0  0.82018224232E-02  0.44442820581E-02  0.23893218796E-01  0.10182802936E+01  0.10179571940E+01 0.  0.
     999903    2    3    3    0    0  0.11288142640E+00 -0.34376421943E-01  0.52658882994E-01  0.13075996708E+00  0.20031380875E-01 0.  0.
         14    1    1    2    0    0 -0.82018224232E-02 -0.44442820581E-02 -0.23893218796E-01  0.25649706402E-01  0.00000000000E+00 0.  1.
     999901    1    3    3    0    0 -0.10467960398E+00  0.38820704001E-01 -0.28765664198E-01  0.88752032652E+00  0.88000000000E+00 0.  1.
        -11    1    4    4    0    0  0.30815297201E-01 -0.12326250468E-01  0.24435336183E-01  0.41217299373E-01  0.51100000000E-03 0. -1.
         11    1    4    4    0    0  0.82066129202E-01 -0.22050171475E-01  0.28223546811E-01  0.89542667705E-01  0.51100000000E-03 0.  1.
</event>
<event>
 8    1  0.1106168E+005  0.1043930E+01  0.7957747E-01            NaN
         13   -1    0    0    0    0  0.00000000000E+00  0.00000000000E+00  0.74505805969E-08  0.10566000000E+00  0.10566000000E+00 0. -1.
     999900   -1    0    0    0    0 -0.00000000000E+00 -0.00000000000E+00 -0.74505805969E-08  0.93827000000E+00  0.93827000000E+00 0. -1.
     999902    2    1    2    0    0 -0.11598044209E-01 -0.18557141031E-01  0.77745384602E-02  0.10207066161E+01  0.10204423896E+01 0.  0.
     999903    2    3    3    0    0  0.24637670533E-01  0.96466771210E-01 -0.78578522286E-01  0.12829394331E+00  0.19284682216E-01 0.  0.
         14    1    1    2    0    0  0.11598044209E-01  0.18557141031E-01 -0.77745384602E-02  0.23223383927E-01  0.00000000000E+00 0.  1.
     999901    1    3    3    0    0 -0.36235714743E-01 -0.11502391224E+00  0.86353060746E-01  0.89241267276E+00  0.88000000000E+00 0.  1.
        -11    1    4    4    0    0  0.25415019350E-01  0.66035668262E-01 -0.51098064347E-01  0.87280616361E-01  0.51100000000E-03 0. -1.
         11    1    4    4    0    0 -0.77734881641E-03  0.30431102948E-01 -0.27480457939E-01  0.41013326948E-01  0.51100000000E-03 0.  1.
</event>
<event>
 8    1  0.1106168E+005  0.1043930E+01  0.7957747E-01            NaN
         13   -1    0    0    0    0  0.00000000000E+00  0.00000000000E+00  0.74505805969E-08  0.10566000000E+00  0.10566000000E+00 0.  1.
     999900   -1    0    0    0    0 -0.00000000000E+00 -0.00000000000E+00 -0.74505805969E-08  0.93827000000E+00  0.93827000000E+00 0. -1.
     999902    2    1    2    0    0 -0.22743882127E-01 -0.19093722650E-02  0.57911349688E-02  0.10203828745E+01  0.10201111427E+01 0.  0.
     999903    2    3    3    0    0  0.58632238890E-01 -0.11238385561E+00  0.17924848956E-01  0.12966748134E+00  0.20603035379E-01 0.  0.
         14    1    1    2    0    0  0.22743882127E-01  0.19093722650E-02 -0.57911349688E-02  0.23547125533E-01  0.00000000000E+00 0.  1.
     999901    1    3    3    0    0 -0.81376121017E-01  0.11047448335E+00 -0.12133713987E-01  0.89071539313E+00  0.88000000000E+00 0.  1.
        -11    1    4    4    0    0  0.25229778187E-01 -0.43848289751E-01 -0.27636966578E-02  0.50666688876E-01  0.51100000000E-03 0. -1.
         11    1    4    4    0    0  0.33402460702E-01 -0.68535565862E-01  0.20688545614E-01  0.79000792461E-01  0.51100000000E-03 0.  1.
</event>
<event>
 8    1  0.1106168E+005  0.1043930E+01  0.7957747E-01            NaN
         13   -1    0    0    0    0  0.00000000000E+00  0.00000000000E+00  0.74505805969E-08  0.10566000000E+00  0.10566000000E+00 0.  1.
     999900   -1    0    0    0    0 -0.00000000000E+00 -0.00000000000E+00 -0.74505805969E-08  0.93827000000E+00  0.93827000000E+00 0. -1.
     999902    2    1    2    0    0  0.18469550527E-01  0.10511941959E-01  0.75931566610E-02  0.10213627395E+01  0.10211133944E+01 0.  0.
     999903    2    3    3    0    0 -0.23675844456E-01  0.11936445088E+00 -0.47018582711E-01  0.13197668993E+00  0.19967018288E-01 0.  0.
         14    1    1    2    0    0 -0.18469550527E-01 -0.10511941959E-01 -0.75931566610E-02  0.22567260545E-01  0.00000000000E+00 0.  1.
     999901    1    3    3    0    0  0.42145394983E-01 -0.10885250892E+00  0.54611739372E-01  0.88938604953E+00  0.88000000000E+00 0.  1.
        -11    1    4    4    0    0 -0.18818922461E-02  0.35414303664E-01 -0.57730009089E-02  0.35934705828E-01  0.51100000000E-03 0.  1.
         11    1    4    4    0    0 -0.21793952210E-01  0.83950147217E-01 -0.41245581802E-01  0.96041984100E-01  0.51100000000E-03 0. -1.
</event>
<event>
 8    1  0.1106168E+005  0.1043930E+01  0.7957747E-01            NaN
         13   -1    0    0    0    0  0.00000000000E+00  0.00000000000E+00  0.74505805969E-08  0.10566000000E+00  0.10566000000E+00 0.  1.
     999900   -1    0    0    0    0 -0.00000000000E+00 -0.00000000000E+00 -0.74505805969E-08  0.93827000000E+00  0.93827000000E+00 0.  1.
     999902    2    1    2    0    0  0.18868086676E-01  0.11936329392E-01 -0.79520559967E-02  0.10202294547E+01  0.10199541285E+01 0.  0.
     999903    2    3    3    0    0 -0.98745877630E-03  0.12877079733E+00  0.23833003040E-01  0.13171675045E+00  0.14085346849E-01 0.  0.
         14    1    1    2    0    0 -0.18868086676E-01 -0.11936329392E-01  0.79520559967E-02  0.23700545326E-01  0.00000000000E+00 0.  1.
     999901    1    3    3    0    0  0.19855545452E-01 -0.11683446794E+00 -0.31785059036E-01  0.88851270422E+00  0.88000000000E+00 0.  1.
        -11    1    4    4    0    0 -0.71131620433E-03  0.19176112551E-01  0.87184205416E-02  0.21083198075E-01  0.51100000000E-03 0. -1.
         11    1    4    4    0    0 -0.27614257197E-03  0.10959468478E+00  0.15114582498E-01  0.11063355238E+00  0.51100000000E-03 0.  1.
</event>
<event>
 8    1  0.1106168E+005  0.1043930E+01  0.7957747E-01            NaN
         13   -1    0    0    0    0  0.00000000000E+00  0.00000000000E+00  0.74505805969E-08  0.10566000000E+00  0.10566000000E+00 0.  1.
     999900   -1    0    0    0    0 -0.00000000000E+00 -0.00000000000E+00 -0.74505805969E-08  0.93827000000E+00  0.93827000000E+00 0. -1.
     999902    2    1    2    0    0 -0.23017841040E-01  0.26884239133E-02 -0.56060235685E-02  0.10200872625E+01  0.10198085835E+01 0.  0.
     999903    2    3    3    0    0 -0.98160901371E-02  0.98043275425E-01 -0.84494014301E-01  0.13132961897E+00  0.19984766276E-01 0.  0.
         14    1    1    2    0    0  0.23017841040E-01 -0.26884239133E-02  0.56060235685E-02  0.23842737458E-01  0.00000000000E+00 0. -1.
     999901    1    3    3    0    0 -0.13201750903E-01 -0.95354851512E-01  0.78887990732E-01  0.88875764358E+00  0.88000000000E+00 0. -1.
        -11    1    4    4    0    0 -0.93622904854E-02  0.41125225332E-01 -0.47083955563E-01  0.63214686855E-01  0.51100000000E-03 0. -1.
         11    1    4    4    0    0 -0.45379965174E-03  0.56918050094E-01 -0.37410058738E-01  0.68114932110E-01  0.51100000000E-03 0.  1.
</event>
<event>
 8    1  0.1106168E+005  0.1043930E+01  0.7957747E-01            NaN
         13   -1    0    0    0    0  0.00000000000E+00  0.00000000000E+00  0.74505805969E-08  0.10566000000E+00  0.10566000000E+00 0. -1.
     999900   -1    0    0    0    0 -0.00000000000E+00 -0.00000000000E+00 -0.74505805969E-08  0.93827000000E+00  0.93827000000E+00 0. -1.
     999902    2    1    2    0    0 -0.92254836628E-03  0.13315987823E-01  0.19880354708E-01  0.10199843296E+01  0.10197032105E+01 0.  0.
     999903    2    3    3    0    0 -0.31890306425E-01  0.29712749814E-01  0.12436253406E+00  0.13311095553E+00  0.18778909961E-01 0.  0.
         14    1    1    2    0    0  0.92254836628E-03 -0.13315987823E-01 -0.19880354708E-01  0.23945670391E-01  0.00000000000E+00 0.  1.
     999901    1    3    3    0    0  0.30967758059E-01 -0.16396761992E-01 -0.10448217935E+00  0.88687337408E+00  0.88000000000E+00 0. -1.
        -11    1    4    4    0    0 -0.85664498315E-02  0.20254334595E-01  0.65363593103E-01  0.68965807158E-01  0.51100000000E-03 0.  1.
         11    1    4    4    0    0 -0.23323856594E-01  0.94584152192E-02  0.58998940958E-01  0.64145148375E-01  0.51100000000E-03 0. -1.
</event>
<event>
 8    1  0.1106168E+005  0.1043930E+01  0.7957747E-01            NaN
         13   -1    0    0    0    0  0.00000000000E+00  0.00000000000E+00  0.74505805969E-08  0.10566000000E+00  0.10566000000E+00 0.  1.
     999900   -1    0    0    0    0 -0.00000000000E+00 -0.00000000000E+00 -0.74505805969E-08  0.93827000000E+00  0.93827000000E+00 0.  1.
     999902    2    1    2    0    0 -0.16795563572E-01 -0.12887258148E-01  0.11734526387E-01  0.10197252177E+01  0.10194379079E+01 0.  0.
     999903    2    3    3    0    0  0.47572852268E-01 -0.34326409437E-01 -0.11248405787E+00  0.12841540237E+00  0.19909134448E-01 0.  0.
         14    1    1    2    0    0  0.16795563572E-01  0.12887258148E-01 -0.11734526387E-01  0.24204782334E-01  0.00000000000E+00 0. -1.
     999901    1    3    3    0    0 -0.64368415841E-01  0.21439151289E-01  0.12421858425E+00  0.89130981529E+00  0.88000000000E+00 0. -1.
        -11    1    4    4    0    0  0.10420606182E-01 -0.50685661785E-02 -0.41724327687E-01  0.43306581928E-01  0.51100000000E-03 0.  1.
         11    1    4    4    0    0  0.37152246086E-01 -0.29257843259E-01 -0.70759730179E-01  0.85108820444E-01  0.51100000000E-03 0. -1.
</event>
<event>
 8    1  0.1106168E+005  0.1043930E+01  0.7957747E-01            NaN
         13   -1    0    0    0    0  0.00000000000E+00  0.00000000000E+00  0.74505805969E-08  0.10566000000E+00  0.10566000000E+00 0. -1.
     999900   -1    0    0    0    0 -0.00000000000E+00 -0.00000000000E+00 -0.74505805969E-08  0.93827000000E+00  0.93827000000E+00 0.  1.
     999902    2    1    2    0    0  0.13119369998E-01  0.17142131455E-01  0.57084822971E-02  0.10216016031E+01  0.10213575662E+01 0.  0.
     999903    2    3    3    0    0  0.63691884898E-01  0.89533950414E-01 -0.73245649301E-01  0.13366471926E+00  0.20696558983E-01 0.  0.
         14    1    1    2    0    0 -0.13119369998E-01 -0.17142131455E-01 -0.57084822971E-02  0.22328396944E-01  0.00000000000E+00 0.  1.
     999901    1    3    3    0    0 -0.50572514900E-01 -0.72391818959E-01  0.78954131598E-01  0.88793688380E+00  0.88000000000E+00 0. -1.
        -11    1    4    4    0    0  0.10482983056E-01  0.54918670873E-02 -0.41549628732E-02  0.12553022558E-01  0.51100000000E-03 0.  1.
         11    1    4    4    0    0  0.53208901842E-01  0.84042083327E-01 -0.69090686427E-01  0.12111169670E+00  0.51100000000E-03 0. -1.
</event>
<event>
 8    1  0.1106168E+005  0.1043930E+01  0.7957747E-01            NaN
         13   -1    0    0    0    0  0.00000000000E+00  0.00000000000E+00  0.74505805969E-08  0.10566000000E+00  0.10566000000E+00 0.  1.
     999900   -1    0    0    0    0 -0.00000000000E+00 -0.00000000000E+00 -0.74505805969E-08  0.93827000000E+00  0.93827000000E+00 0. -1.
     999902    2    1    2    0    0  0.13091051332E-01  0.14840530412E-02  0.20622065855E-01  0.10194586364E+01  0.10191648854E+01 0.  0.
     999903    2    3    3    0    0 -0.89482351607E-01  0.44692126307E-01  0.81222369724E-01  0.13038010360E+00  0.19935412399E-01 0.  0.
         14    1    1    2    0    0 -0.13091051332E-01 -0.14840530412E-02 -0.20622065855E-01  0.24471363642E-01  0.00000000000E+00 0. -1.
     999901    1    3    3    0    0  0.10257340294E+00 -0.43208073266E-01 -0.60600303869E-01  0.88907853276E+00  0.88000000000E+00 0. -1.
        -11    1    4    4    0    0 -0.38219511175E-01  0.20614267229E-01  0.47946885309E-01  0.64690370069E-01  0.51100000000E-03 0.  1.
         11    1    4    4    0    0 -0.51262840433E-01  0.24077859078E-01  0.33275484415E-01  0.65689733528E-01  0.51100000000E-03 0. -1.
</event>
<event>
 8    1  0.1106168E+005  0.1043930E+01  0.7957747E-01            NaN
         13   -1    0    0    0    0  0.00000000000E+00  0.00000000000E+00  0.74505805969E-08  0.10566000000E+00  0.10566000000E+00 0.  1.
     999900   -1    0    0    0    0 -0.00000000000E+00 -0.00000000000E+00 -0.74505805969E-08  0.93827000000E+00  0.93827000000E+00 0.  1.
     999902    2    1    2    0    0  0.20953117938E-01  0.10039147425E-01 -0.19618835606E-02  0.10206133403E+01  0.10203469625E+01 0.  0.
     999903    2    3    3    0    0 -0.10414460192E+00  0.71906121719E-01 -0.22598012360E-01  0.12937666476E+00  0.14527999544E-01 0.  0.
         14    1    1    2    0    0 -0.20953117938E-01 -0.10039147425E-01  0.19618835606E-02  0.23316659698E-01  0.00000000000E+00 0. -1.
     999901    1    3    3    0    0  0.12509771986E+00 -0.61866974294E-01  0.20636128799E-01  0.89123667554E+00  0.88000000000E+00 0. -1.
        -11    1    4    4    0    0 -0.47231902038E-01  0.29651509795E-01 -0.16841440027E-01  0.58257701864E-01  0.51100000000E-03 0.  1.
         11    1    4    4    0    0 -0.56912699885E-01  0.42254611925E-01 -0.57565723330E-02  0.71118962894E-01  0.51100000000E-03 0. -1.
</event>
<event>
 8    1  0.1106168E+005  0.1043930E+01  0.7957747E-01            NaN
         13   -1    0    0    0    0  0.00000000000E+00  0.00000000000E+00  0.74505805969E-08  0.10566000000E+00  0.10566000000E+00 0.  1.
     999900   -1    0    0    0    0 -0.00000000000E+00 -0.00000000000E+00 -0.74505805969E-08  0.93827000000E+00  0.93827000000E+00 0. -1.
     999902    2    1    2    0    0 -0.95300461649E-02 -0.18793426161E-01  0.71981384361E-02  0.10216628079E+01  0.10214201218E+01 0.  0.
     999903    2    3    3    0    0  0.51239156206E-01  0.21031313404E-01  0.11779479577E+00  0.13176926009E+00  0.20487965280E-01 0.  0.
         14    1    1    2    0    0  0.95300461649E-02  0.18793426161E-01 -0.71981384361E-02  0.22267192093E-01  0.00000000000E+00 0. -1.
     999901    1    3    3    0    0 -0.60769202371E-01 -0.39824739565E-01 -0.11059665733E+00  0.88989354782E+00  0.88000000000E+00 0. -1.
        -11    1    4    4    0    0  0.22006985161E-01 -0.97794993376E-03  0.52133539805E-01  0.56598859313E-01  0.51100000000E-03 0. -1.
         11    1    4    4    0    0  0.29232171044E-01  0.22009263338E-01  0.65661255965E-01  0.75170400774E-01  0.51100000000E-03 0.  1.
</event>
<event>
 8    1  0.1106168E+005  0.1043930E+01  0.7957747E-01            NaN
         13   -1    0    0    0    0  0.00000000000E+00  0.00000000000E+00  0.74505805969E-08  0.10566000000E+00  0.10566000000E+00 0. -1.
     999900   -1    0    0    0    0 -0.00000000000E+00 -0.00000000000E+00 -0.74505805969E-08  0.93827000000E+00  0.93827000000E+00 0.  1.
     999902    2    1    2    0    0  0.10097184631E-01 -0.20517794725E-01 -0.35775212284E-02  0.10207841214E+01  0.10205216758E+01 0.  0.
     999903    2    3    3    0    0 -0.26490721590E-01  0.89812384981E-01  0.85969318976E-01  0.12863499708E+00  0.19703193724E-01 0.  0.
         14    1    1    2    0    0 -0.10097184631E-01  0.20517794725E-01  0.35775212284E-02  0.23145878596E-01  0.00000000000E+00 0.  1.
     999901    1    3    3    0    0  0.36587906221E-01 -0.11033017971E+00 -0.89546840205E-01  0.89214912432E+00  0.88000000000E+00 0.  1.
        -11    1    4    4    0    0 -0.14172293232E-01  0.74467111026E-01  0.64791423133E-01  0.99721583183E-01  0.51100000000E-03 0.  1.
         11    1    4    4    0    0 -0.12318428358E-01  0.15345273956E-01  0.21177895844E-01  0.28913413900E-01  0.51100000000E-03 0. -1.
</event>
<event>
 8    1  0.1106168E+005  0.1043930E+01  0.7957747E-01            NaN
         13   -1    0    0    0    0  0.00000000000E+00  0.00000000000E+00  0.74505805969E-08  0.10566000000E+00  0.10566000000E+00 0.  1.
     999900   -1    0    0    0    0 -0.00000000000E+00 -0.00000000000E+00 -0.74505805969E-08  0.93827000000E+00  0.93827000000E+00 0.  1.
     999902    2    1    2    0    0  0.11000896370E-01 -0.20441057779E-01  0.37557077485E-02  0.10204148580E+01  0.10201438724E+01 0.  0.
     999903    2    3    3    0    0 -0.96249492886E-01  0.66631682223E-01  0.48622002242E-01  0.12850830881E+00  0.21131501955E-01 0.  0.
         14    1    1    2    0    0 -0.11000896370E-01  0.20441057779E-01 -0.37557077485E-02  0.23515142032E-01  0.00000000000E+00 0.  1.
     999901    1    3    3    0    0  0.10725038926E+00 -0.87072740002E-01 -0.44866294494E-01  0.89190654916E+00  0.88000000000E+00 0. -1.
        -11    1    4    4    0    0 -0.71151836567E-01  0.56820229025E-01  0.30496246771E-01  0.96028144111E-01  0.51100000000E-03 0.  1.
         11    1    4    4    0    0 -0.25097656319E-01  0.98114531975E-02  0.18125755471E-01  0.32480164700E-01  0.51100000000E-03 0. -1.
</event>
<event>
 8    1  0.1106168E+005  0.1043930E+01  0.7957747E-01            NaN
         13   -1    0    0    0    0  0.00000000000E+00  0.00000000000E+00  0.74505805969E-08  0.10566000000E+00  0.10566000000E+00 0.  1.
     999900   -1    0    0    0    0 -0.00000000000E+00 -0.00000000000E+00 -0.74505805969E-08  0.93827000000E+00  0.93827000000E+00 0.  1.
     999902    2    1    2    0    0 -0.14642296537E-01  0.14331931727E-01  0.12059135246E-01  0.10201555629E+01  0.10198784970E+01 0.  0.
     999903    2    3    3    0    0  0.27208116193E-01 -0.12323704720E+00  0.13455815795E-01  0.12848374454E+00  0.19984049704E-01 0.  0.
         14    1    1    2    0    0  0.14642296537E-01 -0.14331931727E-01 -0.12059135246E-01  0.23774437065E-01  0.00000000000E+00 0. -1.
     999901    1    3    3    0    0 -0.41850412730E-01  0.13756897893E+00 -0.13966805486E-02  0.89167181840E+00  0.88000000000E+00 0.  1.
        -11    1    4    4    0    0  0.18491166330E-01 -0.98858418917E-01  0.31809050076E-02  0.10062449752E+00  0.51100000000E-03 0. -1.
         11    1    4    4    0    0  0.87169498630E-02 -0.24378628281E-01  0.10274910787E-01  0.27859247019E-01  0.51100000000E-03 0.  1.
</event>
<event>
 8    1  0.1106168E+005  0.1043930E+01  0.7957747E-01            NaN
         13   -1    0    0    0    0  0.00000000000E+00  0.00000000000E+00  0.74505805969E-08  0.10566000000E+00  0.10566000000E+00 0. -1.
     999900   -1    0    0    0    0 -0.00000000000E+00 -0.00000000000E+00 -0.74505805969E-08  0.93827000000E+00  0.93827000000E+00 0.  1.
     999902    2    1    2    0    0  0.22601544638E-01 -0.40941957187E-02 -0.41371732511E-02  0.10205910099E+01  0.10203241156E+01 0.  0.
     999903    2    3    3    0    0  0.81388050893E-02  0.27499545470E-01  0.12558111130E+00  0.13040329444E+00  0.20296269011E-01 0.  0.
         14    1    1    2    0    0 -0.22601544638E-01  0.40941957187E-02  0.41371732511E-02  0.23338990148E-01  0.00000000000E+00 0. -1.
     999901    1    3    3    0    0  0.14462739549E-01 -0.31593741189E-01 -0.12971828456E+00  0.89018771541E+00  0.88000000000E+00 0.  1.
        -11    1    4    4    0    0  0.94813768226E-02  0.15041363335E-01  0.38338346155E-01  0.42263802767E-01  0.51100000000E-03 0.  1.
         11    1    4    4    0    0 -0.13425717333E-02  0.12458182135E-01  0.87242765150E-01  0.88139491676E-01  0.51100000000E-03 0. -1.
</event>
<event>
 8    1  0.1106168E+005  0.1043930E+01  0.7957747E-01            NaN
         13   -1    0    0    0    0  0.00000000000E+00  0.00000000000E+00  0.74505805969E-08  0.10566000000E+00  0.10566000000E+00 0.  1.
     999900   -1    0    0    0    0 -0.00000000000E+00 -0.00000000000E+00 -0.74505805969E-08  0.93827000000E+00  0.93827000000E+00 0.  1.
     999902    2    1    2    0    0 -0.17369165110E-01 -0.64575335765E-03  0.18199012606E-01  0.10187643696E+01  0.10184535001E+01 0.  0.
     999903    2    3    3    0    0 -0.23990290604E-01  0.12142831966E+00 -0.31719595703E-01  0.12891169299E+00  0.17079841284E-01 0.  0.
         14    1    1    2    0    0  0.17369165110E-01  0.64575335765E-03 -0.18199012606E-01  0.25165630408E-01  0.00000000000E+00 0. -1.
     999901    1    3    3    0    0  0.66211254946E-02 -0.12207407302E+00  0.49918608309E-01  0.88985267661E+00  0.88000000000E+00 0. -1.
        -11    1    4    4    0    0 -0.70246512060E-02  0.77993090702E-01 -0.19377096535E-01  0.80672181779E-01  0.51100000000E-03 0.  1.
         11    1    4    4    0    0 -0.16965639398E-01  0.43435228958E-01 -0.12342499168E-01  0.48239511207E-01  0.51100000000E-03 0. -1.
</event>
<event>
 8    1  0.1106168E+005  0.1043930E+01  0.7957747E-01            NaN
         13   -1    0    0    0    0  0.00000000000E+00  0.00000000000E+00  0.74505805969E-08  0.10566000000E+00  0.10566000000E+00 0. -1.
     999900   -1    0    0    0    0 -0.00000000000E+00 -0.00000000000E+00 -0.74505805969E-08  0.93827000000E+00  0.93827000000E+00 0.  1.
     999902    2    1    2    0    0 -0.10741625464E-01  0.19773075961E-01  0.45227043311E-02  0.10209776166E+01  0.10207195901E+01 0.  0.
     999903    2    3    3    0    0 -0.10749388556E+00 -0.14724568663E-02  0.75058878222E-01  0.13261523312E+00  0.19896263328E-01 0.  0.
         14    1    1    2    0    0  0.10741625464E-01 -0.19773075961E-01 -0.45227043311E-02  0.22952383428E-01  0.00000000000E+00 0.  1.
     999901    1    3    3    0    0  0.96752260096E-01  0.21245532827E-01 -0.70536173891E-01  0.88836238345E+00  0.88000000000E+00 0.  1.
        -11    1    4    4    0    0 -0.31220314277E-01  0.85131461411E-02  0.23860636284E-01  0.40209112968E-01  0.51100000000E-03 0.  1.
         11    1    4    4    0    0 -0.76273571283E-01 -0.99856030074E-02  0.51198241938E-01  0.92406120156E-01  0.51100000000E-03 0. -1.
</event>
<event>
 8    1  0.1322796E+005  0.1043930E+01  0.7957747E-01            NaN
         13   -1    0    0    0    0  0.00000000000E+00  0.00000000000E+00  0.74505805969E-08  0.10566000000E+00  0.10566000000E+00 0. -1.
     999900   -1    0    0    0    0 -0.00000000000E+00 -0.00000000000E+00 -0.74505805969E-08  0.93827000000E+00  0.93827000000E+00 0. -1.
     999902    2    1    2    0    0  0.96795021899E-02 -0.20024916191E-01 -0.75297915784E-02  0.10204483520E+01  0.10201781469E+01 0.  0.
     999903    2    3    3    0    0  0.72087542226E-01 -0.10327190798E+00  0.37566770919E-01  0.13317245070E+00  0.21492757486E-01 0.  0.
         14    1    1    2    0    0 -0.96795021899E-02  0.20024916191E-01  0.75297915784E-02  0.23481647990E-01  0.00000000000E+00 0. -1.
     999901    1    3    3    0    0 -0.62408040036E-01  0.83246991792E-01 -0.45096562497E-01  0.88727590131E+00  0.88000000000E+00 0. -1.
        -11    1    4    4    0    0  0.29625729496E-01 -0.48241539024E-01  0.27491556557E-01  0.62936291109E-01  0.51100000000E-03 0. -1.
         11    1    4    4    0    0  0.42461812730E-01 -0.55030368960E-01  0.10075214361E-01  0.70236159587E-01  0.51100000000E-03 0.  1.
</event>
<event>
 8    1  0.1106168E+005  0.1043930E+01  0.7957747E-01            NaN
         13   -1    0    0    0    0  0.00000000000E+00  0.00000000000E+00  0.74505805969E-08  0.10566000000E+00  0.10566000000E+00 0.  1.
     999900   -1    0    0    0    0 -0.00000000000E+00 -0.00000000000E+00 -0.74505805969E-08  0.93827000000E+00  0.93827000000E+00 0.  1.
     999902    2    1    2    0    0 -0.12707885356E-01 -0.11281044458E-01 -0.15477028257E-01  0.10209454243E+01  0.10206866653E+01 0.  0.
     999903    2    3    3    0    0  0.62503721418E-01 -0.78419469502E-01 -0.84175464224E-01  0.13252895162E+00  0.20544728074E-01 0.  0.
         14    1    1    2    0    0  0.12707885356E-01  0.11281044458E-01  0.15477028257E-01  0.22984575653E-01  0.00000000000E+00 0.  1.
     999901    1    3    3    0    0 -0.75211606774E-01  0.67138425044E-01  0.68698435967E-01  0.88841647273E+00  0.88000000000E+00 0. -1.
        -11    1    4    4    0    0  0.27875646565E-01 -0.19520646000E-01 -0.28494959327E-01  0.44388411998E-01  0.51100000000E-03 0.  1.
         11    1    4    4    0    0  0.34628074854E-01 -0.58898823502E-01 -0.55680504897E-01  0.88140539620E-01  0.51100000000E-03 0. -1.
</event>
<event>
 8    1  0.1106168E+005  0.1043930E+01  0.7957747E-01            NaN
         13   -1    0    0    0    0  0.00000000000E+00  0.00000000000E+00  0.74505805969E-08  0.10566000000E+00  0.10566000000E+00 0.  1.
     999900   -1    0    0    0    0 -0.00000000000E+00 -0.00000000000E+00 -0.74505805969E-08  0.93827000000E+00  0.93827000000E+00 0.  1.
     999902    2    1    2    0    0  0.14185577341E-01 -0.19319411229E-01  0.58150418033E-03  0.10199548378E+01  0.10196730176E+01 0.  0.
     999903    2    3    3    0    0 -0.13667826548E-01 -0.93772604010E-01 -0.89341050560E-01  0.13180780276E+00  0.20282080962E-01 0.  0.
         14    1    1    2    0    0 -0.14185577341E-01  0.19319411229E-01 -0.58150418033E-03  0.23975162186E-01  0.00000000000E+00 0. -1.
     999901    1    3    3    0    0  0.27853403889E-01  0.74453192781E-01  0.89922554740E-01  0.88814703505E+00  0.88000000000E+00 0.  1.
        -11    1    4    4    0    0  0.16182115384E-02 -0.56037592363E-01 -0.55098837709E-01  0.78606446328E-01  0.51100000000E-03 0.  1.
         11    1    4    4    0    0 -0.15286038086E-01 -0.37735011646E-01 -0.34242212851E-01  0.53201356432E-01  0.51100000000E-03 0. -1.
</event>
<event>
 8    1  0.1106168E+005  0.1043930E+01  0.7957747E-01            NaN
         13   -1    0    0    0    0  0.00000000000E+00  0.00000000000E+00  0.74505805969E-08  0.10566000000E+00  0.10566000000E+00 0.  1.
     999900   -1    0    0    0    0 -0.00000000000E+00 -0.00000000000E+00 -0.74505805969E-08  0.93827000000E+00  0.93827000000E+00 0.  1.
     999902    2    1    2    0    0 -0.84241260526E-02 -0.24788771393E-01 -0.30438881323E-02  0.10175725657E+01  0.10172311498E+01 0.  0.
     999903    2    3    3    0    0 -0.12371882285E+00 -0.12573508294E-01 -0.28309747352E-01  0.12960835281E+00  0.23074728298E-01 0.  0.
         14    1    1    2    0    0  0.84241260526E-02  0.24788771393E-01  0.30438881323E-02  0.26357434281E-01  0.00000000000E+00 0.  1.
     999901    1    3    3    0    0  0.11529469679E+00 -0.12215263099E-01  0.25265859220E-01  0.88796421291E+00  0.88000000000E+00 0.  1.
        -11    1    4    4    0    0 -0.71338915543E-01  0.28143293366E-02 -0.21657472224E-01  0.74608769891E-01  0.51100000000E-03 0. -1.
         11    1    4    4    0    0 -0.52379907303E-01 -0.15387837631E-01 -0.66522751279E-02  0.54999582921E-01  0.51100000000E-03 0.  1.
</event>
<event>
 8    1  0.1106168E+005  0.1043930E+01  0.7957747E-01            NaN
         13   -1    0    0    0    0  0.00000000000E+00  0.00000000000E+00  0.74505805969E-08  0.10566000000E+00  0.10566000000E+00 0.  1.
     999900   -1    0    0    0    0 -0.00000000000E+00 -0.00000000000E+00 -0.74505805969E-08  0.93827000000E+00  0.93827000000E+00 0.  1.
     999902    2    1    2    0    0 -0.74938257635E-02 -0.21748740287E-01  0.77858751500E-02  0.10196445109E+01  0.10193552588E+01 0.  0.
     999903    2    3    3    0    0 -0.88025555369E-01 -0.85504457987E-01  0.46911996911E-01  0.13280686826E+00  0.19427250683E-01 0.  0.
         14    1    1    2    0    0  0.74938257635E-02  0.21748740287E-01 -0.77858751500E-02  0.24285489093E-01  0.00000000000E+00 0.  1.
     999901    1    3    3    0    0  0.80531729605E-01  0.63755717700E-01 -0.39126121761E-01  0.88683764265E+00  0.88000000000E+00 0.  1.
        -11    1    4    4    0    0 -0.67615694514E-01 -0.72972812379E-01  0.31628842020E-01  0.10439137062E+00  0.51100000000E-03 0.  1.
         11    1    4    4    0    0 -0.20409860855E-01 -0.12531645608E-01  0.15283154891E-01  0.28415497640E-01  0.51100000000E-03 0. -1.
</event>
<event>
 7    1  0.1106168E+005  0.1043930E+01  0.7957747E-01            NaN
         13   -1    0    0    0    0  0.00000000000E+00  0.00000000000E+00  0.74505805969E-08  0.10566000000E+00  0.10566000000E+00 0.  1.
     999900   -1    0    0    0    0 -0.00000000000E+00 -0.00000000000E+00 -0.74505805969E-08  0.93827000000E+00  0.93827000000E+00 0.  1.
     999903    2    1    2    0    0  0.63475015597E-01 -0.57081534649E-01 -0.69860967517E-01  0.11186187518E+00  0.18578082074E-01 0.  0.
         14    1    1    2    0    0 -0.22181306086E-02  0.27215729614E-01 -0.33705010205E-01  0.43377917824E-01  0.00000000000E+00 0. -1.
     999901    1    1    2    0    0 -0.61256884988E-01  0.29865805035E-01  0.10356597772E+00  0.88869020700E+00  0.88000000000E+00 0. -1.
        -11    1    3    3    0    0  0.36365314034E-01 -0.39930904063E-01 -0.52768470054E-01  0.75509507460E-01  0.51100000000E-03 0.  1.
         11    1    3    3    0    0  0.27109701563E-01 -0.17150630586E-01 -0.17092497463E-01  0.36352367720E-01  0.51100000000E-03 0. -1.
</event>
<event>
 8    1  0.1106168E+005  0.1043930E+01  0.7957747E-01            NaN
         13   -1    0    0    0    0  0.00000000000E+00  0.00000000000E+00  0.74505805969E-08  0.10566000000E+00  0.10566000000E+00 0.  1.
     999900   -1    0    0    0    0 -0.00000000000E+00 -0.00000000000E+00 -0.74505805969E-08  0.93827000000E+00  0.93827000000E+00 0. -1.
     999902    2    1    2    0    0 -0.60902599040E-02 -0.13323882370E-01  0.18027979887E-01  0.10207001665E+01  0.10204357915E+01 0.  0.
     999903    2    3    3    0    0  0.39047720437E-02 -0.87522554123E-02 -0.12687586858E+00  0.12878205042E+00  0.19886710683E-01 0.  0.
         14    1    1    2    0    0  0.60902599040E-02  0.13323882370E-01 -0.18027979887E-01  0.23229833532E-01  0.00000000000E+00 0. -1.
     999901    1    3    3    0    0 -0.99950319477E-02 -0.45716269572E-02  0.14490384847E+00  0.89191811605E+00  0.88000000000E+00 0.  1.
        -11    1    4    4    0    0  0.98339008175E-02 -0.72805972199E-02 -0.43785875934E-01  0.45466215518E-01  0.51100000000E-03 0. -1.
         11    1    4    4    0    0 -0.59291287739E-02 -0.14716581924E-02 -0.83089992648E-01  0.83315834900E-01  0.51100000000E-03 0.  1.
</event>
<event>
 8    1  0.1106168E+005  0.1043930E+01  0.7957747E-01            NaN
         13   -1    0    0    0    0  0.00000000000E+00  0.00000000000E+00  0.74505805969E-08  0.10566000000E+00  0.10566000000E+00 0.  1.
     999900   -1    0    0    0    0 -0.00000000000E+00 -0.00000000000E+00 -0.74505805969E-08  0.93827000000E+00  0.93827000000E+00 0.  1.
     999902    2    1    2    0    0 -0.20565953735E-01  0.13010685104E-01  0.36836476351E-02  0.10193168807E+01  0.10190196748E+01 0.  0.
     999903    2    3    3    0    0  0.34141576214E-01  0.10578684223E+00 -0.64555667478E-01  0.13012796195E+00  0.20232376602E-01 0.  0.
         14    1    1    2    0    0  0.20565953735E-01 -0.13010685104E-01 -0.36836476351E-02  0.24613119262E-01  0.00000000000E+00 0. -1.
     999901    1    3    3    0    0 -0.54707529949E-01 -0.92776157127E-01  0.68239315113E-01  0.88918891879E+00  0.88000000000E+00 0. -1.
        -11    1    4    4    0    0  0.32826411076E-01  0.71680997513E-01 -0.44276065138E-01  0.90423280927E-01  0.51100000000E-03 0.  1.
         11    1    4    4    0    0  0.13151651377E-02  0.34105844718E-01 -0.20279602340E-01  0.39704681025E-01  0.51100000000E-03 0. -1.
</event>
<event>
 8    1  0.1106168E+005  0.1043930E+01  0.7957747E-01            NaN
         13   -1    0    0    0    0  0.00000000000E+00  0.00000000000E+00  0.74505805969E-08  0.10566000000E+00  0.10566000000E+00 0. -1.
     999900   -1    0    0    0    0 -0.00000000000E+00 -0.00000000000E+00 -0.74505805969E-08  0.93827000000E+00  0.93827000000E+00 0.  1.
     999902    2    1    2    0    0 -0.20563957743E-01 -0.11474847876E-01  0.27302856741E-02  0.10202233986E+01  0.10199479301E+01 0.  0.
     999903    2    3    3    0    0  0.94639809229E-01 -0.80498143587E-01 -0.30243045453E-01  0.12942411486E+00  0.19982870113E-01 0.  0.
         14    1    1    2    0    0  0.20563957743E-01  0.11474847876E-01 -0.27302856741E-02  0.23706601437E-01  0.00000000000E+00 0. -1.
     999901    1    3    3    0    0 -0.11520376697E+00  0.69023295711E-01  0.32973331127E-01  0.89079928370E+00  0.88000000000E+00 0. -1.
        -11    1    4    4    0    0  0.83525852645E-01 -0.71092473078E-01 -0.19700347237E-01  0.11144089281E+00  0.51100000000E-03 0.  1.
         11    1    4    4    0    0  0.11113956584E-01 -0.94056705086E-02 -0.10542698216E-01  0.17983222051E-01  0.51100000000E-03 0. -1.
</event>
<event>
 8    1  0.1106168E+005  0.1043930E+01  0.7957747E-01            NaN
         13   -1    0    0    0    0  0.00000000000E+00  0.00000000000E+00  0.74505805969E-08  0.10566000000E+00  0.10566000000E+00 0.  1.
     999900   -1    0    0    0    0 -0.00000000000E+00 -0.00000000000E+00 -0.74505805969E-08  0.93827000000E+00  0.93827000000E+00 0.  1.
     999902    2    1    2    0    0 -0.67938779460E-02  0.15664880785E-01  0.15895826807E-01  0.10206014214E+01  0.10203347680E+01 0.  0.
     999903    2    3    3    0    0  0.53179037915E-01  0.82598856571E-01 -0.84478054469E-01  0.13034762404E+00  0.14261143901E-01 0.  0.
         14    1    1    2    0    0  0.67938779460E-02 -0.15664880785E-01 -0.15895826807E-01  0.23328578556E-01  0.00000000000E+00 0. -1.
     999901    1    3    3    0    0 -0.59972915861E-01 -0.66933975787E-01  0.10037388128E+00  0.89025379740E+00  0.88000000000E+00 0. -1.
        -11    1    4    4    0    0  0.20399980106E-01  0.39280199896E-01 -0.45548370446E-01  0.63513844660E-01  0.51100000000E-03 0. -1.
         11    1    4    4    0    0  0.32779057809E-01  0.43318656675E-01 -0.38929684023E-01  0.66833779379E-01  0.51100000000E-03 0.  1.
</event>
<event>
 8    1  0.1106168E+005  0.1043930E+01  0.7957747E-01            NaN
         13   -1    0    0    0    0  0.00000000000E+00  0.00000000000E+00  0.74505805969E-08  0.10566000000E+00  0.10566000000E+00 0. -1.
     999900   -1    0    0    0    0 -0.00000000000E+00 -0.00000000000E+00 -0.74505805969E-08  0.93827000000E+00  0.93827000000E+00 0.  1.
     999902    2    1    2    0    0 -0.15461397858E-02  0.21003512455E-01 -0.10220612332E-01  0.10205206215E+01  0.10202520963E+01 0.  0.
     999903    2    3    3    0    0  0.59270044163E-01 -0.40477141458E-02  0.11359888051E+00  0.12942161525E+00  0.17774327445E-01 0.  0.
         14    1    1    2    0    0  0.15461397858E-02 -0.21003512455E-01  0.10220612332E-01  0.23409378465E-01  0.00000000000E+00 0.  1.
     999901    1    3    3    0    0 -0.60816183949E-01  0.25051226601E-01 -0.12381949285E+00  0.89109900628E+00  0.88000000000E+00 0.  1.
        -11    1    4    4    0    0  0.25824828323E-01  0.67994840004E-02  0.44825420955E-01  0.52179825847E-01  0.51100000000E-03 0.  1.
         11    1    4    4    0    0  0.33445215841E-01 -0.10847198146E-01  0.68773459559E-01  0.77241789408E-01  0.51100000000E-03 0. -1.
</event>
<event>
 8    1  0.1106168E+005  0.1043930E+01  0.7957747E-01            NaN
         13   -1    0    0    0    0  0.00000000000E+00  0.00000000000E+00  0.74505805969E-08  0.10566000000E+00  0.10566000000E+00 0. -1.
     999900   -1    0    0    0    0 -0.00000000000E+00 -0.00000000000E+00 -0.74505805969E-08  0.93827000000E+00  0.93827000000E+00 0.  1.
     999902    2    1    2    0    0 -0.14267892599E-01  0.16457740766E-01  0.10556790753E-01  0.10197251281E+01  0.10194378162E+01 0.  0.
     999903    2    3    3    0    0 -0.97202341827E-01 -0.68548085957E-01  0.50723607832E-01  0.13083959748E+00  0.19974497014E-01 0.  0.
         14    1    1    2    0    0  0.14267892599E-01 -0.16457740766E-01 -0.10556790753E-01  0.24204871852E-01  0.00000000000E+00 0.  1.
     999901    1    3    3    0    0  0.82934449227E-01  0.85005826723E-01 -0.40166817079E-01  0.88888553067E+00  0.88000000000E+00 0. -1.
        -11    1    4    4    0    0 -0.82471493813E-01 -0.62100037092E-01  0.50065216870E-01  0.11473773991E+00  0.51100000000E-03 0. -1.
         11    1    4    4    0    0 -0.14730848014E-01 -0.64480488647E-02  0.65839096268E-03  0.16101857565E-01  0.51100000000E-03 0.  1.
</event>
<event>
 8    1  0.1106168E+005  0.1043930E+01  0.7957747E-01            NaN
         13   -1    0    0    0    0  0.00000000000E+00  0.00000000000E+00  0.74505805969E-08  0.10566000000E+00  0.10566000000E+00 0. -1.
     999900   -1    0    0    0    0 -0.00000000000E+00 -0.00000000000E+00 -0.74505805969E-08  0.93827000000E+00  0.93827000000E+00 0.  1.
     999902    2    1    2    0    0  0.58132602113E-02  0.72498218403E-02 -0.21063374485E-01  0.10209078442E+01  0.10206482287E+01 0.  0.
     999903    2    3    3    0    0 -0.23834396093E-02 -0.64414163028E-01 -0.11450714423E+00  0.13302572891E+00  0.20714567096E-01 0.  0.
         14    1    1    2    0    0 -0.58132602113E-02 -0.72498218403E-02  0.21063374485E-01  0.23022155757E-01  0.00000000000E+00 0. -1.
     999901    1    3    3    0    0  0.81966998206E-02  0.71663984868E-01  0.93443769747E-01  0.88788211533E+00  0.88000000000E+00 0. -1.
        -11    1    4    4    0    0  0.35156059845E-02 -0.49450140124E-01 -0.70653646578E-01  0.86312656890E-01  0.51100000000E-03 0.  1.
         11    1    4    4    0    0 -0.58990455938E-02 -0.14964022904E-01 -0.43853497654E-01  0.46713072024E-01  0.51100000000E-03 0. -1.
</event>
<event>
 8    1  0.1106168E+005  0.1043930E+01  0.7957747E-01            NaN
         13   -1    0    0    0    0  0.00000000000E+00  0.00000000000E+00  0.74505805969E-08  0.10566000000E+00  0.10566000000E+00 0.  1.
     999900   -1    0    0    0    0 -0.00000000000E+00 -0.00000000000E+00 -0.74505805969E-08  0.93827000000E+00  0.93827000000E+00 0.  1.
     999902    2    1    2    0    0  0.23531826766E-01 -0.93136034552E-02  0.32281909524E-02  0.10184170367E+01  0.10180974164E+01 0.  0.
     999903    2    3    3    0    0 -0.77743308618E-01 -0.91269871991E-01  0.40533685991E-01  0.12804341682E+00  0.19440301482E-01 0.  0.
         14    1    1    2    0    0 -0.23531826766E-01  0.93136034552E-02 -0.32281909524E-02  0.25512963315E-01  0.00000000000E+00 0. -1.
     999901    1    3    3    0    0  0.10127513538E+00  0.81956268536E-01 -0.37305495039E-01  0.89037361987E+00  0.88000000000E+00 0.  1.
        -11    1    4    4    0    0 -0.42725616646E-01 -0.44992084214E-01  0.30526842654E-01  0.69151393356E-01  0.51100000000E-03 0. -1.
         11    1    4    4    0    0 -0.35017691971E-01 -0.46277787778E-01  0.10006843338E-01  0.58892023460E-01  0.51100000000E-03 0.  1.
</event>
<event>
 8    1  0.1106168E+005  0.1043930E+01  0.7957747E-01            NaN
         13   -1    0    0    0    0  0.00000000000E+00  0.00000000000E+00  0.74505805969E-08  0.10566000000E+00  0.10566000000E+00 0.  1.
     999900   -1    0    0    0    0 -0.00000000000E+00 -0.00000000000E+00 -0.74505805969E-08  0.93827000000E+00  0.93827000000E+00 0.  1.
     999902    2    1    2    0    0 -0.12875689107E-01  0.20049662608E-01  0.48489872712E-02  0.10196136471E+01  0.10193236504E+01 0.  0.
     999903    2    3    3    0    0  0.44809612654E-01  0.12193977531E+00  0.15057348281E-01  0.13179981541E+00  0.16348009560E-01 0.  0.
         14    1    1    2    0    0  0.12875689107E-01 -0.20049662608E-01 -0.48489872712E-02  0.24316352898E-01  0.00000000000E+00 0.  1.
     999901    1    3    3    0    0 -0.57685301761E-01 -0.10189011270E+00 -0.10208361010E-01  0.88781383169E+00  0.88000000000E+00 0.  1.
        -11    1    4    4    0    0  0.67149324265E-02  0.27926754124E-01 -0.25639914552E-02  0.28841447373E-01  0.51100000000E-03 0.  1.
         11    1    4    4    0    0  0.38094680227E-01  0.94013021186E-01  0.17621339737E-01  0.10295836804E+00  0.51100000000E-03 0. -1.
</event>
<event>
 8    1  0.1106168E+005  0.1043930E+01  0.7957747E-01            NaN
         13   -1    0    0    0    0  0.00000000000E+00  0.00000000000E+00  0.74505805969E-08  0.10566000000E+00  0.10566000000E+00 0. -1.
     999900   -1    0    0    0    0 -0.00000000000E+00 -0.00000000000E+00 -0.74505805969E-08  0.93827000000E+00  0.93827000000E+00 0.  1.
     999902    2    1    2    0    0  0.62971412902E-02  0.15366642042E-01  0.15998730689E-01  0.10208703586E+01  0.10206098873E+01 0.  0.
     999903    2    3    3    0    0 -0.18985961097E-01  0.11353747695E+00  0.65199943012E-01  0.13368519905E+00  0.19221719123E-01 0.  0.
         14    1    1    2    0    0 -0.62971412902E-02 -0.15366642042E-01 -0.15998730689E-01  0.23059641362E-01  0.00000000000E+00 0.  1.
     999901    1    3    3    0    0  0.25283102388E-01 -0.98170834910E-01 -0.49201212322E-01  0.88718515958E+00  0.88000000000E+00 0.  1.
        -11    1    4    4    0    0 -0.89096668659E-02  0.93363350395E-01  0.56605615628E-01  0.10954704105E+00  0.51100000000E-03 0.  1.
         11    1    4    4    0    0 -0.10076294232E-01  0.20174126556E-01  0.85943273836E-02  0.24138158006E-01  0.51100000000E-03 0. -1.
</event>
<event>
 8    1  0.1106168E+005  0.1043930E+01  0.7957747E-01            NaN
         13   -1    0    0    0    0  0.00000000000E+00  0.00000000000E+00  0.74505805969E-08  0.10566000000E+00  0.10566000000E+00 0.  1.
     999900   -1    0    0    0    0 -0.00000000000E+00 -0.00000000000E+00 -0.74505805969E-08  0.93827000000E+00  0.93827000000E+00 0.  1.
     999902    2    1    2    0    0  0.48544591316E-02 -0.16221119474E-01 -0.16802912939E-01  0.10200756844E+01  0.10197967315E+01 0.  0.
     999903    2    3    3    0    0 -0.84598917563E-01  0.89806379084E-01  0.28137051044E-01  0.12807605578E+00  0.19738790411E-01 0.  0.
         14    1    1    2    0    0 -0.48544591316E-02  0.16221119474E-01  0.16802912939E-01  0.23854315620E-01  0.00000000000E+00 0.  1.
     999901    1    3    3    0    0  0.89453376694E-01 -0.10602749856E+00 -0.44939963983E-01  0.89199962860E+00  0.88000000000E+00 0.  1.
        -11    1    4    4    0    0 -0.32303562444E-01  0.45177953811E-01  0.19097879465E-01  0.58732936059E-01  0.51100000000E-03 0.  1.
         11    1    4    4    0    0 -0.52295355119E-01  0.44628425273E-01  0.90391715789E-02  0.69343119725E-01  0.51100000000E-03 0. -1.
</event>
<event>
 8    1  0.1106168E+005  0.1043930E+01  0.7957747E-01            NaN
         13   -1    0    0    0    0  0.00000000000E+00  0.00000000000E+00  0.74505805969E-08  0.10566000000E+00  0.10566000000E+00 0. -1.
     999900   -1    0    0    0    0 -0.00000000000E+00 -0.00000000000E+00 -0.74505805969E-08  0.93827000000E+00  0.93827000000E+00 0. -1.
     999902    2    1    2    0    0  0.22842674162E-01  0.55231882519E-02 -0.92519426243E-03  0.10204108726E+01  0.10201397941E+01 0.  0.
     999903    2    3    3    0    0  0.72330171838E-01 -0.10581778457E+00  0.22282310501E-01  0.13171271630E+00  0.20559206788E-01 0.  0.
         14    1    1    2    0    0 -0.22842674162E-01 -0.55231882519E-02  0.92519426243E-03  0.23519127444E-01  0.00000000000E+00 0.  1.
     999901    1    3    3    0    0 -0.49487497676E-01  0.11134097282E+00 -0.23207504764E-01  0.88869815626E+00  0.88000000000E+00 0. -1.
        -11    1    4    4    0    0  0.27913806516E-01 -0.51833323819E-01  0.19502036260E-02  0.58906183610E-01  0.51100000000E-03 0.  1.
         11    1    4    4    0    0  0.44416365321E-01 -0.53984460754E-01  0.20332106875E-01  0.72806532689E-01  0.51100000000E-03 0. -1.
</event>
<event>
 8    1  0.1106168E+005  0.1043930E+01  0.7957747E-01            NaN
         13   -1    0    0    0    0  0.00000000000E+00  0.00000000000E+00  0.74505805969E-08  0.10566000000E+00  0.10566000000E+00 0. -1.
     999900   -1    0    0    0    0 -0.00000000000E+00 -0.00000000000E+00 -0.74505805969E-08  0.93827000000E+00  0.93827000000E+00 0.  1.
     999902    2    1    2    0    0  0.80683490208E-02  0.25745491558E-02 -0.23748631773E-01  0.10187164308E+01  0.10184043609E+01 0.  0.
     999903    2    3    3    0    0 -0.10673877705E+00 -0.84265905878E-02  0.64752781967E-01  0.12678919080E+00  0.20454881444E-01 0.  0.
         14    1    1    2    0    0 -0.80683490208E-02 -0.25745491558E-02  0.23748631773E-01  0.25213569172E-01  0.00000000000E+00 0. -1.
     999901    1    3    3    0    0  0.11480712607E+00  0.11001139744E-01 -0.88501413741E-01  0.89192724003E+00  0.88000000000E+00 0.  1.
        -11    1    4    4    0    0 -0.67987865024E-01 -0.12853743122E-01  0.48673538335E-01  0.84598717235E-01  0.51100000000E-03 0.  1.
         11    1    4    4    0    0 -0.38750912030E-01  0.44271525337E-02  0.16079243632E-01  0.42190473564E-01  0.51100000000E-03 0. -1.
</event>
<event>
 8    1  0.1177554E+005  0.1043930E+01  0.7957747E-01            NaN
         13   -1    0    0    0    0  0.00000000000E+00  0.00000000000E+00  0.74505805969E-08  0.10566000000E+00  0.10566000000E+00 0. -1.
     999900   -1    0    0    0    0 -0.00000000000E+00 -0.00000000000E+00 -0.74505805969E-08  0.93827000000E+00  0.93827000000E+00 0. -1.
     999902    2    1    2    0    0 -0.33789190623E-02 -0.19207047561E-01 -0.12215730467E-01  0.10209180066E+01  0.10206586228E+01 0.  0.
     999903    2    3    3    0    0  0.60601771036E-01 -0.10433430839E+00  0.50480954958E-01  0.13228363093E+00  0.19809332054E-01 0.  0.
         14    1    1    2    0    0  0.33789190623E-02  0.19207047561E-01  0.12215730467E-01  0.23011993414E-01  0.00000000000E+00 0. -1.
     999901    1    3    3    0    0 -0.63980690098E-01  0.85127260833E-01 -0.62696685425E-01  0.88863437566E+00  0.88000000000E+00 0.  1.
        -11    1    4    4    0    0  0.33027213152E-01 -0.73920309559E-01  0.29451853320E-01  0.86154986849E-01  0.51100000000E-03 0. -1.
         11    1    4    4    0    0  0.27574557883E-01 -0.30413998836E-01  0.21029101638E-01  0.46128644077E-01  0.51100000000E-03 0.  1.
</event>
<event>
 8    1  0.1106168E+005  0.1043930E+01  0.7957747E-01            NaN
         13   -1    0    0    0    0  0.00000000000E+00  0.00000000000E+00  0.74505805969E-08  0.10566000000E+00  0.10566000000E+00 0. -1.
     999900   -1    0    0    0    0 -0.00000000000E+00 -0.00000000000E+00 -0.74505805969E-08  0.93827000000E+00  0.93827000000E+00 0. -1.
     999902    2    1    2    0    0 -0.59470756860E-02 -0.15672934987E-01 -0.15892130349E-01  0.10208309003E+01  0.10205695266E+01 0.  0.
     999903    2    3    3    0    0  0.12274164930E+00 -0.92213291394E-02  0.34996486019E-01  0.12999305734E+00  0.22866909279E-01 0.  0.
         14    1    1    2    0    0  0.59470756860E-02  0.15672934987E-01  0.15892130349E-01  0.23099099709E-01  0.00000000000E+00 0. -1.
     999901    1    3    3    0    0 -0.12868872498E+00 -0.64516058476E-02 -0.50888616368E-01  0.89083784295E+00  0.88000000000E+00 0. -1.
        -11    1    4    4    0    0  0.88871174486E-01 -0.44370448984E-03  0.33468055634E-01  0.94966596217E-01  0.51100000000E-03 0. -1.
         11    1    4    4    0    0  0.33870474811E-01 -0.87776246496E-02  0.15284303851E-02  0.35026461124E-01  0.51100000000E-03 0.  1.
</event>
<event>
 8    1  0.1106168E+005  0.1043930E+01  0.7957747E-01            NaN
         13   -1    0    0    0    0  0.00000000000E+00  0.00000000000E+00  0.74505805969E-08  0.10566000000E+00  0.10566000000E+00 0. -1.
     999900   -1    0    0    0    0 -0.00000000000E+00 -0.00000000000E+00 -0.74505805969E-08  0.93827000000E+00  0.93827000000E+00 0.  1.
     999902    2    1    2    0    0 -0.22796887231E-01  0.74648750059E-02 -0.18257315645E-02  0.10198726576E+01  0.10195888789E+01 0.  0.
     999903    2    3    3    0    0 -0.77422273950E-01  0.19762057516E-01 -0.10311668703E+00  0.13229448573E+00  0.22000736097E-01 0.  0.
         14    1    1    2    0    0  0.22796887231E-01 -0.74648750059E-02  0.18257315645E-02  0.24057342372E-01  0.00000000000E+00 0. -1.
     999901    1    3    3    0    0  0.54625386719E-01 -0.12297182510E-01  0.10129095547E+00  0.88757817190E+00  0.88000000000E+00 0. -1.
        -11    1    4    4    0    0 -0.33691809370E-01  0.14933595751E-01 -0.61692540459E-01  0.71863627587E-01  0.51100000000E-03 0.  1.
         11    1    4    4    0    0 -0.43730464580E-01  0.48284617652E-02 -0.41424146574E-01  0.60430858142E-01  0.51100000000E-03 0. -1.
</event>
<event>
 8    1  0.1106168E+005  0.1043930E+01  0.7957747E-01            NaN
         13   -1    0    0    0    0  0.00000000000E+00  0.00000000000E+00  0.74505805969E-08  0.10566000000E+00  0.10566000000E+00 0. -1.
     999900   -1    0    0    0    0 -0.00000000000E+00 -0.00000000000E+00 -0.74505805969E-08  0.93827000000E+00  0.93827000000E+00 0. -1.
     999902    2    1    2    0    0 -0.23113066254E-01  0.10202688417E-01 -0.65448563939E-02  0.10178312677E+01  0.10174966072E+01 0.  0.
     999903    2    3    3    0    0  0.15119742461E-01 -0.60867088672E-01  0.10844141744E+00  0.12668902089E+00  0.18898621671E-01 0.  0.
         14    1    1    2    0    0  0.23113066254E-01 -0.10202688417E-01  0.65448563939E-02  0.26098732303E-01  0.00000000000E+00 0. -1.
     999901    1    3    3    0    0 -0.38232808715E-01  0.71069777089E-01 -0.11498627384E+00  0.89114224681E+00  0.88000000000E+00 0. -1.
        -11    1    4    4    0    0  0.50907285577E-02 -0.38648936022E-01  0.81549587860E-01  0.90389447249E-01  0.51100000000E-03 0.  1.
         11    1    4    4    0    0  0.10029013904E-01 -0.22218152650E-01  0.26891829583E-01  0.36299573639E-01  0.51100000000E-03 0. -1.
</event>
<event>
 8    1  0.1106168E+005  0.1043930E+01  0.7957747E-01            NaN
         13   -1    0    0    0    0  0.00000000000E+00  0.00000000000E+00  0.74505805969E-08  0.10566000000E+00  0.10566000000E+00 0. -1.
     999900   -1    0    0    0    0 -0.00000000000E+00 -0.00000000000E+00 -0.74505805969E-08  0.93827000000E+00  0.93827000000E+00 0. -1.
     999902    2    1    2    0    0 -0.13456176315E-01  0.17610228768E-01 -0.77188113117E-02  0.10204615342E+01  0.10201916359E+01 0.  0.
     999903    2    3    3    0    0 -0.78342622827E-01 -0.27739356095E-02  0.10355060348E+00  0.13085114322E+00  0.15938410562E-01 0.  0.
         14    1    1    2    0    0  0.13456176315E-01 -0.17610228768E-01  0.77188113117E-02  0.23468465786E-01  0.00000000000E+00 0. -1.
     999901    1    3    3    0    0  0.64886446512E-01  0.20384164378E-01 -0.11126941479E+00  0.88961039099E+00  0.88000000000E+00 0. -1.
        -11    1    4    4    0    0 -0.27767771723E-01 -0.85414417033E-02  0.35802330709E-01  0.46109363236E-01  0.51100000000E-03 0. -1.
         11    1    4    4    0    0 -0.50574851104E-01  0.57675060938E-02  0.67748272769E-01  0.84741779984E-01  0.51100000000E-03 0.  1.
</event>
<event>
 8    1  0.1106168E+005  0.1043930E+01  0.7957747E-01            NaN
         13   -1    0    0    0    0  0.00000000000E+00  0.00000000000E+00  0.74505805969E-08  0.10566000000E+00  0.10566000000E+00 0. -1.
     999900   -1    0    0    0    0 -0.00000000000E+00 -0.00000000000E+00 -0.74505805969E-08  0.93827000000E+00  0.93827000000E+00 0. -1.
     999902    2    1    2    0    0  0.13391605309E-01  0.78744137129E-02  0.19124536662E-01  0.10192908160E+01  0.10189929726E+01 0.  0.
     999903    2    3    3    0    0  0.13045073010E-01 -0.12572744181E+00  0.17346929544E-01  0.12920501355E+00  0.20382737987E-01 0.  0.
         14    1    1    2    0    0 -0.13391605309E-01 -0.78744137129E-02 -0.19124536662E-01  0.24639183968E-01  0.00000000000E+00 0.  1.
     999901    1    3    3    0    0  0.34653229831E-03  0.13360185553E+00  0.17776071182E-02  0.89008580248E+00  0.88000000000E+00 0. -1.
        -11    1    4    4    0    0  0.11966831339E-01 -0.70035745819E-01  0.18742660840E-01  0.73483053836E-01  0.51100000000E-03 0.  1.
         11    1    4    4    0    0  0.10782416709E-02 -0.55691695996E-01 -0.13957312958E-02  0.55721959718E-01  0.51100000000E-03 0. -1.
</event>
<event>
 8    1  0.1106168E+005  0.1043930E+01  0.7957747E-01            NaN
         13   -1    0    0    0    0  0.00000000000E+00  0.00000000000E+00  0.74505805969E-08  0.10566000000E+00  0.10566000000E+00 0.  1.
     999900   -1    0    0    0    0 -0.00000000000E+00 -0.00000000000E+00 -0.74505805969E-08  0.93827000000E+00  0.93827000000E+00 0. -1.
     999902    2    1    2    0    0  0.19254033653E-01  0.85962253420E-02  0.14711765837E-01  0.10182191277E+01  0.10178944655E+01 0.  0.
     999903    2    3    3    0    0 -0.15546270998E-01 -0.13271627681E-01  0.12699728329E+00  0.13013281338E+00  0.19708285383E-01 0.  0.
         14    1    1    2    0    0 -0.19254033653E-01 -0.85962253420E-02 -0.14711765837E-01  0.25710872332E-01  0.00000000000E+00 0.  1.
     999901    1    3    3    0    0  0.34800304651E-01  0.21867853023E-01 -0.11228551745E+00  0.88808631429E+00  0.88000000000E+00 0. -1.
        -11    1    4    4    0    0 -0.53831956883E-02  0.44028390255E-02  0.19290210202E-01  0.20511877484E-01  0.51100000000E-03 0. -1.
         11    1    4    4    0    0 -0.10163075310E-01 -0.17674466707E-01  0.10770707308E+00  0.10962093589E+00  0.51100000000E-03 0.  1.
</event>
<event>
 8    1  0.1106168E+005  0.1043930E+01  0.7957747E-01            NaN
         13   -1    0    0    0    0  0.00000000000E+00  0.00000000000E+00  0.74505805969E-08  0.10566000000E+00  0.10566000000E+00 0.  1.
     999900   -1    0    0    0    0 -0.00000000000E+00 -0.00000000000E+00 -0.74505805969E-08  0.93827000000E+00  0.93827000000E+00 0.  1.
     999902    2    1    2    0    0  0.14781778132E-01 -0.98365923868E-02  0.15569916472E-01  0.10203147123E+01  0.10200413866E+01 0.  0.
     999903    2    3    3    0    0 -0.71045231060E-01 -0.38340601483E-01  0.10210410652E+00  0.13145762587E+00  0.18396528252E-01 0.  0.
         14    1    1    2    0    0 -0.14781778132E-01  0.98365923868E-02 -0.15569916472E-01  0.23615287707E-01  0.00000000000E+00 0. -1.
     999901    1    3    3    0    0  0.85827009192E-01  0.28504009096E-01 -0.86534190049E-01  0.88885708643E+00  0.88000000000E+00 0.  1.
        -11    1    4    4    0    0 -0.29366480769E-01 -0.20210569293E-01  0.32000768194E-01  0.47907907384E-01  0.51100000000E-03 0.  1.
         11    1    4    4    0    0 -0.41678750291E-01 -0.18130032190E-01  0.70103338327E-01  0.83549718483E-01  0.51100000000E-03 0. -1.
</event>
<event>
 8    1  0.1106168E+005  0.1043930E+01  0.7957747E-01            NaN
         13   -1    0    0    0    0  0.00000000000E+00  0.00000000000E+00  0.74505805969E-08  0.10566000000E+00  0.10566000000E+00 0.  1.
     999900   -1    0    0    0    0 -0.00000000000E+00 -0.00000000000E+00 -0.74505805969E-08  0.93827000000E+00  0.93827000000E+00 0. -1.
     999902    2    1    2    0    0  0.13464077692E-01 -0.48895968184E-02  0.18785538701E-01  0.10203061559E+01  0.10200326298E+01 0.  0.
     999903    2    3    3    0    0  0.30539888875E-01 -0.20324902108E-01 -0.12176979950E+00  0.12885473543E+00  0.20733362356E-01 0.  0.
         14    1    1    2    0    0 -0.13464077692E-01  0.48895968184E-02 -0.18785538701E-01  0.23623844086E-01  0.00000000000E+00 0. -1.
     999901    1    3    3    0    0 -0.17075811184E-01  0.15435305290E-01  0.14055533820E+00  0.89145142048E+00  0.88000000000E+00 0.  1.
        -11    1    4    4    0    0  0.47285331158E-02  0.41103703167E-02 -0.24488300309E-01  0.25282249556E-01  0.51100000000E-03 0.  1.
         11    1    4    4    0    0  0.25811355759E-01 -0.24435272425E-01 -0.97281499194E-01  0.10357248588E+00  0.51100000000E-03 0. -1.
</event>
<event>
 8    1  0.1106168E+005  0.1043930E+01  0.7957747E-01            NaN
         13   -1    0    0    0    0  0.00000000000E+00  0.00000000000E+00  0.74505805969E-08  0.10566000000E+00  0.10566000000E+00 0.  1.
     999900   -1    0    0    0    0 -0.00000000000E+00 -0.00000000000E+00 -0.74505805969E-08  0.93827000000E+00  0.93827000000E+00 0. -1.
     999902    2    1    2    0    0 -0.11964547202E-01  0.11920740788E-01  0.19451750154E-01  0.10181690793E+01  0.10178431358E+01 0.  0.
     999903    2    3    3    0    0  0.97714035270E-01  0.25458176933E-01  0.78908647069E-01  0.12926651085E+00  0.16944166630E-01 0.  0.
         14    1    1    2    0    0  0.11964547202E-01 -0.11920740788E-01 -0.19451750154E-01  0.25760920689E-01  0.00000000000E+00 0.  1.
     999901    1    3    3    0    0 -0.10967858247E+00 -0.13537436145E-01 -0.59456896915E-01  0.88890256846E+00  0.88000000000E+00 0. -1.
        -11    1    4    4    0    0  0.63726755086E-01  0.16937448830E-01  0.41028728148E-01  0.77663338462E-01  0.51100000000E-03 0. -1.
         11    1    4    4    0    0  0.33987280184E-01  0.85207281034E-02  0.37879918921E-01  0.51603172385E-01  0.51100000000E-03 0.  1.
</event>
<event>
 8    1  0.1106168E+005  0.1043930E+01  0.7957747E-01            NaN
         13   -1    0    0    0    0  0.00000000000E+00  0.00000000000E+00  0.74505805969E-08  0.10566000000E+00  0.10566000000E+00 0.  1.
     999900   -1    0    0    0    0 -0.00000000000E+00 -0.00000000000E+00 -0.74505805969E-08  0.93827000000E+00  0.93827000000E+00 0.  1.
     999902    2    1    2    0    0  0.22167221820E-01 -0.57290421811E-02 -0.13586247120E-02  0.10209941436E+01  0.10207364928E+01 0.  0.
     999903    2    3    3    0    0  0.11543763714E+00  0.24985228706E-01  0.59894024690E-01  0.13341618992E+00  0.16201105396E-01 0.  0.
         14    1    1    2    0    0 -0.22167221820E-01  0.57290421811E-02  0.13586247120E-02  0.22935856397E-01  0.00000000000E+00 0.  1.
     999901    1    3    3    0    0 -0.93270415322E-01 -0.30714270887E-01 -0.61252649402E-01  0.88757795369E+00  0.88000000000E+00 0. -1.
        -11    1    4    4    0    0  0.10944672806E+00  0.23567209150E-01  0.52140611404E-01  0.12350264818E+00  0.51100000000E-03 0. -1.
         11    1    4    4    0    0  0.59909090824E-02  0.14180195554E-02  0.77534132863E-02  0.99135417325E-02  0.51100000000E-03 0.  1.
</event>
<event>
 8    1  0.1188441E+005  0.1043930E+01  0.7957747E-01            NaN
         13   -1    0    0    0    0  0.00000000000E+00  0.00000000000E+00  0.74505805969E-08  0.10566000000E+00  0.10566000000E+00 0.  1.
     999900   -1    0    0    0    0 -0.00000000000E+00 -0.00000000000E+00 -0.74505805969E-08  0.93827000000E+00  0.93827000000E+00 0.  1.
     999902    2    1    2    0    0  0.26186237106E-02 -0.17604125404E-01  0.16574888506E-01  0.10196094459E+01  0.10193193478E+01 0.  0.
     999903    2    3    3    0    0  0.15692434033E-01  0.25553427687E-01 -0.12227685617E+00  0.12758180852E+00  0.20646020400E-01 0.  0.
         14    1    1    2    0    0 -0.26186237106E-02  0.17604125404E-01 -0.16574888506E-01  0.24320554072E-01  0.00000000000E+00 0. -1.
     999901    1    3    3    0    0 -0.13073810322E-01 -0.43157553092E-01  0.13885174467E+00  0.89202763741E+00  0.88000000000E+00 0. -1.
        -11    1    4    4    0    0  0.19766238853E-01  0.17228009221E-01 -0.76416496621E-01  0.80791401628E-01  0.51100000000E-03 0. -1.
         11    1    4    4    0    0 -0.40738048201E-02  0.83254184662E-02 -0.45860359545E-01  0.46790406890E-01  0.51100000000E-03 0.  1.
</event>
<event>
 8    1  0.1106168E+005  0.1043930E+01  0.7957747E-01            NaN
         13   -1    0    0    0    0  0.00000000000E+00  0.00000000000E+00  0.74505805969E-08  0.10566000000E+00  0.10566000000E+00 0. -1.
     999900   -1    0    0    0    0 -0.00000000000E+00 -0.00000000000E+00 -0.74505805969E-08  0.93827000000E+00  0.93827000000E+00 0. -1.
     999902    2    1    2    0    0  0.18014572622E-03 -0.43967613700E-02 -0.23200572084E-01  0.10203157986E+01  0.10200424983E+01 0.  0.
     999903    2    3    3    0    0 -0.24216177945E-02  0.43009155007E-01  0.11852455926E+00  0.12771280569E+00  0.20170224175E-01 0.  0.
         14    1    1    2    0    0 -0.18014572622E-03  0.43967613700E-02  0.23200572084E-01  0.23614201406E-01  0.00000000000E+00 0. -1.
     999901    1    3    3    0    0  0.26017635207E-02 -0.47405916377E-01 -0.14172513134E+00  0.89260299290E+00  0.88000000000E+00 0. -1.
        -11    1    4    4    0    0  0.34267815777E-02  0.21354076260E-02  0.26990406581E-01  0.27295530149E-01  0.51100000000E-03 0.  1.
         11    1    4    4    0    0 -0.58483993721E-02  0.40873747381E-01  0.91534152678E-01  0.10041727554E+00  0.51100000000E-03 0. -1.
</event>
<event>
 8    1  0.1106168E+005  0.1043930E+01  0.7957747E-01            NaN
         13   -1    0    0    0    0  0.00000000000E+00  0.00000000000E+00  0.74505805969E-08  0.10566000000E+00  0.10566000000E+00 0.  1.
     999900   -1    0    0    0    0 -0.00000000000E+00 -0.00000000000E+00 -0.74505805969E-08  0.93827000000E+00  0.93827000000E+00 0.  1.
     999902    2    1    2    0    0  0.53075450648E-03 -0.22970344950E-01 -0.76609450212E-02  0.10197099974E+01  0.10194223218E+01 0.  0.
     999903    2    3    3    0    0 -0.44322993550E-01  0.11230507567E+00 -0.37216409447E-01  0.12775437988E+00  0.18951587481E-01 0.  0.
         14    1    1    2    0    0 -0.53075450648E-03  0.22970344950E-01  0.76609450212E-02  0.24220002603E-01  0.00000000000E+00 0.  1.
     999901    1    3    3    0    0  0.44853748056E-01 -0.13527542062E+00  0.29555464426E-01  0.89195561751E+00  0.88000000000E+00 0.  1.
        -11    1    4    4    0    0 -0.25253516026E-01  0.64325189520E-01 -0.31024862259E-01  0.75751391259E-01  0.51100000000E-03 0. -1.
         11    1    4    4    0    0 -0.19069477524E-01  0.47979886151E-01 -0.61915471879E-02  0.52002988623E-01  0.51100000000E-03 0.  1.
</event>
<event>
 8    1  0.1106168E+005  0.1043930E+01  0.7957747E-01            NaN
         13   -1    0    0    0    0  0.00000000000E+00  0.00000000000E+00  0.74505805969E-08  0.10566000000E+00  0.10566000000E+00 0. -1.
     999900   -1    0    0    0    0 -0.00000000000E+00 -0.00000000000E+00 -0.74505805969E-08  0.93827000000E+00  0.93827000000E+00 0.  1.
     999902    2    1    2    0    0  0.22242015162E-01 -0.23545435867E-02  0.84799584855E-02  0.10200101169E+01  0.10197296101E+01 0.  0.
     999903    2    3    3    0    0  0.76016745448E-01 -0.10660273432E+00  0.27280179235E-02  0.13220806025E+00  0.18133961488E-01 0.  0.
         14    1    1    2    0    0 -0.22242015162E-01  0.23545435867E-02 -0.84799584855E-02  0.23919883149E-01  0.00000000000E+00 0.  1.
     999901    1    3    3    0    0 -0.53774730287E-01  0.10424819073E+00  0.57519405620E-02  0.88780205660E+00  0.88000000000E+00 0. -1.
        -11    1    4    4    0    0  0.12473915140E-01 -0.14824142606E-01  0.67032502235E-02  0.20507277915E-01  0.51100000000E-03 0. -1.
         11    1    4    4    0    0  0.63542830308E-01 -0.91778591716E-01 -0.39752322999E-02  0.11170078233E+00  0.51100000000E-03 0.  1.
</event>
<event>
 8    1  0.1106168E+005  0.1043930E+01  0.7957747E-01            NaN
         13   -1    0    0    0    0  0.00000000000E+00  0.00000000000E+00  0.74505805969E-08  0.10566000000E+00  0.10566000000E+00 0.  1.
     999900   -1    0    0    0    0 -0.00000000000E+00 -0.00000000000E+00 -0.74505805969E-08  0.93827000000E+00  0.93827000000E+00 0. -1.
     999902    2    1    2    0    0  0.21876067943E-01 -0.51326205014E-02  0.10364400445E-02  0.10214359930E+01  0.10211882821E+01 0.  0.
     999903    2    3    3    0    0 -0.85677629706E-01 -0.62803268248E-01  0.72466595933E-01  0.13014705634E+00  0.20048491527E-01 0.  0.
         14    1    1    2    0    0 -0.21876067943E-01  0.51326205014E-02 -0.10364400445E-02  0.22494006976E-01  0.00000000000E+00 0. -1.
     999901    1    3    3    0    0  0.10755369765E+00  0.57670647747E-01 -0.71430155888E-01  0.89128893669E+00  0.88000000000E+00 0.  1.
        -11    1    4    4    0    0 -0.49184854420E-01 -0.24019844448E-01  0.39681547077E-01  0.67609090595E-01  0.51100000000E-03 0. -1.
         11    1    4    4    0    0 -0.36492775286E-01 -0.38783423800E-01  0.32785048855E-01  0.62537965742E-01  0.51100000000E-03 0.  1.
</event>
<event>
 8    1  0.1106168E+005  0.1043930E+01  0.7957747E-01            NaN
         13   -1    0    0    0    0  0.00000000000E+00  0.00000000000E+00  0.74505805969E-08  0.10566000000E+00  0.10566000000E+00 0. -1.
     999900   -1    0    0    0    0 -0.00000000000E+00 -0.00000000000E+00 -0.74505805969E-08  0.93827000000E+00  0.93827000000E+00 0. -1.
     999902    2    1    2    0    0 -0.22370492256E-01 -0.60743826376E-02 -0.17067423612E-03  0.10207488400E+01  0.10204855845E+01 0.  0.
     999903    2    3    3    0    0 -0.88218806453E-01 -0.96692004316E-01 -0.18600900524E-01  0.13345676461E+00  0.18243163387E-01 0.  0.
         14    1    1    2    0    0  0.22370492256E-01  0.60743826376E-02  0.17067423612E-03  0.23181159978E-01  0.00000000000E+00 0. -1.
     999901    1    3    3    0    0  0.65848314197E-01  0.90617621678E-01  0.18430226288E-01  0.88729207541E+00  0.88000000000E+00 0. -1.
        -11    1    4    4    0    0 -0.38840569010E-01 -0.33882829168E-01 -0.14074372983E-01  0.53432059752E-01  0.51100000000E-03 0.  1.
         11    1    4    4    0    0 -0.49378237443E-01 -0.62809175148E-01 -0.45265275406E-02  0.80024704862E-01  0.51100000000E-03 0. -1.
</event>
<event>
 8    1  0.1106168E+005  0.1043930E+01  0.7957747E-01            NaN
         13   -1    0    0    0    0  0.00000000000E+00  0.00000000000E+00  0.74505805969E-08  0.10566000000E+00  0.10566000000E+00 0.  1.
     999900   -1    0    0    0    0 -0.00000000000E+00 -0.00000000000E+00 -0.74505805969E-08  0.93827000000E+00  0.93827000000E+00 0. -1.
     999902    2    1    2    0    0  0.44343832259E-02  0.93250768783E-02 -0.21683050990E-01  0.10199138489E+01  0.10196310527E+01 0.  0.
     999903    2    3    3    0    0  0.12043971707E+00 -0.31927593911E-01 -0.36212544341E-01  0.13122373052E+00  0.19576066609E-01 0.  0.
         14    1    1    2    0    0 -0.44343832259E-02 -0.93250768783E-02  0.21683050990E-01  0.24016151099E-01  0.00000000000E+00 0.  1.
     999901    1    3    3    0    0 -0.11600533384E+00  0.41252670789E-01  0.14529493351E-01  0.88869011838E+00  0.88000000000E+00 0.  1.
        -11    1    4    4    0    0  0.69950014727E-01 -0.14901363792E-01 -0.30068544082E-01  0.77585009295E-01  0.51100000000E-03 0. -1.
         11    1    4    4    0    0  0.50489702342E-01 -0.17026230119E-01 -0.61440002593E-02  0.53638721227E-01  0.51100000000E-03 0.  1.
</event>
<event>
 8    1  0.1106168E+005  0.1043930E+01  0.7957747E-01            NaN
         13   -1    0    0    0    0  0.00000000000E+00  0.00000000000E+00  0.74505805969E-08  0.10566000000E+00  0.10566000000E+00 0. -1.
     999900   -1    0    0    0    0 -0.00000000000E+00 -0.00000000000E+00 -0.74505805969E-08  0.93827000000E+00  0.93827000000E+00 0.  1.
     999902    2    1    2    0    0 -0.62805577837E-02  0.17357603087E-01  0.17009093258E-01  0.10188293816E+01  0.10185201362E+01 0.  0.
     999903    2    3    3    0    0 -0.53233399748E-01  0.92687162393E-01 -0.71128932960E-01  0.12998326244E+00  0.20288383088E-01 0.  0.
         14    1    1    2    0    0  0.62805577837E-02 -0.17357603087E-01 -0.17009093258E-01  0.25100618407E-01  0.00000000000E+00 0.  1.
     999901    1    3    3    0    0  0.46952841964E-01 -0.75329559306E-01  0.88138026218E-01  0.88884611916E+00  0.88000000000E+00 0. -1.
        -11    1    4    4    0    0 -0.28080922775E-01  0.65339354776E-01 -0.52618469974E-01  0.88468830725E-01  0.51100000000E-03 0. -1.
         11    1    4    4    0    0 -0.25152476973E-01  0.27347807618E-01 -0.18510462985E-01  0.41514431711E-01  0.51100000000E-03 0.  1.
</event>
<event>
 8    1  0.1106168E+005  0.1043930E+01  0.7957747E-01            NaN
         13   -1    0    0    0    0  0.00000000000E+00  0.00000000000E+00  0.74505805969E-08  0.10566000000E+00  0.10566000000E+00 0.  1.
     999900   -1    0    0    0    0 -0.00000000000E+00 -0.00000000000E+00 -0.74505805969E-08  0.93827000000E+00  0.93827000000E+00 0.  1.
     999902    2    1    2    0    0  0.97389341119E-02 -0.20781548216E-01 -0.10058878190E-01  0.10188720549E+01  0.10185638731E+01 0.  0.
     999903    2    3    3    0    0  0.10198315828E+00 -0.35016338042E-01  0.70145194406E-01  0.13030899048E+00  0.20817689552E-01 0.  0.
         14    1    1    2    0    0 -0.97389341119E-02  0.20781548216E-01  0.10058878190E-01  0.25057945134E-01  0.00000000000E+00 0.  1.
     999901    1    3    3    0    0 -0.92244224169E-01  0.14234789826E-01 -0.80204072596E-01  0.88856306439E+00  0.88000000000E+00 0. -1.
        -11    1    4    4    0    0  0.58075707463E-01 -0.21606026447E-01  0.28050133003E-01  0.68019697578E-01  0.51100000000E-03 0. -1.
         11    1    4    4    0    0  0.43907450818E-01 -0.13410311595E-01  0.42095061403E-01  0.62289292900E-01  0.51100000000E-03 0.  1.
</event>
<event>
 7    1  0.1106168E+005  0.1043930E+01  0.7957747E-01            NaN
         13   -1    0    0    0    0  0.00000000000E+00  0.00000000000E+00  0.74505805969E-08  0.10566000000E+00  0.10566000000E+00 0. -1.
     999900   -1    0    0    0    0 -0.00000000000E+00 -0.00000000000E+00 -0.74505805969E-08  0.93827000000E+00  0.93827000000E+00 0. -1.
     999903    2    1    2    0    0 -0.56399953980E-01  0.63998383536E-01  0.79163762385E-01  0.11789918056E+00  0.18882997568E-01 0.  0.
         14    1    1    2    0    0  0.78345529962E-02 -0.35561840289E-01  0.14661826891E-01  0.39255494815E-01  0.00000000000E+00 0.  1.
     999901    1    1    2    0    0  0.48565400983E-01 -0.28436543247E-01 -0.93825589276E-01  0.88677532463E+00  0.88000000000E+00 0. -1.
        -11    1    3    3    0    0 -0.32379103412E-01  0.40445354446E-01  0.35636895161E-01  0.62884675810E-01  0.51100000000E-03 0.  1.
         11    1    3    3    0    0 -0.24020850568E-01  0.23553029090E-01  0.43526867224E-01  0.55014504748E-01  0.51100000000E-03 0. -1.
</event>
<event>
 8    1  0.1106168E+005  0.1043930E+01  0.7957747E-01            NaN
         13   -1    0    0    0    0  0.00000000000E+00  0.00000000000E+00  0.74505805969E-08  0.10566000000E+00  0.10566000000E+00 0. -1.
     999900   -1    0    0    0    0 -0.00000000000E+00 -0.00000000000E+00 -0.74505805969E-08  0.93827000000E+00  0.93827000000E+00 0.  1.
     999902    2    1    2    0    0 -0.10399123390E-01  0.16956182327E-01  0.12534868965E-01  0.10204187936E+01  0.10201478998E+01 0.  0.
     999903    2    3    3    0    0  0.10280893854E+00  0.73292634313E-01  0.29741004867E-01  0.13121357982E+00  0.19773418247E-01 0.  0.
         14    1    1    2    0    0  0.10399123390E-01 -0.16956182327E-01 -0.12534868965E-01  0.23511206399E-01  0.00000000000E+00 0. -1.
     999901    1    3    3    0    0 -0.11320806193E+00 -0.56336451986E-01 -0.17206135903E-01  0.88920521378E+00  0.88000000000E+00 0. -1.
        -11    1    4    4    0    0  0.33578266718E-01  0.23683013095E-01  0.29198120823E-03  0.41094178165E-01  0.51100000000E-03 0. -1.
         11    1    4    4    0    0  0.69230671823E-01  0.49609621219E-01  0.29449023659E-01  0.90119401651E-01  0.51100000000E-03 0.  1.
</event>
<event>
 8    1  0.1106168E+005  0.1043930E+01  0.7957747E-01            NaN
         13   -1    0    0    0    0  0.00000000000E+00  0.00000000000E+00  0.74505805969E-08  0.10566000000E+00  0.10566000000E+00 0.  1.
     999900   -1    0    0    0    0 -0.00000000000E+00 -0.00000000000E+00 -0.74505805969E-08  0.93827000000E+00  0.93827000000E+00 0.  1.
     999902    2    1    2    0    0 -0.17730365175E-01 -0.68871840937E-02  0.15244865843E-01  0.10195536777E+01  0.10192622315E+01 0.  0.
     999903    2    3    3    0    0 -0.12223349175E-01 -0.12322408586E+00 -0.35128664956E-01  0.13045183059E+00  0.21214886332E-01 0.  0.
         14    1    1    2    0    0  0.17730365175E-01  0.68871840937E-02 -0.15244865843E-01  0.24376322293E-01  0.00000000000E+00 0. -1.
     999901    1    3    3    0    0 -0.55070159997E-02  0.11633690177E+00  0.50373530799E-01  0.88910184711E+00  0.88000000000E+00 0.  1.
        -11    1    4    4    0    0 -0.16586177618E-01 -0.72294730795E-01 -0.25492052117E-01  0.78432998354E-01  0.51100000000E-03 0. -1.
         11    1    4    4    0    0  0.43628284429E-02 -0.50929355065E-01 -0.96366128383E-02  0.52018832237E-01  0.51100000000E-03 0.  1.
</event>
<event>
 8    1  0.1106168E+005  0.1043930E+01  0.7957747E-01            NaN
         13   -1    0    0    0    0  0.00000000000E+00  0.00000000000E+00  0.74505805969E-08  0.10566000000E+00  0.10566000000E+00 0.  1.
     999900   -1    0    0    0    0 -0.00000000000E+00 -0.00000000000E+00 -0.74505805969E-08  0.93827000000E+00  0.93827000000E+00 0.  1.
     999902    2    1    2    0    0 -0.23004219600E-01  0.32682087894E-02  0.21996353599E-02  0.10205908975E+01  0.10203240007E+01 0.  0.
     999903    2    3    3    0    0 -0.11404896284E+00  0.29601748325E-01  0.60033865301E-01  0.13361434839E+00  0.19112814675E-01 0.  0.
         14    1    1    2    0    0  0.23004219600E-01 -0.32682087894E-02 -0.21996353599E-02  0.23339102464E-01  0.00000000000E+00 0.  1.
     999901    1    3    3    0    0  0.91044743240E-01 -0.26333539536E-01 -0.57834229941E-01  0.88697654914E+00  0.88000000000E+00 0.  1.
        -11    1    4    4    0    0 -0.44129287074E-01  0.21116081349E-01  0.25442041633E-01  0.55143825336E-01  0.51100000000E-03 0.  1.
         11    1    4    4    0    0 -0.69919675766E-01  0.84856669760E-02  0.34591823668E-01  0.78470523058E-01  0.51100000000E-03 0. -1.
</event>
<event>
 8    1  0.1106168E+005  0.1043930E+01  0.7957747E-01            NaN
         13   -1    0    0    0    0  0.00000000000E+00  0.00000000000E+00  0.74505805969E-08  0.10566000000E+00  0.10566000000E+00 0.  1.
     999900   -1    0    0    0    0 -0.00000000000E+00 -0.00000000000E+00 -0.74505805969E-08  0.93827000000E+00  0.93827000000E+00 0.  1.
     999902    2    1    2    0    0  0.14330742923E-01  0.17915843760E-01  0.45883944997E-02  0.10205333974E+01  0.10202651685E+01 0.  0.
     999903    2    3    3    0    0  0.71855271465E-01  0.10274429770E+00 -0.40696967634E-01  0.13342816010E+00  0.20670268115E-01 0.  0.
         14    1    1    2    0    0 -0.14330742923E-01 -0.17915843760E-01 -0.45883944997E-02  0.23396602626E-01  0.00000000000E+00 0. -1.
     999901    1    3    3    0    0 -0.57524528542E-01 -0.84828453944E-01  0.45285362134E-01  0.88710523728E+00  0.88000000000E+00 0. -1.
        -11    1    4    4    0    0  0.23659374403E-01  0.27846320290E-01 -0.21217054064E-01  0.42256455779E-01  0.51100000000E-03 0.  1.
         11    1    4    4    0    0  0.48195897062E-01  0.74897977414E-01 -0.19479913570E-01  0.91171704317E-01  0.51100000000E-03 0. -1.
</event>
<event>
 8    1  0.1106168E+005  0.1043930E+01  0.7957747E-01            NaN
         13   -1    0    0    0    0  0.00000000000E+00  0.00000000000E+00  0.74505805969E-08  0.10566000000E+00  0.10566000000E+00 0.  1.
     999900   -1    0    0    0    0 -0.00000000000E+00 -0.00000000000E+00 -0.74505805969E-08  0.93827000000E+00  0.93827000000E+00 0.  1.
     999902    2    1    2    0    0  0.10355667752E-01 -0.15113518048E-01  0.14221106597E-01  0.10207373685E+01  0.10204738494E+01 0.  0.
     999903    2    3    3    0    0  0.36529340832E-01 -0.12485411768E+00  0.24981219062E-01  0.13346974238E+00  0.16345255611E-01 0.  0.
         14    1    1    2    0    0 -0.10355667752E-01  0.15113518048E-01 -0.14221106597E-01  0.23192631485E-01  0.00000000000E+00 0. -1.
     999901    1    3    3    0    0 -0.26173673080E-01  0.10974059963E+00 -0.10760112465E-01  0.88726762614E+00  0.88000000000E+00 0.  1.
        -11    1    4    4    0    0  0.30991469249E-01 -0.91913109039E-01  0.24560878324E-01  0.10005992527E+00  0.51100000000E-03 0. -1.
         11    1    4    4    0    0  0.55378715830E-02 -0.32941008642E-01  0.42034073832E-03  0.33409817111E-01  0.51100000000E-03 0.  1.
</event>
<event>
 8    1  0.1106168E+005  0.1043930E+01  0.7957747E-01            NaN
         13   -1    0    0    0    0  0.00000000000E+00  0.00000000000E+00  0.74505805969E-08  0.10566000000E+00  0.10566000000E+00 0.  1.
     999900   -1    0    0    0    0 -0.00000000000E+00 -0.00000000000E+00 -0.74505805969E-08  0.93827000000E+00  0.93827000000E+00 0.  1.
     999902    2    1    2    0    0 -0.58469057681E-02 -0.12399860638E-01 -0.16680673861E-01  0.10223386190E+01  0.10221105930E+01 0.  0.
     999903    2    3    3    0    0 -0.89089010500E-01  0.40573452219E-01  0.84646506403E-01  0.13104595256E+00  0.20614408055E-01 0.  0.
         14    1    1    2    0    0  0.58469057681E-02  0.12399860638E-01  0.16680673861E-01  0.21591380951E-01  0.00000000000E+00 0. -1.
     999901    1    3    3    0    0  0.83242104732E-01 -0.52973312857E-01 -0.10132718026E+00  0.89129266649E+00  0.88000000000E+00 0.  1.
        -11    1    4    4    0    0 -0.19112430757E-01  0.31496129558E-02  0.88329954667E-02  0.21295257715E-01  0.51100000000E-03 0.  1.
         11    1    4    4    0    0 -0.69976579743E-01  0.37423839263E-01  0.75813510937E-01  0.10975069485E+00  0.51100000000E-03 0. -1.
</event>
<event>
 8    1  0.1106168E+005  0.1043930E+01  0.7957747E-01            NaN
         13   -1    0    0    0    0  0.00000000000E+00  0.00000000000E+00  0.74505805969E-08  0.10566000000E+00  0.10566000000E+00 0.  1.
     999900   -1    0    0    0    0 -0.00000000000E+00 -0.00000000000E+00 -0.74505805969E-08  0.93827000000E+00  0.93827000000E+00 0. -1.
     999902    2    1    2    0    0 -0.17181441945E-01 -0.15572148904E-01  0.71397656249E-02  0.10196674770E+01  0.10193787783E+01 0.  0.
     999903    2    3    3    0    0  0.56132113268E-01 -0.11653870044E+00 -0.96718792833E-03  0.13082843387E+00  0.19571939532E-01 0.  0.
         14    1    1    2    0    0  0.17181441945E-01  0.15572148904E-01 -0.71397656249E-02  0.24262522992E-01  0.00000000000E+00 0. -1.
     999901    1    3    3    0    0 -0.73313555213E-01  0.10096655153E+00  0.81069535533E-02  0.88883904314E+00  0.88000000000E+00 0.  1.
        -11    1    4    4    0    0  0.36369877120E-01 -0.85173914484E-01 -0.84696611804E-02  0.93001935204E-01  0.51100000000E-03 0.  1.
         11    1    4    4    0    0  0.19762236148E-01 -0.31364785955E-01  0.75024732521E-02  0.37826498668E-01  0.51100000000E-03 0. -1.
</event>
<event>
 8    1  0.1106168E+005  0.1043930E+01  0.7957747E-01            NaN
         13   -1    0    0    0    0  0.00000000000E+00  0.00000000000E+00  0.74505805969E-08  0.10566000000E+00  0.10566000000E+00 0.  1.
     999900   -1    0    0    0    0 -0.00000000000E+00 -0.00000000000E+00 -0.74505805969E-08  0.93827000000E+00  0.93827000000E+00 0. -1.
     999902    2    1    2    0    0  0.66044842790E-02 -0.47188610273E-02  0.20948361001E-01  0.10214640104E+01  0.10212169230E+01 0.  0.
     999903    2    3    3    0    0 -0.35947918666E-01 -0.11713246271E-01 -0.12164619373E+00  0.12894351454E+00  0.19979501924E-01 0.  0.
         14    1    1    2    0    0 -0.66044842790E-02  0.47188610273E-02 -0.20948361001E-01  0.22465989643E-01  0.00000000000E+00 0. -1.
     999901    1    3    3    0    0  0.42552402945E-01  0.69943852438E-02  0.14259455473E+00  0.89252049582E+00  0.88000000000E+00 0.  1.
        -11    1    4    4    0    0 -0.58199409942E-02 -0.94151162267E-02 -0.49478800114E-01  0.50704328301E-01  0.51100000000E-03 0. -1.
         11    1    4    4    0    0 -0.30127977672E-01 -0.22981300443E-02 -0.72167393617E-01  0.78239186235E-01  0.51100000000E-03 0.  1.
</event>
<event>
 8    1  0.1106168E+005  0.1043930E+01  0.7957747E-01            NaN
         13   -1    0    0    0    0  0.00000000000E+00  0.00000000000E+00  0.74505805969E-08  0.10566000000E+00  0.10566000000E+00 0.  1.
     999900   -1    0    0    0    0 -0.00000000000E+00 -0.00000000000E+00 -0.74505805969E-08  0.93827000000E+00  0.93827000000E+00 0. -1.
     999902    2    1    2    0    0 -0.35691591628E-02  0.19576374746E-01  0.12565381093E-01  0.10203957240E+01  0.10201242921E+01 0.  0.
     999903    2    3    3    0    0 -0.22258148751E-01 -0.21287372081E-01 -0.12353238826E+00  0.12880067748E+00  0.19513743230E-01 0.  0.
         14    1    1    2    0    0  0.35691591628E-02 -0.19576374746E-01 -0.12565381093E-01  0.23534276010E-01  0.00000000000E+00 0. -1.
     999901    1    3    3    0    0  0.18688989588E-01  0.40863746826E-01  0.13609776935E+00  0.89159504651E+00  0.88000000000E+00 0.  1.
        -11    1    4    4    0    0 -0.10068005387E-01 -0.21964438095E-01 -0.85825392451E-01  0.89163111115E-01  0.51100000000E-03 0. -1.
         11    1    4    4    0    0 -0.12190143364E-01  0.67706601461E-03 -0.37706995808E-01  0.39637566367E-01  0.51100000000E-03 0.  1.
</event>
<event>
 8    1  0.1106168E+005  0.1043930E+01  0.7957747E-01            NaN
         13   -1    0    0    0    0  0.00000000000E+00  0.00000000000E+00  0.74505805969E-08  0.10566000000E+00  0.10566000000E+00 0. -1.
     999900   -1    0    0    0    0 -0.00000000000E+00 -0.00000000000E+00 -0.74505805969E-08  0.93827000000E+00  0.93827000000E+00 0.  1.
     999902    2    1    2    0    0 -0.15552133765E-01 -0.17143479492E-01 -0.24550959370E-02  0.10206535043E+01  0.10203880540E+01 0.  0.
     999903    2    3    3    0    0  0.35917741797E-01  0.11161376704E+00  0.48710542167E-01  0.12832761144E+00  0.18642472249E-01 0.  0.
         14    1    1    2    0    0  0.15552133765E-01  0.17143479492E-01  0.24550959370E-02  0.23276495651E-01  0.00000000000E+00 0.  1.
     999901    1    3    3    0    0 -0.51469875562E-01 -0.12875724653E+00 -0.51165638104E-01  0.89232589290E+00  0.88000000000E+00 0.  1.
        -11    1    4    4    0    0  0.19144488595E-01  0.35051855381E-01  0.11508166325E-01  0.41567331192E-01  0.51100000000E-03 0. -1.
         11    1    4    4    0    0  0.16773253202E-01  0.76561911661E-01  0.37202375842E-01  0.86760280253E-01  0.51100000000E-03 0.  1.
</event>
<event>
 8    1  0.1106168E+005  0.1043930E+01  0.7957747E-01            NaN
         13   -1    0    0    0    0  0.00000000000E+00  0.00000000000E+00  0.74505805969E-08  0.10566000000E+00  0.10566000000E+00 0. -1.
     999900   -1    0    0    0    0 -0.00000000000E+00 -0.00000000000E+00 -0.74505805969E-08  0.93827000000E+00  0.93827000000E+00 0.  1.
     999902    2    1    2    0    0 -0.18998878323E-01 -0.13746322921E-01 -0.44307402811E-02  0.10200647485E+01  0.10197855367E+01 0.  0.
     999903    2    3    3    0    0  0.10157093295E+00 -0.68464672640E-01  0.36258511373E-01  0.12922986344E+00  0.19534895384E-01 0.  0.
         14    1    1    2    0    0  0.18998878323E-01  0.13746322921E-01  0.44307402811E-02  0.23865251535E-01  0.00000000000E+00 0. -1.
     999901    1    3    3    0    0 -0.12056981127E+00  0.54718349719E-01 -0.40689251654E-01  0.89083488503E+00  0.88000000000E+00 0.  1.
        -11    1    4    4    0    0  0.36678305842E-01 -0.35389624971E-01  0.18821440067E-01  0.54334440296E-01  0.51100000000E-03 0. -1.
         11    1    4    4    0    0  0.64892627103E-01 -0.33075047669E-01  0.17437071306E-01  0.74895423140E-01  0.51100000000E-03 0.  1.
</event>
<event>
 8    1  0.1106168E+005  0.1043930E+01  0.7957747E-01            NaN
         13   -1    0    0    0    0  0.00000000000E+00  0.00000000000E+00  0.74505805969E-08  0.10566000000E+00  0.10566000000E+00 0.  1.
     999900   -1    0    0    0    0 -0.00000000000E+00 -0.00000000000E+00 -0.74505805969E-08  0.93827000000E+00  0.93827000000E+00 0. -1.
     999902    2    1    2    0    0  0.99476943204E-02  0.17823783466E-01 -0.11986410679E-01  0.10202589645E+01  0.10199843316E+01 0.  0.
     999903    2    3    3    0    0 -0.48398363093E-01 -0.52129957894E-01 -0.10744452336E+00  0.13042187853E+00  0.20139680724E-01 0.  0.
         14    1    1    2    0    0 -0.99476943204E-02 -0.17823783466E-01  0.11986410679E-01  0.23671035471E-01  0.00000000000E+00 0. -1.
     999901    1    3    3    0    0  0.58346057414E-01  0.69953741360E-01  0.95458112676E-01  0.88983708600E+00  0.88000000000E+00 0.  1.
        -11    1    4    4    0    0 -0.35756371729E-01 -0.44495996452E-01 -0.96165018279E-01  0.11183194392E+00  0.51100000000E-03 0.  1.
         11    1    4    4    0    0 -0.12641991364E-01 -0.76339614422E-02 -0.11279505076E-01  0.18589934607E-01  0.51100000000E-03 0. -1.
</event>
<event>
 8    1  0.1106168E+005  0.1043930E+01  0.7957747E-01            NaN
         13   -1    0    0    0    0  0.00000000000E+00  0.00000000000E+00  0.74505805969E-08  0.10566000000E+00  0.10566000000E+00 0.  1.
     999900   -1    0    0    0    0 -0.00000000000E+00 -0.00000000000E+00 -0.74505805969E-08  0.93827000000E+00  0.93827000000E+00 0. -1.
     999902    2    1    2    0    0 -0.66821533280E-02 -0.22278591959E-01  0.79316040808E-02  0.10193556806E+01  0.10190594224E+01 0.  0.
     999903    2    3    3    0    0 -0.11225596415E-01 -0.90748433976E-01 -0.91723834877E-01  0.13107646283E+00  0.20161471630E-01 0.  0.
         14    1    1    2    0    0  0.66821533280E-02  0.22278591959E-01 -0.79316040808E-02  0.24574319442E-01  0.00000000000E+00 0. -1.
     999901    1    3    3    0    0  0.45434430868E-02  0.68469842018E-01  0.99655438958E-01  0.88827921773E+00  0.88000000000E+00 0. -1.
        -11    1    4    4    0    0 -0.11200341997E-01 -0.58524298480E-01 -0.46705941842E-01  0.75711606097E-01  0.51100000000E-03 0.  1.
         11    1    4    4    0    0 -0.25254417453E-04 -0.32224135496E-01 -0.45017893035E-01  0.55364856729E-01  0.51100000000E-03 0. -1.
</event>
<event>
 8    1  0.1106168E+005  0.1043930E+01  0.7957747E-01            NaN
         13   -1    0    0    0    0  0.00000000000E+00  0.00000000000E+00  0.74505805969E-08  0.10566000000E+00  0.10566000000E+00 0.  1.
     999900   -1    0    0    0    0 -0.00000000000E+00 -0.00000000000E+00 -0.74505805969E-08  0.93827000000E+00  0.93827000000E+00 0.  1.
     999902    2    1    2    0    0 -0.19648013803E-01  0.12879715345E-01  0.81466552093E-02  0.10190643710E+01  0.10187609596E+01 0.  0.
     999903    2    3    3    0    0 -0.94941625957E-01 -0.83298982071E-01  0.25582380120E-01  0.13045676674E+00  0.20294754559E-01 0.  0.
         14    1    1    2    0    0  0.19648013803E-01 -0.12879715345E-01 -0.81466552093E-02  0.24865628986E-01  0.00000000000E+00 0.  1.
     999901    1    3    3    0    0  0.75293612153E-01  0.96178697416E-01 -0.17435724911E-01  0.88860760427E+00  0.88000000000E+00 0. -1.
        -11    1    4    4    0    0 -0.36790067186E-01 -0.20192304513E-01  0.11257535257E-01  0.43453784946E-01  0.51100000000E-03 0. -1.
         11    1    4    4    0    0 -0.58151558771E-01 -0.63106677558E-01  0.14324844863E-01  0.87002981795E-01  0.51100000000E-03 0.  1.
</event>
<event>
 8    1  0.1106168E+005  0.1043930E+01  0.7957747E-01            NaN
         13   -1    0    0    0    0  0.00000000000E+00  0.00000000000E+00  0.74505805969E-08  0.10566000000E+00  0.10566000000E+00 0. -1.
     999900   -1    0    0    0    0 -0.00000000000E+00 -0.00000000000E+00 -0.74505805969E-08  0.93827000000E+00  0.93827000000E+00 0.  1.
     999902    2    1    2    0    0 -0.11223756924E-01  0.14862812932E-01  0.13997132122E-01  0.10206320251E+01  0.10203660789E+01 0.  0.
     999903    2    3    3    0    0 -0.36437536994E-01 -0.41727103994E-01 -0.11489136883E+00  0.12908819605E+00  0.19871849857E-01 0.  0.
         14    1    1    2    0    0  0.11223756924E-01 -0.14862812932E-01 -0.13997132122E-01  0.23297974920E-01  0.00000000000E+00 0.  1.
     999901    1    3    3    0    0  0.25213780070E-01  0.56589916926E-01  0.12888850096E+00  0.89154382903E+00  0.88000000000E+00 0. -1.
        -11    1    4    4    0    0 -0.11701780177E-01 -0.28231906566E-01 -0.55898011537E-01  0.63708877108E-01  0.51100000000E-03 0.  1.
         11    1    4    4    0    0 -0.24735756817E-01 -0.13495197428E-01 -0.58993357298E-01  0.65379318941E-01  0.51100000000E-03 0. -1.
</event>
<event>
 7    1  0.1106168E+005  0.1043930E+01  0.7957747E-01            NaN
         13   -1    0    0    0    0  0.00000000000E+00  0.00000000000E+00  0.74505805969E-08  0.10566000000E+00  0.10566000000E+00 0.  1.
     999900   -1    0    0    0    0 -0.00000000000E+00 -0.00000000000E+00 -0.74505805969E-08  0.93827000000E+00  0.93827000000E+00 0.  1.
     999903    2    1    2    0    0  0.40108546830E-01  0.79500166416E-01 -0.45222271511E-01  0.10189793561E+00  0.20227789104E-01 0.  0.
         14    1    1    2    0    0 -0.55755361023E-01  0.30518183046E-02  0.13567252213E-01  0.57463416278E-01  0.00000000000E+00 0.  1.
     999901    1    1    2    0    0  0.15646814193E-01 -0.82551984721E-01  0.31655019298E-01  0.88456864811E+00  0.88000000000E+00 0.  1.
        -11    1    3    3    0    0  0.55590268805E-02  0.12912213414E-01  0.44084426520E-03  0.14074214002E-01  0.51100000000E-03 0. -1.
         11    1    3    3    0    0  0.34549519950E-01  0.66587953002E-01 -0.45663115776E-01  0.87823721608E-01  0.51100000000E-03 0.  1.
</event>
<event>
 8    1  0.1106168E+005  0.1043930E+01  0.7957747E-01            NaN
         13   -1    0    0    0    0  0.00000000000E+00  0.00000000000E+00  0.74505805969E-08  0.10566000000E+00  0.10566000000E+00 0. -1.
     999900   -1    0    0    0    0 -0.00000000000E+00 -0.00000000000E+00 -0.74505805969E-08  0.93827000000E+00  0.93827000000E+00 0.  1.
     999902    2    1    2    0    0  0.20956981786E-01  0.31842534193E-02  0.11319106686E-01  0.10198996706E+01  0.10196165364E+01 0.  0.
     999903    2    3    3    0    0 -0.71218609301E-02  0.12047291390E+00  0.48638441887E-01  0.13089023078E+00  0.14216560758E-01 0.  0.
         14    1    1    2    0    0 -0.20956981786E-01 -0.31842534193E-02 -0.11319106686E-01  0.24030329410E-01  0.00000000000E+00 0.  1.
     999901    1    3    3    0    0  0.28078842716E-01 -0.11728866048E+00 -0.37319335201E-01  0.88900943981E+00  0.88000000000E+00 0.  1.
        -11    1    4    4    0    0 -0.45995164798E-02  0.96536172853E-01  0.44746240499E-01  0.10650293602E+00  0.51100000000E-03 0.  1.
         11    1    4    4    0    0 -0.25223444503E-02  0.23936741043E-01  0.38922013876E-02  0.24387294765E-01  0.51100000000E-03 0. -1.
</event>
<event>
 8    1  0.1106168E+005  0.1043930E+01  0.7957747E-01            NaN
         13   -1    0    0    0    0  0.00000000000E+00  0.00000000000E+00  0.74505805969E-08  0.10566000000E+00  0.10566000000E+00 0. -1.
     999900   -1    0    0    0    0 -0.00000000000E+00 -0.00000000000E+00 -0.74505805969E-08  0.93827000000E+00  0.93827000000E+00 0.  1.
     999902    2    1    2    0    0 -0.51028901173E-02 -0.57647619067E-02 -0.21739360259E-01  0.10208676551E+01  0.10206071220E+01 0.  0.
     999903    2    3    3    0    0 -0.26095581203E-01 -0.11798589324E+00 -0.51744503819E-01  0.13298557733E+00  0.20149931559E-01 0.  0.
         14    1    1    2    0    0  0.51028901173E-02  0.57647619067E-02  0.21739360259E-01  0.23062344890E-01  0.00000000000E+00 0. -1.
     999901    1    3    3    0    0  0.20992691085E-01  0.11222113133E+00  0.30005143560E-01  0.88788207778E+00  0.88000000000E+00 0.  1.
        -11    1    4    4    0    0 -0.77312595813E-02 -0.39440791320E-01 -0.27693960561E-01  0.48811524943E-01  0.51100000000E-03 0. -1.
         11    1    4    4    0    0 -0.18364321621E-01 -0.78545101918E-01 -0.24050543257E-01  0.84174052390E-01  0.51100000000E-03 0.  1.
</event>
<event>
 8    1  0.1106168E+005  0.1043930E+01  0.7957747E-01            NaN
         13   -1    0    0    0    0  0.00000000000E+00  0.00000000000E+00  0.74505805969E-08  0.10566000000E+00  0.10566000000E+00 0. -1.
     999900   -1    0    0    0    0 -0.00000000000E+00 -0.00000000000E+00 -0.74505805969E-08  0.93827000000E+00  0.93827000000E+00 0.  1.
     999902    2    1    2    0    0 -0.38400526211E-02 -0.15311173150E-01  0.17275086331E-01  0.10205290035E+01  0.10202606728E+01 0.  0.
     999903    2    3    3    0    0  0.37542247482E-01  0.11819318229E+00 -0.26240329475E-01  0.12843623982E+00  0.20694543308E-01 0.  0.
         14    1    1    2    0    0  0.38400526211E-02  0.15311173150E-01 -0.17275086331E-01  0.23400996455E-01  0.00000000000E+00 0.  1.
     999901    1    3    3    0    0 -0.41382300103E-01 -0.13350435544E+00  0.43515415806E-01  0.89209276373E+00  0.88000000000E+00 0. -1.
        -11    1    4    4    0    0  0.33395713033E-01  0.72436562800E-01 -0.17582701824E-01  0.81680730920E-01  0.51100000000E-03 0. -1.
         11    1    4    4    0    0  0.41465344488E-02  0.45756619486E-01 -0.86576276508E-02  0.46755508897E-01  0.51100000000E-03 0.  1.
</event>
<event>
 8    1  0.1106168E+005  0.1043930E+01  0.7957747E-01            NaN
         13   -1    0    0    0    0  0.00000000000E+00  0.00000000000E+00  0.74505805969E-08  0.10566000000E+00  0.10566000000E+00 0. -1.
     999900   -1    0    0    0    0 -0.00000000000E+00 -0.00000000000E+00 -0.74505805969E-08  0.93827000000E+00  0.93827000000E+00 0.  1.
     999902    2    1    2    0    0 -0.29363106975E-02 -0.21770007415E-01 -0.71542126124E-03  0.10219512154E+01  0.10217148427E+01 0.  0.
     999903    2    3    3    0    0 -0.11915549285E+00 -0.54869924352E-01 -0.15742198898E-01  0.13356599108E+00  0.19578484986E-01 0.  0.
         14    1    1    2    0    0  0.29363106975E-02  0.21770007415E-01  0.71542126124E-03  0.21978784564E-01  0.00000000000E+00 0. -1.
     999901    1    3    3    0    0  0.11621918215E+00  0.33099916937E-01  0.15026777637E-01  0.88838522435E+00  0.88000000000E+00 0. -1.
        -11    1    4    4    0    0 -0.25959851626E-01 -0.21198412628E-01 -0.29110395261E-02  0.33645532638E-01  0.51100000000E-03 0. -1.
         11    1    4    4    0    0 -0.93195641220E-01 -0.33671511724E-01 -0.12831159372E-01  0.99920458446E-01  0.51100000000E-03 0.  1.
</event>
<event>
 8    1  0.1106168E+005  0.1043930E+01  0.7957747E-01            NaN
         13   -1    0    0    0    0  0.00000000000E+00  0.00000000000E+00  0.74505805969E-08  0.10566000000E+00  0.10566000000E+00 0. -1.
     999900   -1    0    0    0    0 -0.00000000000E+00 -0.00000000000E+00 -0.74505805969E-08  0.93827000000E+00  0.93827000000E+00 0. -1.
     999902    2    1    2    0    0 -0.71412120290E-02 -0.91295373648E-02  0.18202311440E-01  0.10223506232E+01  0.10221228533E+01 0.  0.
     999903    2    3    3    0    0 -0.78037033865E-01 -0.38319786243E-01  0.10137460918E+00  0.13511000234E+00  0.20486987875E-01 0.  0.
         14    1    1    2    0    0  0.71412120290E-02  0.91295373648E-02 -0.18202311440E-01  0.21579376809E-01  0.00000000000E+00 0.  1.
     999901    1    3    3    0    0  0.70895821836E-01  0.29190248878E-01 -0.83172297742E-01  0.88724062085E+00  0.88000000000E+00 0. -1.
        -11    1    4    4    0    0 -0.67849394229E-01 -0.28067665047E-01  0.92655356158E-01  0.11822271467E+00  0.51100000000E-03 0.  1.
         11    1    4    4    0    0 -0.10187639636E-01 -0.10252121196E-01  0.87192530242E-02  0.16887287665E-01  0.51100000000E-03 0. -1.
</event>
<event>
 8    1  0.1106168E+005  0.1043930E+01  0.7957747E-01            NaN
         13   -1    0    0    0    0  0.00000000000E+00  0.00000000000E+00  0.74505805969E-08  0.10566000000E+00  0.10566000000E+00 0.  1.
     999900   -1    0    0    0    0 -0.00000000000E+00 -0.00000000000E+00 -0.74505805969E-08  0.93827000000E+00  0.93827000000E+00 0. -1.
     999902    2    1    2    0    0  0.16487440970E-01 -0.59421395230E-03 -0.17030550229E-01  0.10202186432E+01  0.10199430629E+01 0.  0.
     999903    2    3    3    0    0  0.12451729209E+00 -0.40506460682E-01 -0.69574874016E-02  0.13265743249E+00  0.20106177622E-01 0.  0.
         14    1    1    2    0    0 -0.16487440970E-01  0.59421395230E-03  0.17030550229E-01  0.23711356795E-01  0.00000000000E+00 0.  1.
     999901    1    3    3    0    0 -0.10802985112E+00  0.39912246730E-01 -0.10073062828E-01  0.88756121071E+00  0.88000000000E+00 0. -1.
        -11    1    4    4    0    0  0.59874648040E-01 -0.89656897069E-02 -0.35150279426E-02  0.60646299246E-01  0.51100000000E-03 0.  1.
         11    1    4    4    0    0  0.64642644045E-01 -0.31540770975E-01 -0.34424594589E-02  0.72011133243E-01  0.51100000000E-03 0. -1.
</event>
<event>
 8    1  0.1106168E+005  0.1043930E+01  0.7957747E-01            NaN
         13   -1    0    0    0    0  0.00000000000E+00  0.00000000000E+00  0.74505805969E-08  0.10566000000E+00  0.10566000000E+00 0.  1.
     999900   -1    0    0    0    0 -0.00000000000E+00 -0.00000000000E+00 -0.74505805969E-08  0.93827000000E+00  0.93827000000E+00 0.  1.
     999902    2    1    2    0    0  0.54012552899E-03 -0.22041739602E-01 -0.21479673818E-02  0.10217772624E+01  0.10215370919E+01 0.  0.
     999903    2    3    3    0    0  0.25166584118E-01 -0.77704754730E-01 -0.10465072488E+00  0.13373917254E+00  0.16217465539E-01 0.  0.
         14    1    1    2    0    0 -0.54012552899E-03  0.22041739602E-01  0.21479673818E-02  0.22152737622E-01  0.00000000000E+00 0.  1.
     999901    1    3    3    0    0 -0.24626458589E-01  0.55663015128E-01  0.10250275750E+00  0.88803808984E+00  0.88000000000E+00 0. -1.
        -11    1    4    4    0    0  0.15138763411E-01 -0.26965681739E-01 -0.31462533231E-01  0.44118955876E-01  0.51100000000E-03 0.  1.
         11    1    4    4    0    0  0.10027820707E-01 -0.50739072991E-01 -0.73188191651E-01  0.89620216660E-01  0.51100000000E-03 0. -1.
</event>
<event>
 8    1  0.1106168E+005  0.1043930E+01  0.7957747E-01            NaN
         13   -1    0    0    0    0  0.00000000000E+00  0.00000000000E+00  0.74505805969E-08  0.10566000000E+00  0.10566000000E+00 0.  1.
     999900   -1    0    0    0    0 -0.00000000000E+00 -0.00000000000E+00 -0.74505805969E-08  0.93827000000E+00  0.93827000000E+00 0. -1.
     999902    2    1    2    0    0  0.12376290444E-01  0.14536847151E-02  0.19865520687E-01  0.10204795272E+01  0.10202100473E+01 0.  0.
     999903    2    3    3    0    0  0.83548648982E-01 -0.40968421848E-01  0.93633177949E-01  0.13351458591E+00  0.20004607021E-01 0.  0.
         14    1    1    2    0    0 -0.12376290444E-01 -0.14536847151E-02 -0.19865520687E-01  0.23450472843E-01  0.00000000000E+00 0.  1.
     999901    1    3    3    0    0 -0.71172358538E-01  0.42422106563E-01 -0.73767657263E-01  0.88696494125E+00  0.88000000000E+00 0. -1.
        -11    1    4    4    0    0  0.47989022158E-01 -0.34305964620E-01  0.57426122612E-01  0.82327796857E-01  0.51100000000E-03 0. -1.
         11    1    4    4    0    0  0.35559626824E-01 -0.66624572285E-02  0.36207055338E-01  0.51186789052E-01  0.51100000000E-03 0.  1.
</event>
<event>
 8    1  0.1106168E+005  0.1043930E+01  0.7957747E-01            NaN
         13   -1    0    0    0    0  0.00000000000E+00  0.00000000000E+00  0.74505805969E-08  0.10566000000E+00  0.10566000000E+00 0.  1.
     999900   -1    0    0    0    0 -0.00000000000E+00 -0.00000000000E+00 -0.74505805969E-08  0.93827000000E+00  0.93827000000E+00 0. -1.
     999902    2    1    2    0    0  0.66622373595E-03 -0.22929305001E-01 -0.39160582163E-02  0.10206591514E+01  0.10203938313E+01 0.  0.
     999903    2    3    3    0    0  0.76412851749E-01 -0.10735061097E+00 -0.95215194812E-02  0.13336217196E+00  0.18213511147E-01 0.  0.
         14    1    1    2    0    0 -0.66622373595E-03  0.22929305001E-01  0.39160582163E-02  0.23270848585E-01  0.00000000000E+00 0.  1.
     999901    1    3    3    0    0 -0.75746628014E-01  0.84421305968E-01  0.56054612649E-02  0.88729697946E+00  0.88000000000E+00 0. -1.
        -11    1    4    4    0    0  0.55202329882E-01 -0.66122783699E-01 -0.11782565170E-01  0.86940265191E-01  0.51100000000E-03 0. -1.
         11    1    4    4    0    0  0.21210521867E-01 -0.41227827270E-01  0.22610456890E-02  0.46421906767E-01  0.51100000000E-03 0.  1.
</event>
<event>
 8    1  0.1106168E+005  0.1043930E+01  0.7957747E-01            NaN
         13   -1    0    0    0    0  0.00000000000E+00  0.00000000000E+00  0.74505805969E-08  0.10566000000E+00  0.10566000000E+00 0. -1.
     999900   -1    0    0    0    0 -0.00000000000E+00 -0.00000000000E+00 -0.74505805969E-08  0.93827000000E+00  0.93827000000E+00 0.  1.
     999902    2    1    2    0    0  0.13772722225E-01 -0.20045479891E-02  0.19724941926E-01  0.10197891752E+01  0.10195033999E+01 0.  0.
     999903    2    3    3    0    0 -0.91112357829E-01 -0.79069395417E-01  0.43983050512E-01  0.12988562614E+00  0.19553416676E-01 0.  0.
         14    1    1    2    0    0 -0.13772722225E-01  0.20045479891E-02 -0.19724941926E-01  0.24140824843E-01  0.00000000000E+00 0.  1.
     999901    1    3    3    0    0  0.10488508005E+00  0.77064847428E-01 -0.24258108586E-01  0.88990354902E+00  0.88000000000E+00 0.  1.
        -11    1    4    4    0    0 -0.48808975415E-01 -0.53604422017E-01  0.30854970376E-01  0.78791119162E-01  0.51100000000E-03 0. -1.
         11    1    4    4    0    0 -0.42303382414E-01 -0.25464973399E-01  0.13128080137E-01  0.51094506975E-01  0.51100000000E-03 0.  1.
</event>
<event>
 8    1  0.1106168E+005  0.1043930E+01  0.7957747E-01            NaN
         13   -1    0    0    0    0  0.00000000000E+00  0.00000000000E+00  0.74505805969E-08  0.10566000000E+00  0.10566000000E+00 0. -1.
     999900   -1    0    0    0    0 -0.00000000000E+00 -0.00000000000E+00 -0.74505805969E-08  0.93827000000E+00  0.93827000000E+00 0. -1.
     999902    2    1    2    0    0  0.25770349413E-02  0.19213061671E-01  0.17937445805E-01  0.10175191157E+01  0.10171762954E+01 0.  0.
     999903    2    3    3    0    0 -0.87923750323E-01  0.84994318946E-01 -0.35697445853E-01  0.12881541504E+00  0.19091448059E-01 0.  0.
         14    1    1    2    0    0 -0.25770349413E-02 -0.19213061671E-01 -0.17937445805E-01  0.26410884307E-01  0.00000000000E+00 0.  1.
     999901    1    3    3    0    0  0.90500785264E-01 -0.65781257274E-01  0.53634891658E-01  0.88870370065E+00  0.88000000000E+00 0.  1.
        -11    1    4    4    0    0 -0.86044408350E-01  0.79765940671E-01 -0.30593544261E-01  0.12125374869E+00  0.51100000000E-03 0.  1.
         11    1    4    4    0    0 -0.18793419723E-02  0.52283782748E-02 -0.51039015920E-02  0.75616663570E-02  0.51100000000E-03 0. -1.
</event>
<event>
 8    1  0.1106168E+005  0.1043930E+01  0.7957747E-01            NaN
         13   -1    0    0    0    0  0.00000000000E+00  0.00000000000E+00  0.74505805969E-08  0.10566000000E+00  0.10566000000E+00 0. -1.
     999900   -1    0    0    0    0 -0.00000000000E+00 -0.00000000000E+00 -0.74505805969E-08  0.93827000000E+00  0.93827000000E+00 0.  1.
     999902    2    1    2    0    0  0.18578961435E-02  0.23192842324E-01 -0.56919250160E-02  0.10199767596E+01  0.10196954607E+01 0.  0.
     999903    2    3    3    0    0  0.63262937184E-01 -0.20637931818E-01 -0.11065901473E+00  0.13053322251E+00  0.19114946667E-01 0.  0.
         14    1    1    2    0    0 -0.18578961435E-02 -0.23192842324E-01  0.56919250160E-02  0.23953240356E-01  0.00000000000E+00 0. -1.
     999901    1    3    3    0    0 -0.61405041041E-01  0.43830774142E-01  0.10496708972E+00  0.88944353713E+00  0.88000000000E+00 0. -1.
        -11    1    4    4    0    0  0.55793965808E-01 -0.11380542246E-01 -0.96338752649E-01  0.11191023075E+00  0.51100000000E-03 0. -1.
         11    1    4    4    0    0  0.74689713761E-02 -0.92573895715E-02 -0.14320262084E-01  0.18622991764E-01  0.51100000000E-03 0.  1.
</event>
<event>
 8    1  0.1106168E+005  0.1043930E+01  0.7957747E-01            NaN
         13   -1    0    0    0    0  0.00000000000E+00  0.00000000000E+00  0.74505805969E-08  0.10566000000E+00  0.10566000000E+00 0.  1.
     999900   -1    0    0    0    0 -0.00000000000E+00 -0.00000000000E+00 -0.74505805969E-08  0.93827000000E+00  0.93827000000E+00 0.  1.
     999902    2    1    2    0    0 -0.16399293821E-01 -0.17730042328E-01 -0.30473117252E-02  0.10195870884E+01  0.10192964502E+01 0.  0.
     999903    2    3    3    0    0 -0.10224089663E+00  0.17500228043E-01  0.77642514023E-01  0.13103725818E+00  0.19568958093E-01 0.  0.
         14    1    1    2    0    0  0.16399293821E-01  0.17730042328E-01  0.30473117252E-02  0.24342911648E-01  0.00000000000E+00 0. -1.
     999901    1    3    3    0    0  0.85841602813E-01 -0.35230270371E-01 -0.80689825748E-01  0.88854983017E+00  0.88000000000E+00 0. -1.
        -11    1    4    4    0    0 -0.16090774377E-01  0.53855102880E-02  0.21912204749E-01  0.27718632345E-01  0.51100000000E-03 0. -1.
         11    1    4    4    0    0 -0.86150122257E-01  0.12114717755E-01  0.55730309273E-01  0.10331862583E+00  0.51100000000E-03 0.  1.
</event>
<event>
 8    1  0.1106168E+005  0.1043930E+01  0.7957747E-01            NaN
         13   -1    0    0    0    0  0.00000000000E+00  0.00000000000E+00  0.74505805969E-08  0.10566000000E+00  0.10566000000E+00 0. -1.
     999900   -1    0    0    0    0 -0.00000000000E+00 -0.00000000000E+00 -0.74505805969E-08  0.93827000000E+00  0.93827000000E+00 0.  1.
     999902    2    1    2    0    0  0.72256587947E-02  0.21684847594E-01  0.32631857180E-02  0.10208412334E+01  0.10205800962E+01 0.  0.
     999903    2    3    3    0    0 -0.47300644851E-01  0.12288703238E+00 -0.24953362818E-02  0.13334579088E+00  0.20887783768E-01 0.  0.
         14    1    1    2    0    0 -0.72256587947E-02 -0.21684847594E-01 -0.32631857180E-02  0.23088766559E-01  0.00000000000E+00 0.  1.
     999901    1    3    3    0    0  0.54526303646E-01 -0.10120218479E+00  0.57585219999E-02  0.88749544256E+00  0.88000000000E+00 0.  1.
        -11    1    4    4    0    0 -0.14395766153E-01  0.16695583916E-01 -0.23126569063E-02  0.22171831418E-01  0.51100000000E-03 0. -1.
         11    1    4    4    0    0 -0.32904878698E-01  0.10619144846E+00 -0.18267937557E-03  0.11117395946E+00  0.51100000000E-03 0.  1.
</event>
<event>
 8    1  0.1106168E+005  0.1043930E+01  0.7957747E-01            NaN
         13   -1    0    0    0    0  0.00000000000E+00  0.00000000000E+00  0.74505805969E-08  0.10566000000E+00  0.10566000000E+00 0.  1.
     999900   -1    0    0    0    0 -0.00000000000E+00 -0.00000000000E+00 -0.74505805969E-08  0.93827000000E+00  0.93827000000E+00 0.  1.
     999902    2    1    2    0    0  0.18529380201E-01 -0.95420854509E-02 -0.88187197267E-02  0.10212990667E+01  0.10210482968E+01 0.  0.
     999903    2    3    3    0    0  0.10935362447E+00  0.15067573093E-01  0.70866938933E-01  0.13270214859E+00  0.20062159976E-01 0.  0.
         14    1    1    2    0    0 -0.18529380201E-01  0.95420854509E-02  0.88187197267E-02  0.22630933322E-01  0.00000000000E+00 0.  1.
     999901    1    3    3    0    0 -0.90824244269E-01 -0.24609658544E-01 -0.79685658659E-01  0.88859691809E+00  0.88000000000E+00 0.  1.
        -11    1    4    4    0    0  0.88999794974E-01  0.10361333703E-01  0.65889274792E-01  0.11122040458E+00  0.51100000000E-03 0. -1.
         11    1    4    4    0    0  0.20353829496E-01  0.47062393900E-02  0.49776641408E-02  0.21481744009E-01  0.51100000000E-03 0.  1.
</event>
<event>
 8    1  0.1106168E+005  0.1043930E+01  0.7957747E-01            NaN
         13   -1    0    0    0    0  0.00000000000E+00  0.00000000000E+00  0.74505805969E-08  0.10566000000E+00  0.10566000000E+00 0.  1.
     999900   -1    0    0    0    0 -0.00000000000E+00 -0.00000000000E+00 -0.74505805969E-08  0.93827000000E+00  0.93827000000E+00 0.  1.
     999902    2    1    2    0    0  0.12956416243E-02 -0.22549419273E-01 -0.77849577708E-02  0.10200394043E+01  0.10197595921E+01 0.  0.
     999903    2    3    3    0    0 -0.10745459718E+00 -0.10773632858E-01  0.69361089665E-01  0.12991761698E+00  0.20126222252E-01 0.  0.
         14    1    1    2    0    0 -0.12956416243E-02  0.22549419273E-01  0.77849577708E-02  0.23890595728E-01  0.00000000000E+00 0.  1.
     999901    1    3    3    0    0  0.10875023880E+00 -0.11775786415E-01 -0.77146047436E-01  0.89012178730E+00  0.88000000000E+00 0. -1.
        -11    1    4    4    0    0 -0.57591572209E-01 -0.15692866234E-01  0.39687248481E-01  0.71682592400E-01  0.51100000000E-03 0. -1.
         11    1    4    4    0    0 -0.49863024966E-01  0.49192333759E-02  0.29673841184E-01  0.58235024576E-01  0.51100000000E-03 0.  1.
</event>
<event>
 8    1  0.1106168E+005  0.1043930E+01  0.7957747E-01            NaN
         13   -1    0    0    0    0  0.00000000000E+00  0.00000000000E+00  0.74505805969E-08  0.10566000000E+00  0.10566000000E+00 0.  1.
     999900   -1    0    0    0    0 -0.00000000000E+00 -0.00000000000E+00 -0.74505805969E-08  0.93827000000E+00  0.93827000000E+00 0.  1.
     999902    2    1    2    0    0  0.18896821685E-02 -0.21594420766E-01 -0.66731102772E-02  0.10212491643E+01  0.10209972749E+01 0.  0.
     999903    2    3    3    0    0 -0.71469260836E-01 -0.16683587692E-01  0.10648253844E+00  0.13096277688E+00  0.20652375024E-01 0.  0.
         14    1    1    2    0    0 -0.18896821685E-02  0.21594420766E-01  0.66731102772E-02  0.22680835692E-01  0.00000000000E+00 0. -1.
     999901    1    3    3    0    0  0.73358943005E-01 -0.49108330735E-02 -0.11315564871E+00  0.89028638743E+00  0.88000000000E+00 0.  1.
        -11    1    4    4    0    0 -0.17077743992E-01  0.40972645378E-02  0.30976120038E-01  0.35612049227E-01  0.51100000000E-03 0. -1.
         11    1    4    4    0    0 -0.54391516844E-01 -0.20780852230E-01  0.75506418398E-01  0.95350727655E-01  0.51100000000E-03 0.  1.
</event>
<event>
 8    1  0.1106168E+005  0.1043930E+01  0.7957747E-01            NaN
         13   -1    0    0    0    0  0.00000000000E+00  0.00000000000E+00  0.74505805969E-08  0.10566000000E+00  0.10566000000E+00 0.  1.
     999900   -1    0    0    0    0 -0.00000000000E+00 -0.00000000000E+00 -0.74505805969E-08  0.93827000000E+00  0.93827000000E+00 0. -1.
     999902    2    1    2    0    0  0.75259072851E-02 -0.23981871327E-01 -0.27890157583E-02  0.10186407129E+01  0.10183267422E+01 0.  0.
     999903    2    3    3    0    0  0.10662291797E+00 -0.75597039009E-01  0.27677114263E-02  0.13155829268E+00  0.14716154461E-01 0.  0.
         14    1    1    2    0    0 -0.75259072851E-02  0.23981871327E-01  0.27890157583E-02  0.25289287094E-01  0.00000000000E+00 0.  1.
     999901    1    3    3    0    0 -0.99097010686E-01  0.51615167681E-01 -0.55567271846E-02  0.88708242023E+00  0.88000000000E+00 0. -1.
        -11    1    4    4    0    0  0.57689254584E-01 -0.45560776145E-01  0.77687688238E-02  0.73921913581E-01  0.51100000000E-03 0.  1.
         11    1    4    4    0    0  0.48933663387E-01 -0.30036262863E-01 -0.50010573975E-02  0.57636379096E-01  0.51100000000E-03 0. -1.
</event>
<event>
 8    1  0.1106168E+005  0.1043930E+01  0.7957747E-01            NaN
         13   -1    0    0    0    0  0.00000000000E+00  0.00000000000E+00  0.74505805969E-08  0.10566000000E+00  0.10566000000E+00 0.  1.
     999900   -1    0    0    0    0 -0.00000000000E+00 -0.00000000000E+00 -0.74505805969E-08  0.93827000000E+00  0.93827000000E+00 0. -1.
     999902    2    1    2    0    0  0.21463252955E-01 -0.19468101468E-01 -0.67143595921E-02  0.10141850706E+01  0.10137487837E+01 0.  0.
     999903    2    3    3    0    0 -0.11581686352E+00  0.18171476546E-01 -0.29304328970E-01  0.12246040738E+00  0.19850925531E-01 0.  0.
         14    1    1    2    0    0 -0.21463252955E-01  0.19468101468E-01  0.67143595921E-02  0.29744929432E-01  0.00000000000E+00 0.  1.
     999901    1    3    3    0    0  0.13728011648E+00 -0.37639578014E-01  0.22589969378E-01  0.89172466318E+00  0.88000000000E+00 0.  1.
        -11    1    4    4    0    0 -0.35870455266E-01  0.59401175477E-02  0.21573014825E-03  0.36363198677E-01  0.51100000000E-03 0.  1.
         11    1    4    4    0    0 -0.79946408256E-01  0.12231358998E-01 -0.29520059118E-01  0.86097208708E-01  0.51100000000E-03 0. -1.
</event>
<event>
 8    1  0.1106168E+005  0.1043930E+01  0.7957747E-01            NaN
         13   -1    0    0    0    0  0.00000000000E+00  0.00000000000E+00  0.74505805969E-08  0.10566000000E+00  0.10566000000E+00 0. -1.
     999900   -1    0    0    0    0 -0.00000000000E+00 -0.00000000000E+00 -0.74505805969E-08  0.93827000000E+00  0.93827000000E+00 0. -1.
     999902    2    1    2    0    0 -0.16767296620E-01 -0.27029742116E-03  0.16656411626E-01  0.10202941936E+01  0.10200203871E+01 0.  0.
     999903    2    3    3    0    0  0.25070281208E-01  0.11826134933E+00  0.45055731425E-01  0.13090864414E+00  0.22198838507E-01 0.  0.
         14    1    1    2    0    0  0.16767296620E-01  0.27029742116E-03 -0.16656411626E-01  0.23635806415E-01  0.00000000000E+00 0.  1.
     999901    1    3    3    0    0 -0.41837577828E-01 -0.11853164675E+00 -0.28399319799E-01  0.88938554945E+00  0.88000000000E+00 0.  1.
        -11    1    4    4    0    0  0.79516568684E-02  0.29217234645E-01  0.15190598266E-02  0.30322340130E-01  0.51100000000E-03 0.  1.
         11    1    4    4    0    0  0.17118624340E-01  0.89044114684E-01  0.43536671598E-01  0.10058630401E+00  0.51100000000E-03 0. -1.
</event>
<event>
 8    1  0.1106168E+005  0.1043930E+01  0.7957747E-01            NaN
         13   -1    0    0    0    0  0.00000000000E+00  0.00000000000E+00  0.74505805969E-08  0.10566000000E+00  0.10566000000E+00 0. -1.
     999900   -1    0    0    0    0 -0.00000000000E+00 -0.00000000000E+00 -0.74505805969E-08  0.93827000000E+00  0.93827000000E+00 0. -1.
     999902    2    1    2    0    0 -0.18969800136E-01 -0.11057980115E-01  0.54544711697E-02  0.10213051575E+01  0.10210545241E+01 0.  0.
     999903    2    3    3    0    0  0.58599773675E-01 -0.11499696857E+00 -0.90190394641E-02  0.13168173460E+00  0.24505099476E-01 0.  0.
         14    1    1    2    0    0  0.18969800136E-01  0.11057980115E-01 -0.54544711697E-02  0.22624842478E-01  0.00000000000E+00 0.  1.
     999901    1    3    3    0    0 -0.77569573811E-01  0.10393898845E+00  0.14473510634E-01  0.88962342292E+00  0.88000000000E+00 0.  1.
        -11    1    4    4    0    0  0.48232543370E-01 -0.71133544539E-01 -0.10487712888E-01  0.86582981245E-01  0.51100000000E-03 0.  1.
         11    1    4    4    0    0  0.10367230305E-01 -0.43863424026E-01  0.14686734244E-02  0.45098753355E-01  0.51100000000E-03 0. -1.
</event>
<event>
 8    1  0.1106168E+005  0.1043930E+01  0.7957747E-01            NaN
         13   -1    0    0    0    0  0.00000000000E+00  0.00000000000E+00  0.74505805969E-08  0.10566000000E+00  0.10566000000E+00 0.  1.
     999900   -1    0    0    0    0 -0.00000000000E+00 -0.00000000000E+00 -0.74505805969E-08  0.93827000000E+00  0.93827000000E+00 0. -1.
     999902    2    1    2    0    0  0.24282474145E-01 -0.84990603697E-02 -0.30675197940E-02  0.10180208847E+01  0.10176911316E+01 0.  0.
     999903    2    3    3    0    0  0.99230258877E-01 -0.48549381710E-01  0.68966756999E-01  0.13099769690E+00  0.14152606814E-01 0.  0.
         14    1    1    2    0    0 -0.24282474145E-01  0.84990603697E-02  0.30675197940E-02  0.25909115297E-01  0.00000000000E+00 0. -1.
     999901    1    3    3    0    0 -0.74947784732E-01  0.40050321341E-01 -0.72034276793E-01  0.88702318781E+00  0.88000000000E+00 0. -1.
        -11    1    4    4    0    0  0.71934553648E-01 -0.28100981872E-01  0.49311884195E-01  0.91630607520E-01  0.51100000000E-03 0. -1.
         11    1    4    4    0    0  0.27295705230E-01 -0.20448399839E-01  0.19654872804E-01  0.39367089375E-01  0.51100000000E-03 0.  1.
</event>
<event>
 8    1  0.1106168E+005  0.1043930E+01  0.7957747E-01            NaN
         13   -1    0    0    0    0  0.00000000000E+00  0.00000000000E+00  0.74505805969E-08  0.10566000000E+00  0.10566000000E+00 0.  1.
     999900   -1    0    0    0    0 -0.00000000000E+00 -0.00000000000E+00 -0.74505805969E-08  0.93827000000E+00  0.93827000000E+00 0. -1.
     999902    2    1    2    0    0 -0.15732199115E-01  0.14624780698E-01 -0.62586323596E-02  0.10215568737E+01  0.10213118473E+01 0.  0.
     999903    2    3    3    0    0  0.94640956700E-01  0.47840084832E-01  0.73526678621E-01  0.13046137617E+00  0.19194108488E-01 0.  0.
         14    1    1    2    0    0  0.15732199115E-01 -0.14624780698E-01  0.62586323596E-02  0.22373126256E-01  0.00000000000E+00 0. -1.
     999901    1    3    3    0    0 -0.11037315581E+00 -0.33215304134E-01 -0.79785310981E-01  0.89109549758E+00  0.88000000000E+00 0. -1.
        -11    1    4    4    0    0  0.35424913900E-01  0.12919832445E-01  0.16594556494E-01  0.41200570645E-01  0.51100000000E-03 0. -1.
         11    1    4    4    0    0  0.59216042800E-01  0.34920252387E-01  0.56932122127E-01  0.89260805522E-01  0.51100000000E-03 0.  1.
</event>
<event>
 8    1  0.1106168E+005  0.1043930E+01  0.7957747E-01            NaN
         13   -1    0    0    0    0  0.00000000000E+00  0.00000000000E+00  0.74505805969E-08  0.10566000000E+00  0.10566000000E+00 0. -1.
     999900   -1    0    0    0    0 -0.00000000000E+00 -0.00000000000E+00 -0.74505805969E-08  0.93827000000E+00  0.93827000000E+00 0.  1.
     999902    2    1    2    0    0  0.36850601639E-02 -0.22100303818E-01  0.65917049490E-02  0.10205750504E+01  0.10203077868E+01 0.  0.
     999903    2    3    3    0    0 -0.80640994750E-02 -0.11259457281E+00 -0.66692364757E-01  0.13282631885E+00  0.21269507202E-01 0.  0.
         14    1    1    2    0    0 -0.36850601639E-02  0.22100303818E-01 -0.65917049490E-02  0.23354949613E-01  0.00000000000E+00 0.  1.
     999901    1    3    3    0    0  0.11749159639E-01  0.90494268989E-01  0.73284069706E-01  0.88774873154E+00  0.88000000000E+00 0. -1.
        -11    1    4    4    0    0 -0.38283577542E-02 -0.66928303051E-01 -0.27367407250E-01  0.72410566722E-01  0.51100000000E-03 0.  1.
         11    1    4    4    0    0 -0.42357417207E-02 -0.45666269756E-01 -0.39324957508E-01  0.60415752129E-01  0.51100000000E-03 0. -1.
</event>
<event>
 8    1  0.1106168E+005  0.1043930E+01  0.7957747E-01            NaN
         13   -1    0    0    0    0  0.00000000000E+00  0.00000000000E+00  0.74505805969E-08  0.10566000000E+00  0.10566000000E+00 0.  1.
     999900   -1    0    0    0    0 -0.00000000000E+00 -0.00000000000E+00 -0.74505805969E-08  0.93827000000E+00  0.93827000000E+00 0. -1.
     999902    2    1    2    0    0 -0.17386979236E-01 -0.40169853781E-02  0.15547437246E-01  0.10202621732E+01  0.10199876157E+01 0.  0.
     999903    2    3    3    0    0 -0.23152856274E-01 -0.88287675751E-02 -0.12498765956E+00  0.12907952528E+00  0.20630242702E-01 0.  0.
         14    1    1    2    0    0  0.17386979236E-01  0.40169853781E-02 -0.15547437246E-01  0.23667826757E-01  0.00000000000E+00 0. -1.
     999901    1    3    3    0    0  0.57658770376E-02  0.48117821970E-02  0.14053509681E+00  0.89118264796E+00  0.88000000000E+00 0.  1.
        -11    1    4    4    0    0 -0.15698514977E-01 -0.14441676075E-01 -0.66197412400E-01  0.69551160377E-01  0.51100000000E-03 0.  1.
         11    1    4    4    0    0 -0.74543412970E-02  0.56129084998E-02 -0.58790247164E-01  0.59528364908E-01  0.51100000000E-03 0. -1.
</event>
<event>
 8    1  0.1106168E+005  0.1043930E+01  0.7957747E-01            NaN
         13   -1    0    0    0    0  0.00000000000E+00  0.00000000000E+00  0.74505805969E-08  0.10566000000E+00  0.10566000000E+00 0.  1.
     999900   -1    0    0    0    0 -0.00000000000E+00 -0.00000000000E+00 -0.74505805969E-08  0.93827000000E+00  0.93827000000E+00 0. -1.
     999902    2    1    2    0    0 -0.12795545152E-01 -0.19163145175E-01  0.34994171073E-02  0.10206233909E+01  0.10203572453E+01 0.  0.
     999903    2    3    3    0    0 -0.74944871992E-01  0.98435965015E-01  0.35023983104E-01  0.13006969356E+00  0.19623270468E-01 0.  0.
         14    1    1    2    0    0  0.12795545152E-01  0.19163145175E-01 -0.34994171073E-02  0.23306609123E-01  0.00000000000E+00 0. -1.
     999901    1    3    3    0    0  0.62149326840E-01 -0.11759911019E+00 -0.31524565997E-01  0.89055369732E+00  0.88000000000E+00 0. -1.
        -11    1    4    4    0    0 -0.25649693123E-01  0.19676132580E-01  0.80758921354E-02  0.33324737139E-01  0.51100000000E-03 0. -1.
         11    1    4    4    0    0 -0.49295178869E-01  0.78759832436E-01  0.26948090969E-01  0.96744956421E-01  0.51100000000E-03 0.  1.
</event>
<event>
 8    1  0.1106168E+005  0.1043930E+01  0.7957747E-01            NaN
         13   -1    0    0    0    0  0.00000000000E+00  0.00000000000E+00  0.74505805969E-08  0.10566000000E+00  0.10566000000E+00 0.  1.
     999900   -1    0    0    0    0 -0.00000000000E+00 -0.00000000000E+00 -0.74505805969E-08  0.93827000000E+00  0.93827000000E+00 0.  1.
     999902    2    1    2    0    0 -0.15131586277E-01  0.39598880886E-02 -0.20693945793E-01  0.10179899728E+01  0.10176594223E+01 0.  0.
     999903    2    3    3    0    0 -0.10857412038E+00  0.26651299805E-02  0.63828113495E-01  0.12901462892E+00  0.27844278950E-01 0.  0.
         14    1    1    2    0    0  0.15131586277E-01 -0.39598880886E-02  0.20693945793E-01  0.25940027167E-01  0.00000000000E+00 0.  1.
     999901    1    3    3    0    0  0.93442534099E-01  0.12947581080E-02 -0.84522059288E-01  0.88897534391E+00  0.88000000000E+00 0. -1.
        -11    1    4    4    0    0 -0.88745535064E-02  0.38530092524E-02  0.15336396939E-01  0.18140274869E-01  0.51100000000E-03 0.  1.
         11    1    4    4    0    0 -0.99699566869E-01 -0.11878792719E-02  0.48491716556E-01  0.11087435405E+00  0.51100000000E-03 0. -1.
</event>
<event>
 8    1  0.1106168E+005  0.1043930E+01  0.7957747E-01            NaN
         13   -1    0    0    0    0  0.00000000000E+00  0.00000000000E+00  0.74505805969E-08  0.10566000000E+00  0.10566000000E+00 0.  1.
     999900   -1    0    0    0    0 -0.00000000000E+00 -0.00000000000E+00 -0.74505805969E-08  0.93827000000E+00  0.93827000000E+00 0. -1.
     999902    2    1    2    0    0  0.17796782145E-01  0.16014823913E-01  0.39955811692E-02  0.10196572847E+01  0.10193683404E+01 0.  0.
     999903    2    3    3    0    0  0.89039912615E-01 -0.55521057748E-01 -0.74790661135E-01  0.13038778787E+00  0.19915781169E-01 0.  0.
         14    1    1    2    0    0 -0.17796782145E-01 -0.16014823913E-01 -0.39955811692E-02  0.24272715311E-01  0.00000000000E+00 0. -1.
     999901    1    3    3    0    0 -0.71243130470E-01  0.71535881661E-01  0.78786242304E-01  0.88926949682E+00  0.88000000000E+00 0.  1.
        -11    1    4    4    0    0  0.37268969132E-01 -0.34350183699E-01 -0.39374856434E-01  0.64183733301E-01  0.51100000000E-03 0.  1.
         11    1    4    4    0    0  0.51770943484E-01 -0.21170874049E-01 -0.35415804701E-01  0.66204054564E-01  0.51100000000E-03 0. -1.
</event>
<event>
 7    1  0.1106168E+005  0.1043930E+01  0.7957747E-01            NaN
         13   -1    0    0    0    0  0.00000000000E+00  0.00000000000E+00  0.74505805969E-08  0.10566000000E+00  0.10566000000E+00 0. -1.
     999900   -1    0    0    0    0 -0.00000000000E+00 -0.00000000000E+00 -0.74505805969E-08  0.93827000000E+00  0.93827000000E+00 0.  1.
     999902    2    1    2    0    0  0.11116837388E-01  0.20549574030E-01 -0.44867564918E-02  0.10201392444E+01  0.10198617936E+01 0.  0.
         14    1    1    2    0    0 -0.11116837388E-01 -0.20549574030E-01  0.44867564918E-02  0.23790755561E-01  0.00000000000E+00 0. -1.
     999901    1    3    3    0    0  0.13762575166E+00  0.40301713654E-01 -0.13518278828E-01  0.89171061422E+00  0.88000000000E+00 0.  1.
        -11    1    3    3    0    0 -0.19336013723E-01 -0.44295594319E-02  0.10659972545E-02  0.19872088331E-01  0.51100000000E-03 0. -1.
         11    1    3    3    0    0 -0.10717290055E+00 -0.15322580192E-01  0.79655250818E-02  0.10855654189E+00  0.51100000000E-03 0.  1.
</event>
<event>
 8    1  0.1106168E+005  0.1043930E+01  0.7957747E-01            NaN
         13   -1    0    0    0    0  0.00000000000E+00  0.00000000000E+00  0.74505805969E-08  0.10566000000E+00  0.10566000000E+00 0.  1.
     999900   -1    0    0    0    0 -0.00000000000E+00 -0.00000000000E+00 -0.74505805969E-08  0.93827000000E+00  0.93827000000E+00 0. -1.
     999902    2    1    2    0    0  0.15456805216E-01  0.75056310047E-02 -0.15782945169E-01  0.10205987188E+01  0.10203320029E+01 0.  0.
     999903    2    3    3    0    0  0.12484612989E-01 -0.38314420676E-01  0.12065611092E+00  0.12890150164E+00  0.20828817315E-01 0.  0.
         14    1    1    2    0    0 -0.15456805216E-01 -0.75056310047E-02  0.15782945169E-01  0.23331281201E-01  0.00000000000E+00 0. -1.
     999901    1    3    3    0    0  0.29721922269E-02  0.45820051681E-01 -0.13643905608E+00  0.89169721716E+00  0.88000000000E+00 0. -1.
        -11    1    4    4    0    0  0.14908082336E-01 -0.23629025641E-01  0.97026972246E-01  0.10097067018E+00  0.51100000000E-03 0.  1.
         11    1    4    4    0    0 -0.24234693466E-02 -0.14685395036E-01  0.23629138670E-01  0.27930831465E-01  0.51100000000E-03 0. -1.
</event>
<event>
 8    1  0.1106168E+005  0.1043930E+01  0.7957747E-01            NaN
         13   -1    0    0    0    0  0.00000000000E+00  0.00000000000E+00  0.74505805969E-08  0.10566000000E+00  0.10566000000E+00 0. -1.
     999900   -1    0    0    0    0 -0.00000000000E+00 -0.00000000000E+00 -0.74505805969E-08  0.93827000000E+00  0.93827000000E+00 0.  1.
     999902    2    1    2    0    0 -0.21757512063E-01  0.36105051943E-02 -0.10776288990E-01  0.10193830352E+01  0.10190874442E+01 0.  0.
     999903    2    3    3    0    0 -0.21523241926E-01 -0.77659029290E-01 -0.10147890725E+00  0.13099586895E+00  0.19177442275E-01 0.  0.
         14    1    1    2    0    0  0.21757512063E-01 -0.36105051943E-02  0.10776288990E-01  0.24546964849E-01  0.00000000000E+00 0. -1.
     999901    1    3    3    0    0 -0.23427013709E-03  0.81269534484E-01  0.90702618256E-01  0.88838716620E+00  0.88000000000E+00 0. -1.
        -11    1    4    4    0    0 -0.19959230233E-01 -0.65075601033E-01 -0.94648564861E-01  0.11658394689E+00  0.51100000000E-03 0. -1.
         11    1    4    4    0    0 -0.15640116926E-02 -0.12583428257E-01 -0.68303423840E-02  0.14411922056E-01  0.51100000000E-03 0.  1.
</event>
<event>
 8    1  0.1106168E+005  0.1043930E+01  0.7957747E-01            NaN
         13   -1    0    0    0    0  0.00000000000E+00  0.00000000000E+00  0.74505805969E-08  0.10566000000E+00  0.10566000000E+00 0.  1.
     999900   -1    0    0    0    0 -0.00000000000E+00 -0.00000000000E+00 -0.74505805969E-08  0.93827000000E+00  0.93827000000E+00 0.  1.
     999902    2    1    2    0    0 -0.22814961638E-01 -0.31568504770E-02  0.41127610986E-02  0.10205333553E+01  0.10202651255E+01 0.  0.
     999903    2    3    3    0    0  0.54164498914E-01 -0.71238529920E-01  0.92411399057E-01  0.13016399268E+00  0.19851378466E-01 0.  0.
         14    1    1    2    0    0  0.22814961638E-01  0.31568504770E-02 -0.41127610986E-02  0.23396644702E-01  0.00000000000E+00 0. -1.
     999901    1    3    3    0    0 -0.76979460552E-01  0.68081679443E-01 -0.88298637959E-01  0.89036936262E+00  0.88000000000E+00 0. -1.
        -11    1    4    4    0    0  0.50841038275E-01 -0.57253677014E-01  0.83259292439E-01  0.11311571775E+00  0.51100000000E-03 0. -1.
         11    1    4    4    0    0  0.33234606388E-02 -0.13984852906E-01  0.91521066184E-02  0.17048274926E-01  0.51100000000E-03 0.  1.
</event>
<event>
 8    1  0.1106168E+005  0.1043930E+01  0.7957747E-01            NaN
         13   -1    0    0    0    0  0.00000000000E+00  0.00000000000E+00  0.74505805969E-08  0.10566000000E+00  0.10566000000E+00 0.  1.
     999900   -1    0    0    0    0 -0.00000000000E+00 -0.00000000000E+00 -0.74505805969E-08  0.93827000000E+00  0.93827000000E+00 0.  1.
     999902    2    1    2    0    0  0.12291218087E-01 -0.20082032396E-01  0.65196802377E-02  0.10194991118E+01  0.10192063435E+01 0.  0.
     999903    2    3    3    0    0 -0.12563410977E+00 -0.18756876861E-01 -0.90657754426E-02  0.12861861560E+00  0.18022486728E-01 0.  0.
         14    1    1    2    0    0 -0.12291218087E-01  0.20082032396E-01 -0.65196802377E-02  0.24430888187E-01  0.00000000000E+00 0. -1.
     999901    1    3    3    0    0  0.13792532786E+00 -0.13251555354E-02  0.15585455680E-01  0.89088049621E+00  0.88000000000E+00 0. -1.
        -11    1    4    4    0    0 -0.34332478182E-01 -0.11294744434E-01 -0.79210165886E-02  0.37003971878E-01  0.51100000000E-03 0. -1.
         11    1    4    4    0    0 -0.91301631586E-01 -0.74621324274E-02 -0.11447588540E-02  0.91614643723E-01  0.51100000000E-03 0.  1.
</event>
<event>
 8    1  0.1106168E+005  0.1043930E+01  0.7957747E-01            NaN
         13   -1    0    0    0    0  0.00000000000E+00  0.00000000000E+00  0.74505805969E-08  0.10566000000E+00  0.10566000000E+00 0. -1.
     999900   -1    0    0    0    0 -0.00000000000E+00 -0.00000000000E+00 -0.74505805969E-08  0.93827000000E+00  0.93827000000E+00 0.  1.
     999902    2    1    2    0    0 -0.12586254168E-01  0.68921696381E-02  0.17866438359E-01  0.10210143849E+01  0.10207571938E+01 0.  0.
     999903    2    3    3    0    0 -0.56903657983E-01  0.90026488334E-01 -0.74277346251E-01  0.13120214387E+00  0.18817106473E-01 0.  0.
         14    1    1    2    0    0  0.12586254168E-01 -0.68921696381E-02 -0.17866438359E-01  0.22915615112E-01  0.00000000000E+00 0. -1.
     999901    1    3    3    0    0  0.44317403815E-01 -0.83134318696E-01  0.92143784610E-01  0.88981224102E+00  0.88000000000E+00 0.  1.
        -11    1    4    4    0    0 -0.22756850188E-01  0.53467007913E-01 -0.40919308329E-01  0.71072118871E-01  0.51100000000E-03 0.  1.
         11    1    4    4    0    0 -0.34146807795E-01  0.36559480422E-01 -0.33358037922E-01  0.60130024998E-01  0.51100000000E-03 0. -1.
</event>
<event>
 8    1  0.1106168E+005  0.1043930E+01  0.7957747E-01            NaN
         13   -1    0    0    0    0  0.00000000000E+00  0.00000000000E+00  0.74505805969E-08  0.10566000000E+00  0.10566000000E+00 0.  1.
     999900   -1    0    0    0    0 -0.00000000000E+00 -0.00000000000E+00 -0.74505805969E-08  0.93827000000E+00  0.93827000000E+00 0. -1.
     999902    2    1    2    0    0 -0.19508260180E-01  0.13545675055E-01 -0.42083403273E-02  0.10198101398E+01  0.10195248666E+01 0.  0.
     999903    2    3    3    0    0  0.68389928052E-02 -0.40852809383E-01 -0.12154615896E+00  0.12996659370E+00  0.20053001362E-01 0.  0.
         14    1    1    2    0    0  0.19508260180E-01 -0.13545675055E-01  0.42083403273E-02  0.24119860204E-01  0.00000000000E+00 0. -1.
     999901    1    3    3    0    0 -0.26347252986E-01  0.54398484439E-01  0.11733781863E+00  0.88984354610E+00  0.88000000000E+00 0.  1.
        -11    1    4    4    0    0  0.13165476309E-01 -0.18147395084E-01 -0.57420508173E-01  0.61644412518E-01  0.51100000000E-03 0. -1.
         11    1    4    4    0    0 -0.63264835042E-02 -0.22705414299E-01 -0.64125650783E-01  0.68322181181E-01  0.51100000000E-03 0.  1.
</event>
<event>
 8    1  0.1106168E+005  0.1043930E+01  0.7957747E-01            NaN
         13   -1    0    0    0    0  0.00000000000E+00  0.00000000000E+00  0.74505805969E-08  0.10566000000E+00  0.10566000000E+00 0.  1.
     999900   -1    0    0    0    0 -0.00000000000E+00 -0.00000000000E+00 -0.74505805969E-08  0.93827000000E+00  0.93827000000E+00 0. -1.
     999902    2    1    2    0    0  0.94874723398E-02  0.91384892828E-02 -0.21015863046E-01  0.10191269635E+01  0.10188250965E+01 0.  0.
     999903    2    3    3    0    0  0.78761525664E-01  0.66119564707E-01 -0.81276873246E-01  0.13251705678E+00  0.19485005818E-01 0.  0.
         14    1    1    2    0    0 -0.94874723398E-02 -0.91384892828E-02  0.21015863046E-01  0.24803036454E-01  0.00000000000E+00 0.  1.
     999901    1    3    3    0    0 -0.69274053324E-01 -0.56981075424E-01  0.60261010200E-01  0.88660990676E+00  0.88000000000E+00 0.  1.
        -11    1    4    4    0    0  0.29507322134E-01  0.30852909076E-01 -0.23180991581E-01  0.48581926162E-01  0.51100000000E-03 0.  1.
         11    1    4    4    0    0  0.49254203530E-01  0.35266655631E-01 -0.58095881666E-01  0.83935130620E-01  0.51100000000E-03 0. -1.
</event>
<event>
 8    1  0.1106168E+005  0.1043930E+01  0.7957747E-01            NaN
         13   -1    0    0    0    0  0.00000000000E+00  0.00000000000E+00  0.74505805969E-08  0.10566000000E+00  0.10566000000E+00 0.  1.
     999900   -1    0    0    0    0 -0.00000000000E+00 -0.00000000000E+00 -0.74505805969E-08  0.93827000000E+00  0.93827000000E+00 0.  1.
     999902    2    1    2    0    0 -0.15776062831E-01 -0.25600343490E-02  0.17709336180E-01  0.10200750525E+01  0.10197960846E+01 0.  0.
     999903    2    3    3    0    0 -0.10806866676E+00 -0.33907584678E-01  0.68317236375E-01  0.13324826372E+00  0.16102607391E-01 0.  0.
         14    1    1    2    0    0  0.15776062831E-01  0.25600343490E-02 -0.17709336180E-01  0.23854947543E-01  0.00000000000E+00 0.  1.
     999901    1    3    3    0    0  0.92292603933E-01  0.31347550329E-01 -0.50607900194E-01  0.88682678873E+00  0.88000000000E+00 0.  1.
        -11    1    4    4    0    0 -0.40824541418E-01 -0.12373109010E-01  0.34957133642E-01  0.55154322787E-01  0.51100000000E-03 0. -1.
         11    1    4    4    0    0 -0.67244125346E-01 -0.21534475668E-01  0.33360102732E-01  0.78093940937E-01  0.51100000000E-03 0.  1.
</event>
<event>
 8    1  0.1106168E+005  0.1043930E+01  0.7957747E-01            NaN
         13   -1    0    0    0    0  0.00000000000E+00  0.00000000000E+00  0.74505805969E-08  0.10566000000E+00  0.10566000000E+00 0.  1.
     999900   -1    0    0    0    0 -0.00000000000E+00 -0.00000000000E+00 -0.74505805969E-08  0.93827000000E+00  0.93827000000E+00 0.  1.
     999902    2    1    2    0    0 -0.13950718487E-01  0.16523327317E-01  0.42241436685E-02  0.10218962468E+01  0.10216586773E+01 0.  0.
     999903    2    3    3    0    0  0.84451860348E-01  0.96616752306E-01 -0.25239506524E-01  0.13230862830E+00  0.20040630973E-01 0.  0.
         14    1    1    2    0    0  0.13950718487E-01 -0.16523327317E-01 -0.42241436685E-02  0.22033753236E-01  0.00000000000E+00 0. -1.
     999901    1    3    3    0    0 -0.98402578835E-01 -0.80093424989E-01  0.29463650192E-01  0.88958761847E+00  0.88000000000E+00 0. -1.
        -11    1    4    4    0    0  0.34704626476E-01  0.48282863237E-01 -0.20046295294E-01  0.62751582110E-01  0.51100000000E-03 0.  1.
         11    1    4    4    0    0  0.49747233871E-01  0.48333889069E-01 -0.51932112298E-02  0.69557046187E-01  0.51100000000E-03 0. -1.
</event>
<event>
 8    1  0.1106168E+005  0.1043930E+01  0.7957747E-01            NaN
         13   -1    0    0    0    0  0.00000000000E+00  0.00000000000E+00  0.74505805969E-08  0.10566000000E+00  0.10566000000E+00 0.  1.
     999900   -1    0    0    0    0 -0.00000000000E+00 -0.00000000000E+00 -0.74505805969E-08  0.93827000000E+00  0.93827000000E+00 0.  1.
     999902    2    1    2    0    0  0.16699864970E-01  0.42458600631E-02  0.14103134512E-01  0.10216631812E+01  0.10214205033E+01 0.  0.
     999903    2    3    3    0    0 -0.45964359478E-01  0.52716229464E-01  0.11098587301E+00  0.13280861109E+00  0.20701207257E-01 0.  0.
         14    1    1    2    0    0 -0.16699864970E-01 -0.42458600631E-02 -0.14103134512E-01  0.22266818829E-01  0.00000000000E+00 0. -1.
     999901    1    3    3    0    0  0.62664224448E-01 -0.48470369401E-01 -0.96882738494E-01  0.88885457008E+00  0.88000000000E+00 0. -1.
        -11    1    4    4    0    0 -0.24281709431E-01  0.36048473883E-01  0.51895043698E-01  0.67693800038E-01  0.51100000000E-03 0.  1.
         11    1    4    4    0    0 -0.21682650047E-01  0.16667755581E-01  0.59090829307E-01  0.65114811052E-01  0.51100000000E-03 0. -1.
</event>
<event>
 8    1  0.1106168E+005  0.1043930E+01  0.7957747E-01            NaN
         13   -1    0    0    0    0  0.00000000000E+00  0.00000000000E+00  0.74505805969E-08  0.10566000000E+00  0.10566000000E+00 0. -1.
     999900   -1    0    0    0    0 -0.00000000000E+00 -0.00000000000E+00 -0.74505805969E-08  0.93827000000E+00  0.93827000000E+00 0.  1.
     999902    2    1    2    0    0 -0.73113449136E-02  0.49130563317E-03  0.21526262018E-01  0.10211906706E+01  0.10209374656E+01 0.  0.
     999903    2    3    3    0    0  0.30619760841E-01  0.12563582868E+00  0.13912986919E-01  0.13149528317E+00  0.19378005321E-01 0.  0.
         14    1    1    2    0    0  0.73113449136E-02 -0.49130563317E-03 -0.21526262018E-01  0.22739329412E-01  0.00000000000E+00 0.  1.
     999901    1    3    3    0    0 -0.37931105755E-01 -0.12514452304E+00  0.76132750984E-02  0.88969538742E+00  0.88000000000E+00 0.  1.
        -11    1    4    4    0    0  0.31329218427E-01  0.97632541246E-01  0.13923874181E-01  0.10347834764E+00  0.51100000000E-03 0.  1.
         11    1    4    4    0    0 -0.70945758606E-03  0.28003287430E-01 -0.10887261724E-04  0.28016935530E-01  0.51100000000E-03 0. -1.
</event>
<event>
 8    1  0.1106168E+005  0.1043930E+01  0.7957747E-01            NaN
         13   -1    0    0    0    0  0.00000000000E+00  0.00000000000E+00  0.74505805969E-08  0.10566000000E+00  0.10566000000E+00 0. -1.
     999900   -1    0    0    0    0 -0.00000000000E+00 -0.00000000000E+00 -0.74505805969E-08  0.93827000000E+00  0.93827000000E+00 0. -1.
     999902    2    1    2    0    0  0.10547217590E-01  0.99827332722E-02 -0.18723485372E-01  0.10202346910E+01  0.10199594880E+01 0.  0.
     999903    2    3    3    0    0  0.88755779124E-01 -0.20432950515E-01  0.90035596029E-01  0.12957750069E+00  0.19718679959E-01 0.  0.
         14    1    1    2    0    0 -0.10547217590E-01 -0.99827332722E-02  0.18723485372E-01  0.23695308965E-01  0.00000000000E+00 0. -1.
     999901    1    3    3    0    0 -0.78208561534E-01  0.30415683788E-01 -0.10875908140E+00  0.89065719034E+00  0.88000000000E+00 0. -1.
        -11    1    4    4    0    0  0.47909022299E-01 -0.18652379246E-02  0.40751269638E-01  0.62925993264E-01  0.51100000000E-03 0. -1.
         11    1    4    4    0    0  0.40846756826E-01 -0.18567712591E-01  0.49284326391E-01  0.66651507431E-01  0.51100000000E-03 0.  1.
</event>
<event>
 8    1  0.1106168E+005  0.1043930E+01  0.7957747E-01            NaN
         13   -1    0    0    0    0  0.00000000000E+00  0.00000000000E+00  0.74505805969E-08  0.10566000000E+00  0.10566000000E+00 0.  1.
     999900   -1    0    0    0    0 -0.00000000000E+00 -0.00000000000E+00 -0.74505805969E-08  0.93827000000E+00  0.93827000000E+00 0. -1.
     999902    2    1    2    0    0  0.13010556612E-01 -0.15648399856E-01  0.11829552917E-01  0.10203909830E+01  0.10201194404E+01 0.  0.
     999903    2    3    3    0    0 -0.32638605333E-01  0.23802974372E-01 -0.12025599791E+00  0.12849028800E+00  0.20405610289E-01 0.  0.
         14    1    1    2    0    0 -0.13010556612E-01  0.15648399856E-01 -0.11829552917E-01  0.23539017048E-01  0.00000000000E+00 0. -1.
     999901    1    3    3    0    0  0.45649161945E-01 -0.39451374228E-01  0.13208555082E+00  0.89190069495E+00  0.88000000000E+00 0.  1.
        -11    1    4    4    0    0 -0.47334047835E-02  0.91839266698E-02 -0.55742741779E-01  0.56694479555E-01  0.51100000000E-03 0. -1.
         11    1    4    4    0    0 -0.27905200550E-01  0.14619047702E-01 -0.64513256128E-01  0.71795808448E-01  0.51100000000E-03 0.  1.
</event>
<event>
 8    1  0.1106168E+005  0.1043930E+01  0.7957747E-01            NaN
         13   -1    0    0    0    0  0.00000000000E+00  0.00000000000E+00  0.74505805969E-08  0.10566000000E+00  0.10566000000E+00 0.  1.
     999900   -1    0    0    0    0 -0.00000000000E+00 -0.00000000000E+00 -0.74505805969E-08  0.93827000000E+00  0.93827000000E+00 0.  1.
     999902    2    1    2    0    0  0.83999778123E-02 -0.14605416210E-01  0.18507594169E-01  0.10189018388E+01  0.10185943983E+01 0.  0.
     999903    2    3    3    0    0 -0.66150648467E-01  0.75023360853E-01 -0.74473399076E-01  0.12635683791E+00  0.20380145969E-01 0.  0.
         14    1    1    2    0    0 -0.83999778123E-02  0.14605416210E-01 -0.18507594169E-01  0.25028161176E-01  0.00000000000E+00 0. -1.
     999901    1    3    3    0    0  0.74550626279E-01 -0.89628777063E-01  0.92980993245E-01  0.89254500092E+00  0.88000000000E+00 0. -1.
        -11    1    4    4    0    0 -0.43614472738E-01  0.59837614717E-01 -0.61418629030E-01  0.96204321526E-01  0.51100000000E-03 0.  1.
         11    1    4    4    0    0 -0.22536175729E-01  0.15185746136E-01 -0.13054770046E-01  0.30152516382E-01  0.51100000000E-03 0. -1.
</event>
<event>
 8    1  0.1106168E+005  0.1043930E+01  0.7957747E-01            NaN
         13   -1    0    0    0    0  0.00000000000E+00  0.00000000000E+00  0.74505805969E-08  0.10566000000E+00  0.10566000000E+00 0. -1.
     999900   -1    0    0    0    0 -0.00000000000E+00 -0.00000000000E+00 -0.74505805969E-08  0.93827000000E+00  0.93827000000E+00 0.  1.
     999902    2    1    2    0    0  0.15192882703E-01  0.44401350368E-02  0.17418526761E-01  0.10203939944E+01  0.10201225222E+01 0.  0.
     999903    2    3    3    0    0 -0.12840790323E-01 -0.11264488276E+00 -0.55166045446E-01  0.12923558632E+00  0.28368797853E-01 0.  0.
         14    1    1    2    0    0 -0.15192882703E-01 -0.44401350368E-02 -0.17418526761E-01  0.23536005577E-01  0.00000000000E+00 0.  1.
     999901    1    3    3    0    0  0.28033673026E-01  0.11708501780E+00  0.72584572208E-01  0.89115840811E+00  0.88000000000E+00 0. -1.
        -11    1    4    4    0    0 -0.15102667773E-01 -0.90729243815E-01 -0.32318859577E-01  0.97491825618E-01  0.51100000000E-03 0.  1.
         11    1    4    4    0    0  0.22618774492E-02 -0.21915638948E-01 -0.22847185870E-01  0.31743760698E-01  0.51100000000E-03 0. -1.
</event>
<event>
 8    1  0.1106168E+005  0.1043930E+01  0.7957747E-01            NaN
         13   -1    0    0    0    0  0.00000000000E+00  0.00000000000E+00  0.74505805969E-08  0.10566000000E+00  0.10566000000E+00 0. -1.
     999900   -1    0    0    0    0 -0.00000000000E+00 -0.00000000000E+00 -0.74505805969E-08  0.93827000000E+00  0.93827000000E+00 0.  1.
     999902    2    1    2    0    0  0.12544766007E-01 -0.49838394618E-02 -0.19357955329E-01  0.10203304186E+01  0.10200574605E+01 0.  0.
     999903    2    3    3    0    0  0.10217150273E+00  0.54965039586E-01  0.56143134894E-01  0.13053986193E+00  0.20698608890E-01 0.  0.
         14    1    1    2    0    0 -0.12544766007E-01  0.49838394618E-02  0.19357955329E-01  0.23599581447E-01  0.00000000000E+00 0. -1.
     999901    1    3    3    0    0 -0.89626736721E-01 -0.59948879048E-01 -0.75501090224E-01  0.88979055663E+00  0.88000000000E+00 0.  1.
        -11    1    4    4    0    0  0.41195801142E-01  0.11140481967E-01  0.22649555298E-01  0.48316331053E-01  0.51100000000E-03 0.  1.
         11    1    4    4    0    0  0.60975701586E-01  0.43824557619E-01  0.33493579597E-01  0.82223530875E-01  0.51100000000E-03 0. -1.
</event>
<event>
 8    1  0.1106168E+005  0.1043930E+01  0.7957747E-01            NaN
         13   -1    0    0    0    0  0.00000000000E+00  0.00000000000E+00  0.74505805969E-08  0.10566000000E+00  0.10566000000E+00 0.  1.
     999900   -1    0    0    0    0 -0.00000000000E+00 -0.00000000000E+00 -0.74505805969E-08  0.93827000000E+00  0.93827000000E+00 0. -1.
     999902    2    1    2    0    0 -0.14657345358E-01 -0.16913887379E-01  0.45717294943E-02  0.10210866625E+01  0.10208311095E+01 0.  0.
     999903    2    3    3    0    0 -0.12987973312E+00 -0.10086857637E-01 -0.19049066852E-01  0.13323490175E+00  0.20449506723E-01 0.  0.
         14    1    1    2    0    0  0.14657345358E-01  0.16913887379E-01 -0.45717294943E-02  0.22843337536E-01  0.00000000000E+00 0.  1.
     999901    1    3    3    0    0  0.11522238776E+00 -0.68270297415E-02  0.23620796346E-01  0.88785176071E+00  0.88000000000E+00 0.  1.
        -11    1    4    4    0    0 -0.61658731263E-01 -0.14566744982E-01 -0.12209393271E-01  0.64523791003E-01  0.51100000000E-03 0.  1.
         11    1    4    4    0    0 -0.68221001856E-01  0.44798873449E-02 -0.68396735805E-02  0.68711110751E-01  0.51100000000E-03 0. -1.
</event>
<event>
 8    1  0.1106168E+005  0.1043930E+01  0.7957747E-01            NaN
         13   -1    0    0    0    0  0.00000000000E+00  0.00000000000E+00  0.74505805969E-08  0.10566000000E+00  0.10566000000E+00 0. -1.
     999900   -1    0    0    0    0 -0.00000000000E+00 -0.00000000000E+00 -0.74505805969E-08  0.93827000000E+00  0.93827000000E+00 0. -1.
     999902    2    1    2    0    0  0.95520923075E-02 -0.20017455917E-01  0.64615752689E-02  0.10208282043E+01  0.10205667689E+01 0.  0.
     999903    2    3    3    0    0 -0.13536328630E-01  0.79985288772E-01 -0.98042044765E-01  0.12872135493E+00  0.19392422748E-01 0.  0.
         14    1    1    2    0    0 -0.95520923075E-02  0.20017455917E-01 -0.64615752689E-02  0.23101795684E-01  0.00000000000E+00 0.  1.
     999901    1    3    3    0    0  0.23088420938E-01 -0.10000274469E+00  0.10450362003E+00  0.89210684939E+00  0.88000000000E+00 0.  1.
        -11    1    4    4    0    0 -0.13157437403E-01  0.67981356806E-01 -0.71243648522E-01  0.99350398127E-01  0.51100000000E-03 0. -1.
         11    1    4    4    0    0 -0.37889122725E-03  0.12003931965E-01 -0.26798396243E-01  0.29370956801E-01  0.51100000000E-03 0.  1.
</event>
<event>
 8    1  0.1106168E+005  0.1043930E+01  0.7957747E-01            NaN
         13   -1    0    0    0    0  0.00000000000E+00  0.00000000000E+00  0.74505805969E-08  0.10566000000E+00  0.10566000000E+00 0. -1.
     999900   -1    0    0    0    0 -0.00000000000E+00 -0.00000000000E+00 -0.74505805969E-08  0.93827000000E+00  0.93827000000E+00 0. -1.
     999902    2    1    2    0    0 -0.85642954832E-02  0.62702614879E-02  0.20471857096E-01  0.10208700722E+01  0.10206095944E+01 0.  0.
     999903    2    3    3    0    0  0.10035221854E+00 -0.52431863047E-01 -0.57911507234E-01  0.12876430593E+00  0.20170170579E-01 0.  0.
         14    1    1    2    0    0  0.85642954832E-02 -0.62702614879E-02 -0.20471857096E-01  0.23059927779E-01  0.00000000000E+00 0.  1.
     999901    1    3    3    0    0 -0.10891651403E+00  0.58702124535E-01  0.78383364330E-01  0.89210576629E+00  0.88000000000E+00 0.  1.
        -11    1    4    4    0    0  0.82541226451E-01 -0.36416536660E-01 -0.51827219797E-01  0.10404585546E+00  0.51100000000E-03 0. -1.
         11    1    4    4    0    0  0.17810992093E-01 -0.16015326387E-01 -0.60842874368E-02  0.24718450461E-01  0.51100000000E-03 0.  1.
</event>
<event>
 8    1  0.1106168E+005  0.1043930E+01  0.7957747E-01            NaN
         13   -1    0    0    0    0  0.00000000000E+00  0.00000000000E+00  0.74505805969E-08  0.10566000000E+00  0.10566000000E+00 0. -1.
     999900   -1    0    0    0    0 -0.00000000000E+00 -0.00000000000E+00 -0.74505805969E-08  0.93827000000E+00  0.93827000000E+00 0.  1.
     999902    2    1    2    0    0  0.25427342912E-02  0.19393688889E-01 -0.14126158646E-01  0.10198026499E+01  0.10195171973E+01 0.  0.
     999903    2    3    3    0    0 -0.12992561808E-01 -0.30079454111E-01 -0.12519489654E+00  0.13130661620E+00  0.22228025482E-01 0.  0.
         14    1    1    2    0    0 -0.25427342912E-02 -0.19393688889E-01  0.14126158646E-01  0.24127350134E-01  0.00000000000E+00 0. -1.
     999901    1    3    3    0    0  0.15535296099E-01  0.49473143000E-01  0.11106873789E+00  0.88849603367E+00  0.88000000000E+00 0. -1.
        -11    1    4    4    0    0 -0.17740729551E-01 -0.13501408968E-01 -0.73558448935E-01  0.76864348432E-01  0.51100000000E-03 0.  1.
         11    1    4    4    0    0  0.47481677438E-02 -0.16578045143E-01 -0.51636447602E-01  0.54442267768E-01  0.51100000000E-03 0. -1.
</event>
<event>
 8    1  0.1106168E+005  0.1043930E+01  0.7957747E-01            NaN
         13   -1    0    0    0    0  0.00000000000E+00  0.00000000000E+00  0.74505805969E-08  0.10566000000E+00  0.10566000000E+00 0. -1.
     999900   -1    0    0    0    0 -0.00000000000E+00 -0.00000000000E+00 -0.74505805969E-08  0.93827000000E+00  0.93827000000E+00 0. -1.
     999902    2    1    2    0    0 -0.16546825249E-01  0.99750635513E-02  0.11364422385E-01  0.10215146166E+01  0.10212686534E+01 0.  0.
     999903    2    3    3    0    0 -0.31507053890E-01 -0.72383225701E-01  0.10471260660E+00  0.13262734601E+00  0.19830711561E-01 0.  0.
         14    1    1    2    0    0  0.16546825249E-01 -0.99750635513E-02 -0.11364422385E-01  0.22415383441E-01  0.00000000000E+00 0.  1.
     999901    1    3    3    0    0  0.14960228641E-01  0.82358289252E-01 -0.93348184214E-01  0.88888727055E+00  0.88000000000E+00 0. -1.
        -11    1    4    4    0    0 -0.14485859620E-01 -0.38289517994E-01  0.69917385721E-01  0.81022399768E-01  0.51100000000E-03 0.  1.
         11    1    4    4    0    0 -0.17021194271E-01 -0.34093707707E-01  0.34795220878E-01  0.51604946241E-01  0.51100000000E-03 0. -1.
</event>
